Title
81304
    1CHL1    C3    1   1.053   6.444  10.191  0.3340 -0.2082  0.0989
    1CHL1    H3    2   1.097   6.545  10.179 -1.5844  0.8202  1.3914
    1CHL1    O3    3   0.995   6.446  10.322  0.1120  0.6807 -0.5173
    1CHL1   H3'    4   0.940   6.368  10.328  1.2537 -0.1378 -0.6106
    1CHL1    C4    5   0.951   6.403  10.084 -0.2733 -0.2261 -0.8392
    1CHL1   H4A    6   0.917   6.299  10.104  0.0811 -0.9930 -3.9538
    1CHL1   H4B    7   0.861   6.467  10.094  1.1911  2.0856 -1.9397
    1CHL1    C5    8   1.012   6.408   9.948 -0.5078 -0.7116  0.0344
    1CHL1    C6    9   0.957   6.487   9.854  0.1407 -0.1794 -0.6305
    1CHL1    H6   10   0.858   6.530   9.873 -0.3685 -0.5426 -2.4006
    1CHL1    C7   11   0.999   6.469   9.712 -0.4662  0.1935  0.3617
    1CHL1   H7A   12   0.919   6.433   9.645 -0.7909  2.6947 -0.6377
    1CHL1   H7B   13   1.027   6.568   9.669 -4.2170  0.1540 -2.4307
    1CHL1    C8   14   1.102   6.359   9.672 -0.4376  0.5351  0.5537
    1CHL1    H8   15   1.042   6.267   9.658  0.7745 -0.0802 -0.7259
    1CHL1   C14   16   1.173   6.394   9.540 -0.1494 -0.6115  0.0371
    1CHL1   H14   17   1.226   6.491   9.552 -2.2734  0.9179 -2.4579
    1CHL1   C15   18   1.088   6.417   9.419  0.4633 -0.3721  0.1234
    1CHL1  H15A   19   1.010   6.339   9.423  2.0803 -1.9717  1.7103
    1CHL1  H15B   20   1.032   6.512   9.422 -1.3997 -1.4175 -1.0887
    1CHL1   C16   21   1.179   6.398   9.296 -0.9982  0.0216 -0.2138
    1CHL1  H16A   22   1.118   6.339   9.223  2.2830 -2.1056 -1.3611
    1CHL1  H16B   23   1.205   6.499   9.258  1.3235 -1.2221 -2.0872
    1CHL1   C17   24   1.303   6.325   9.346  0.2428  0.0819 -0.5692
    1CHL1   H17   25   1.382   6.403   9.352  0.3187 -0.0776  0.5757
    1CHL1   C13   26   1.264   6.279   9.496  0.7304  0.2007  0.7517
    1CHL1   C18   27   1.192   6.140   9.474  0.8112 -0.0449 -0.2674
    1CHL1  H18A   28   1.263   6.060   9.444  1.4224 -0.1705  1.4424
    1CHL1  H18B   29   1.141   6.108   9.567  0.7970 -0.4330 -0.4069
    1CHL1  H18C   30   1.121   6.139   9.388  0.4451 -0.6430  0.0365
    1CHL1   C12   31   1.370   6.267   9.600 -0.7756  0.3193 -0.0163
    1CHL1  H12A   32   1.438   6.182   9.577  0.9527  1.9086 -0.8696
    1CHL1  H12B   33   1.426   6.363   9.605  0.4761 -0.4704  1.3300
    1CHL1   C11   34   1.319   6.237   9.747  0.1157 -0.3505  0.2651
    1CHL1  H11A   35   1.293   6.130   9.756 -1.1137 -0.1758 -1.0632
    1CHL1  H11B   36   1.407   6.253   9.813 -0.2159 -1.2523  0.9390
    1CHL1    C9   37   1.205   6.338   9.786 -0.1127 -0.4238 -0.1371
    1CHL1    H9   38   1.261   6.434   9.788  1.0369 -1.1098  0.9383
    1CHL1   C10   39   1.133   6.318   9.924  0.0395 -0.3333 -0.2219
    1CHL1   C19   40   1.078   6.167   9.928  0.0965 -0.5868 -0.3364
    1CHL1  H19A   41   1.166   6.099   9.929  0.6674  0.1012 -1.6474
    1CHL1  H19B   42   1.003   6.148  10.007 -0.8964  2.7553 -0.3891
    1CHL1  H19C   43   1.026   6.153   9.831 -0.8407 -1.4322  0.2838
    1CHL1    C1   44   1.231   6.339  10.044  0.0775 -0.1623 -0.8005
    1CHL1   H1A   45   1.317   6.270  10.028 -1.2618 -1.2280 -3.6298
    1CHL1   H1B   46   1.267   6.438  10.009 -1.5103  1.1051  1.0877
    1CHL1    C2   47   1.175   6.348  10.192  0.3537  0.0729 -0.4267
    1CHL1   H2A   48   1.253   6.377  10.265  0.0936  0.5290 -0.3284
    1CHL1   H2B   49   1.136   6.247  10.217  2.1333 -0.3445  0.7407
    1CHL1   C20   50   1.364   6.219   9.252  0.9505 -0.2574  0.0034
    1CHL1   H20   51   1.300   6.128   9.249 -1.0811  1.1605 -0.4426
    1CHL1   C21   52   1.501   6.178   9.305  0.0887 -0.4235  0.3678
    1CHL1  H21A   53   1.567   6.157   9.217 -1.6692 -0.6294 -0.9234
    1CHL1  H21B   54   1.500   6.082   9.361  0.0351 -0.3830  0.4346
    1CHL1  H21C   55   1.549   6.260   9.364  1.9906 -0.6270 -0.8281
    1CHL1   C22   56   1.370   6.266   9.110 -0.3311 -0.6473 -0.5013
    1CHL1  H22A   57   1.388   6.178   9.044 -0.3798 -0.6143 -0.5585
    1CHL1  H22B   58   1.267   6.295   9.081 -0.4717  2.6888  2.9674
    1CHL1   C23   59   1.448   6.393   9.071 -0.2368 -0.2984  0.5484
    1CHL1  H23A   60   1.408   6.482   9.125  0.8087 -0.0205  0.8661
    1CHL1  H23B   61   1.558   6.378   9.079 -0.3737 -1.3028  0.6049
    1CHL1   C24   62   1.434   6.443   8.923  0.3702 -0.7551  0.0635
    1CHL1  H24A   63   1.462   6.360   8.854 -0.2607 -0.9843  0.0748
    1CHL1  H24B   64   1.327   6.467   8.901  0.6685 -0.3134 -0.8902
    1CHL1   C25   65   1.513   6.569   8.879  0.1161 -0.8151  0.5778
    1CHL1   H25   66   1.502   6.656   8.947  1.1902 -0.0488 -0.1964
    1CHL1   C26   67   1.661   6.542   8.877 -0.1412 -0.1370  0.1840
    1CHL1  H26A   68   1.715   6.629   8.835  0.5793 -1.1043 -0.9431
    1CHL1  H26B   69   1.707   6.519   8.976 -1.8357  0.0822  1.0507
    1CHL1  H26C   70   1.675   6.457   8.807  0.9127 -1.5890  2.0959
    1CHL1   C27   71   1.473   6.612   8.734 -0.2424  0.5294 -0.9951
    1CHL1  H27A   72   1.533   6.697   8.696  1.8722  0.0234  1.1586
    1CHL1  H27B   73   1.486   6.522   8.669 -2.5496 -0.0608 -0.6993
    1CHL1  H27C   74   1.362   6.623   8.734 -0.3839 -0.6217  1.2573
    2CHL1    C3   75   1.864   4.352  10.034 -0.0561 -0.1971 -0.1501
    2CHL1    H3   76   1.904   4.259  10.078  1.0016 -0.5870 -1.8681
    2CHL1    O3   77   1.807   4.439  10.130 -0.3221 -0.0962  0.3377
    2CHL1   H3'   78   1.763   4.378  10.189 -1.3943 -0.4309 -0.7849
    2CHL1    C4   79   1.978   4.433   9.974  0.1480  0.0523 -0.4524
    2CHL1   H4A   80   1.955   4.535   9.938  0.0299  0.5286  0.9393
    2CHL1   H4B   81   2.054   4.443  10.055 -1.4624  2.4642  0.8361
    2CHL1    C5   82   2.046   4.359   9.859 -0.4577  0.4040 -0.0426
    2CHL1    C6   83   2.177   4.325   9.869 -0.0150 -1.2886  0.6478
    2CHL1    H6   84   2.237   4.341   9.960  0.8099  0.0554 -0.1276
    2CHL1    C7   85   2.254   4.260   9.752 -0.2056 -0.2497  0.0928
    2CHL1   H7A   86   2.345   4.323   9.741  0.8357 -1.2443  2.6817
    2CHL1   H7B   87   2.272   4.152   9.768 -2.1196 -0.8302 -1.4397
    2CHL1    C8   88   2.171   4.269   9.620 -0.3671 -0.1905 -0.3292
    2CHL1    H8   89   2.167   4.377   9.593 -0.2050  0.2187  1.2787
    2CHL1   C14   90   2.234   4.169   9.519 -0.1469 -0.7417 -0.5979
    2CHL1   H14   91   2.240   4.069   9.566  2.6803 -0.1512  0.3919
    2CHL1   C15   92   2.379   4.193   9.485 -0.8290 -0.3947  0.1486
    2CHL1  H15A   93   2.396   4.299   9.455  1.0186 -0.5409  0.6405
    2CHL1  H15B   94   2.449   4.167   9.567 -1.3425 -1.2121  0.3358
    2CHL1   C16   95   2.405   4.113   9.356  0.2184  0.7916 -0.7632
    2CHL1  H16A   96   2.448   4.179   9.277  1.7628  0.4120 -0.2603
    2CHL1  H16B   97   2.480   4.032   9.359 -0.5808  0.0640 -0.1609
    2CHL1   C17   98   2.258   4.057   9.318 -0.1914  0.9419  0.1481
    2CHL1   H17   99   2.239   3.964   9.375 -0.9346 -1.1618 -3.3962
    2CHL1   C13  100   2.164   4.160   9.384 -0.3093  0.5161 -0.0228
    2CHL1   C18  101   2.164   4.288   9.309  0.2560 -0.4154 -1.0428
    2CHL1  H18A  102   2.082   4.284   9.233 -1.9278  2.2271  1.0759
    2CHL1  H18B  103   2.135   4.366   9.382  1.2018 -0.8476 -0.2009
    2CHL1  H18C  104   2.256   4.305   9.249  0.6403  0.3068 -0.2465
    2CHL1   C12  105   2.016   4.117   9.411 -0.1208  0.3672  0.1166
    2CHL1  H12A  106   1.958   4.111   9.317 -0.2625 -0.8488  0.2743
    2CHL1  H12B  107   2.007   4.017   9.460  0.3992 -0.8333 -2.1538
    2CHL1   C11  108   1.942   4.208   9.511 -0.5727 -0.1681 -0.4778
    2CHL1  H11A  109   1.942   4.306   9.457 -1.4015  0.7025  1.0712
    2CHL1  H11B  110   1.838   4.175   9.530 -0.2656 -0.5190  0.6048
    2CHL1    C9  111   2.028   4.225   9.642  0.2876 -0.1692 -0.4167
    2CHL1    H9  112   2.034   4.125   9.691  0.4752  0.3467  0.6287
    2CHL1   C10  113   1.955   4.313   9.743  0.3948 -0.0287  0.3585
    2CHL1   C19  114   1.906   4.442   9.675 -0.6276 -0.3983  0.1725
    2CHL1  H19A  115   1.991   4.489   9.621 -0.4498 -1.8233 -0.8128
    2CHL1  H19B  116   1.822   4.423   9.604  0.2704 -0.9772 -0.7449
    2CHL1  H19C  117   1.866   4.523   9.741  1.4381  1.0957 -0.3443
    2CHL1    C1  118   1.830   4.243   9.802 -0.4498  0.4919 -0.7331
    2CHL1   H1A  119   1.755   4.223   9.722 -0.0630  0.5783 -1.1171
    2CHL1   H1B  120   1.860   4.147   9.849  1.3302  1.4300  0.1136
    2CHL1    C2  121   1.761   4.326   9.917 -0.2022 -0.0762 -0.6253
    2CHL1   H2A  122   1.693   4.256   9.970  1.4729  0.6359  2.6151
    2CHL1   H2B  123   1.719   4.423   9.883 -1.1422  0.7167  2.6440
    2CHL1   C20  124   2.233   4.021   9.171  0.5883 -0.9219  0.2801
    2CHL1   H20  125   2.203   4.112   9.114 -0.1077 -0.2659  1.6490
    2CHL1   C21  126   2.127   3.908   9.164 -0.8398 -0.6988 -0.0883
    2CHL1  H21A  127   2.025   3.952   9.165 -0.6518 -0.2663  0.9888
    2CHL1  H21B  128   2.151   3.839   9.248  1.2793  0.2748  0.1315
    2CHL1  H21C  129   2.128   3.841   9.075  0.3551  1.9783 -2.1550
    2CHL1   C22  130   2.357   3.969   9.093 -0.3075 -0.2156  0.0544
    2CHL1  H22A  131   2.328   3.970   8.986 -2.0573 -0.3717  0.5050
    2CHL1  H22B  132   2.439   4.042   9.109 -0.4386  0.3125 -1.5992
    2CHL1   C23  133   2.406   3.825   9.124 -0.2579  0.3564 -0.2288
    2CHL1  H23A  134   2.450   3.812   9.225 -1.2889 -0.6080  0.1190
    2CHL1  H23B  135   2.323   3.751   9.117 -1.7769  1.8878  1.2571
    2CHL1   C24  136   2.509   3.784   9.015  0.5594 -0.5614  1.1662
    2CHL1  H24A  137   2.551   3.681   9.024  2.0425 -0.2396 -1.4852
    2CHL1  H24B  138   2.459   3.793   8.917  3.5129 -0.1071 -0.3569
    2CHL1   C25  139   2.625   3.885   8.995  0.4393 -0.8139  0.9464
    2CHL1   H25  140   2.587   3.988   8.981 -0.6346 -1.6687 -3.1843
    2CHL1   C26  141   2.707   3.888   9.126 -0.3957  0.3672  0.6069
    2CHL1  H26A  142   2.786   3.963   9.102 -0.6441  0.6107  0.5480
    2CHL1  H26B  143   2.645   3.924   9.211 -0.2339 -0.9893  1.3144
    2CHL1  H26C  144   2.746   3.785   9.142 -1.7924 -0.2687  0.0066
    2CHL1   C27  145   2.716   3.848   8.880 -0.2523  0.5803 -0.2126
    2CHL1  H27A  146   2.793   3.927   8.865 -1.3767  1.9517  1.0634
    2CHL1  H27B  147   2.764   3.748   8.886  1.8656  1.4871 -1.1792
    2CHL1  H27C  148   2.661   3.834   8.784 -0.3193 -1.6663  0.1243
    3CHL1    C3  149   2.987   4.080  10.118 -0.7371 -0.7529 -0.0313
    3CHL1    H3  150   2.891   4.113  10.073 -0.7648  1.3484  1.5146
    3CHL1    O3  151   2.987   4.103  10.261  0.2229  0.4655  0.4333
    3CHL1   H3'  152   3.008   4.196  10.276  0.5103  0.3743  0.6062
    3CHL1    C4  153   3.019   3.926  10.094  0.5348  0.2226  0.1991
    3CHL1   H4A  154   3.113   3.902  10.147  1.1101  2.3618  0.2206
    3CHL1   H4B  155   2.939   3.863  10.138  0.5888  0.3636  0.5051
    3CHL1    C5  156   3.047   3.887   9.948 -0.0010  0.6070 -0.1286
    3CHL1    C6  157   2.975   3.786   9.893  0.0234  0.2691 -0.4204
    3CHL1    H6  158   2.910   3.722   9.955  1.1395 -1.0837 -0.6298
    3CHL1    C7  159   3.000   3.739   9.754 -0.1394 -0.4053  0.3268
    3CHL1   H7A  160   3.020   3.630   9.756  2.3418 -0.0122 -0.8996
    3CHL1   H7B  161   2.908   3.745   9.693 -0.2148 -0.2328  0.4572
    3CHL1    C8  162   3.123   3.806   9.687  0.2465  0.2734 -0.1015
    3CHL1    H8  163   3.208   3.746   9.727 -0.0336 -0.4075 -0.5341
    3CHL1   C14  164   3.122   3.784   9.536  0.0883  0.0873  0.0559
    3CHL1   H14  165   3.040   3.849   9.498 -1.0642 -0.0175  2.2978
    3CHL1   C15  166   3.072   3.650   9.485 -0.2593  0.1053  0.1601
    3CHL1  H15A  167   3.125   3.571   9.542 -0.6312  0.4562  1.0078
    3CHL1  H15B  168   2.961   3.644   9.495 -0.1741 -0.6626  0.6945
    3CHL1   C16  169   3.116   3.654   9.341 -0.6572 -0.6231  0.3076
    3CHL1  H16A  170   3.193   3.573   9.336  0.4117  0.4239 -0.7195
    3CHL1  H16B  171   3.028   3.642   9.275 -1.4568 -1.2698  1.4667
    3CHL1   C17  172   3.188   3.794   9.309  0.5703 -0.2859  0.5104
    3CHL1   H17  173   3.114   3.869   9.276  0.8444 -1.5057 -3.0823
    3CHL1   C13  174   3.238   3.840   9.451  0.0301  0.4191  1.1368
    3CHL1   C18  175   3.369   3.759   9.478 -0.3844 -0.1681 -0.5577
    3CHL1  H18A  176   3.359   3.651   9.502 -0.4398 -0.0728 -0.1575
    3CHL1  H18B  177   3.438   3.768   9.391  0.5050 -1.1730  0.0281
    3CHL1  H18C  178   3.421   3.796   9.568  0.2472 -1.6473 -0.2948
    3CHL1   C12  179   3.256   3.991   9.484  0.0941 -0.4565 -0.5525
    3CHL1  H12A  180   3.345   4.039   9.439 -1.1378  3.4836  1.0635
    3CHL1  H12B  181   3.169   4.042   9.439  0.5033  0.2842 -0.5062
    3CHL1   C11  182   3.268   4.014   9.638  0.3450 -0.8492 -0.4277
    3CHL1  H11A  183   3.366   3.982   9.678 -0.0312 -0.6520  0.6795
    3CHL1  H11B  184   3.273   4.125   9.640  1.6081 -0.8729 -1.4622
    3CHL1    C9  185   3.149   3.951   9.721  0.1224 -0.4011 -0.7955
    3CHL1    H9  186   3.056   4.003   9.688  1.1929  2.5234  0.5757
    3CHL1   C10  187   3.155   3.976   9.874  0.6009 -0.5375 -0.3155
    3CHL1   C19  188   3.298   3.936   9.928  0.4334 -0.3421 -0.5486
    3CHL1  H19A  189   3.320   3.833   9.893  2.1792  0.1402 -0.9106
    3CHL1  H19B  190   3.378   4.009   9.903 -1.3686  1.7921 -0.2792
    3CHL1  H19C  191   3.304   3.947  10.039 -1.6151 -0.8403 -0.3744
    3CHL1    C1  192   3.126   4.118   9.907  0.4395 -0.0190 -0.5882
    3CHL1   H1A  193   3.211   4.184   9.879  0.5582  0.5714  1.1419
    3CHL1   H1B  194   3.039   4.159   9.851  0.3823 -0.2590 -0.6734
    3CHL1    C2  195   3.106   4.156  10.058 -0.6999  0.0117  0.4539
    3CHL1   H2A  196   3.090   4.265  10.072  1.9428  0.6259 -1.0454
    3CHL1   H2B  197   3.191   4.131  10.125  0.8843 -1.3959 -2.0071
    3CHL1   C20  198   3.288   3.781   9.190  0.5454 -0.6852  0.5567
    3CHL1   H20  199   3.379   3.718   9.194 -0.1206 -1.8322 -1.7400
    3CHL1   C21  200   3.336   3.920   9.152 -0.3769 -0.5285  0.0700
    3CHL1  H21A  201   3.410   3.905   9.071  0.2658 -0.3152  0.6179
    3CHL1  H21B  202   3.382   3.981   9.233  1.3230 -0.9181 -0.5896
    3CHL1  H21C  203   3.246   3.970   9.108  0.7476  1.2051 -0.3193
    3CHL1   C22  204   3.217   3.719   9.063  0.3796  0.2666  0.1355
    3CHL1  H22A  205   3.161   3.634   9.106 -1.2323  0.1128 -2.1672
    3CHL1  H22B  206   3.133   3.779   9.022 -1.6540 -3.0712 -0.7812
    3CHL1   C23  207   3.306   3.670   8.951 -0.2909  0.0436 -0.4996
    3CHL1  H23A  208   3.349   3.753   8.892  0.5374 -0.3454 -0.4469
    3CHL1  H23B  209   3.389   3.604   8.983 -1.2142 -0.2264  1.4050
    3CHL1   C24  210   3.213   3.592   8.856  0.5171  0.1931 -0.2415
    3CHL1  H24A  211   3.155   3.519   8.916 -1.4797  0.1823 -2.1239
    3CHL1  H24B  212   3.138   3.651   8.800  0.7084  1.0950  0.4332
    3CHL1   C25  213   3.285   3.520   8.747  0.5364  0.1259  0.1988
    3CHL1   H25  214   3.358   3.452   8.796  0.1428 -0.7538 -0.4333
    3CHL1   C26  215   3.189   3.420   8.684 -0.4450 -0.4250 -0.0100
    3CHL1  H26A  216   3.150   3.341   8.751 -0.8812 -1.7197 -1.7484
    3CHL1  H26B  217   3.101   3.468   8.637 -2.0541 -1.6870  1.6732
    3CHL1  H26C  218   3.238   3.365   8.601 -0.2889 -0.1742 -0.0868
    3CHL1   C27  219   3.352   3.608   8.637  0.1584 -0.5044  0.5773
    3CHL1  H27A  220   3.274   3.659   8.577 -0.1061 -0.6145  0.8233
    3CHL1  H27B  221   3.429   3.679   8.674  0.6230 -0.1573 -1.0104
    3CHL1  H27C  222   3.405   3.534   8.573 -0.1303 -0.9874  0.8909
    4CHL1    C3  223   2.406   6.019  10.548  0.2319  0.1890  0.1428
    4CHL1    H3  224   2.297   6.023  10.524  0.4402  0.8291 -0.7273
    4CHL1    O3  225   2.440   6.004  10.687 -0.1411 -0.2161  0.0932
    4CHL1   H3'  226   2.535   6.020  10.679 -0.0899 -0.1478  0.8034
    4CHL1    C4  227   2.478   5.903  10.471 -0.3344 -0.6603  0.2401
    4CHL1   H4A  228   2.585   5.919  10.499 -0.5878  0.4848  0.5595
    4CHL1   H4B  229   2.449   5.802  10.507 -2.3524 -0.1375  0.0889
    4CHL1    C5  230   2.461   5.921  10.320  0.1927  0.4056 -0.5631
    4CHL1    C6  231   2.412   5.826  10.242  0.1523  0.2678 -0.3643
    4CHL1    H6  232   2.392   5.726  10.284  0.9857  0.6027  0.8584
    4CHL1    C7  233   2.386   5.822  10.095  0.5381 -0.1944 -0.3651
    4CHL1   H7A  234   2.413   5.723  10.053  1.9514 -1.2573  2.9057
    4CHL1   H7B  235   2.280   5.847  10.073  0.5283  1.3221  1.3178
    4CHL1    C8  236   2.465   5.942  10.042 -0.2370 -0.4686  0.5315
    4CHL1    H8  237   2.572   5.914  10.036  0.4177  2.2639 -1.4241
    4CHL1   C14  238   2.418   5.954   9.895 -0.2325  0.6569 -0.5285
    4CHL1   H14  239   2.313   5.991   9.892 -0.8317 -1.0550 -1.3330
    4CHL1   C15  240   2.429   5.827   9.808  0.1107 -0.0354 -0.6364
    4CHL1  H15A  241   2.527   5.780   9.832  0.8679  2.2075  0.8431
    4CHL1  H15B  242   2.353   5.750   9.829 -0.5099  0.3109 -1.5694
    4CHL1   C16  243   2.425   5.892   9.670  0.0673 -0.4627  0.2058
    4CHL1  H16A  244   2.516   5.863   9.614  0.4568  0.5071  0.3117
    4CHL1  H16B  245   2.333   5.866   9.613 -0.2816  1.9026 -0.3645
    4CHL1   C17  246   2.436   6.054   9.680 -0.6438 -0.8161  0.3529
    4CHL1   H17  247   2.336   6.100   9.692 -0.2093 -0.1120  1.3122
    4CHL1   C13  248   2.486   6.072   9.822 -0.1367 -0.2851  0.5845
    4CHL1   C18  249   2.636   6.047   9.811 -0.6313  0.2598 -0.6956
    4CHL1  H18A  250   2.647   5.946   9.768 -0.6746  0.5221 -1.3208
    4CHL1  H18B  251   2.680   6.130   9.751  3.3347 -1.7202 -0.6915
    4CHL1  H18C  252   2.680   6.037   9.913 -2.5098  0.3849  0.1592
    4CHL1   C12  253   2.456   6.205   9.895  0.3648 -0.1501 -0.3008
    4CHL1  H12A  254   2.509   6.290   9.847  1.4090  0.2156  1.4583
    4CHL1  H12B  255   2.349   6.235   9.893  0.4476  0.2506  0.7900
    4CHL1   C11  256   2.494   6.199  10.045 -0.5731  0.8746 -0.3047
    4CHL1  H11A  257   2.603   6.220  10.046 -0.8884  2.6262  0.7629
    4CHL1  H11B  258   2.445   6.279  10.105 -1.9695  0.2225 -0.5650
    4CHL1    C9  259   2.452   6.070  10.122  0.1044 -0.3716  0.1295
    4CHL1    H9  260   2.343   6.085  10.134  0.0412  0.3490 -1.2483
    4CHL1   C10  261   2.511   6.054  10.268 -0.6060 -0.4851  0.1121
    4CHL1   C19  262   2.666   6.052  10.268  0.8561  0.2908  0.3073
    4CHL1  H19A  263   2.713   5.965  10.217 -1.3988 -0.3274 -0.7640
    4CHL1  H19B  264   2.713   6.138  10.215  0.4430 -0.1148 -0.7346
    4CHL1  H19C  265   2.699   6.054  10.374 -0.2985  1.4830  0.6649
    4CHL1    C1  266   2.454   6.175  10.354  0.2299  0.0174 -0.0201
    4CHL1   H1A  267   2.513   6.265  10.330 -1.1082  1.0461  0.4733
    4CHL1   H1B  268   2.346   6.182  10.326  0.8847  2.0711 -2.1666
    4CHL1    C2  269   2.456   6.164  10.505  0.2556 -0.0784 -0.3649
    4CHL1   H2A  270   2.396   6.242  10.558  1.0968 -0.2328  0.8253
    4CHL1   H2B  271   2.564   6.160  10.531  0.0645  0.9363  0.6048
    4CHL1   C20  272   2.503   6.124   9.560  0.2839 -0.5810  0.0929
    4CHL1   H20  273   2.612   6.105   9.559  0.3843  0.0452 -1.0855
    4CHL1   C21  274   2.470   6.276   9.571  0.3276  0.8562 -0.2479
    4CHL1  H21A  275   2.504   6.321   9.667 -0.9328  0.0734  0.5839
    4CHL1  H21B  276   2.360   6.290   9.568  0.5901  2.7574 -1.7055
    4CHL1  H21C  277   2.526   6.325   9.489 -0.1781 -1.2200 -1.8926
    4CHL1   C22  278   2.459   6.069   9.418  0.7142  0.0823 -0.5230
    4CHL1  H22A  279   2.505   5.969   9.427  0.4888 -0.0362 -0.6736
    4CHL1  H22B  280   2.350   6.046   9.421  1.0627 -1.9307 -2.5488
    4CHL1   C23  281   2.505   6.143   9.294 -0.4042  0.3380  0.0425
    4CHL1  H23A  282   2.453   6.241   9.285  0.5800  1.0745  2.1384
    4CHL1  H23B  283   2.613   6.162   9.309 -0.7614 -0.5622  4.4893
    4CHL1   C24  284   2.480   6.061   9.163  0.3166  0.8292  0.1403
    4CHL1  H24A  285   2.525   5.959   9.162 -0.6667  0.3791  0.6130
    4CHL1  H24B  286   2.371   6.040   9.169  0.5606 -0.8063 -0.6674
    4CHL1   C25  287   2.513   6.140   9.033  0.8176 -0.1816 -0.1774
    4CHL1   H25  288   2.439   6.222   9.031  1.0288  0.1244  2.4350
    4CHL1   C26  289   2.652   6.206   9.031 -0.1169  0.4624 -0.2897
    4CHL1  H26A  290   2.725   6.124   9.019  1.8296  1.7878  2.0362
    4CHL1  H26B  291   2.660   6.278   8.946 -1.5421 -1.1069 -1.7930
    4CHL1  H26C  292   2.670   6.255   9.129  1.2260  0.3071 -0.4511
    4CHL1   C27  293   2.497   6.065   8.903  0.0620 -0.0033  0.5242
    4CHL1  H27A  294   2.567   5.979   8.911  0.2845  0.1579  0.2935
    4CHL1  H27B  295   2.396   6.022   8.888  0.5774 -0.6793 -1.1177
    4CHL1  H27C  296   2.519   6.131   8.816  1.3404  0.7649  1.4112
    5CHL1    C3  297   3.418   3.442  10.086 -0.2507 -0.8989 -0.4020
    5CHL1    H3  298   3.308   3.424  10.082 -0.3888 -0.3760  0.7424
    5CHL1    O3  299   3.442   3.466  10.227  0.1782 -0.2502 -0.4915
    5CHL1   H3'  300   3.537   3.473  10.228  0.2251 -0.8663  1.5524
    5CHL1    C4  301   3.508   3.323  10.063  0.4011 -0.1460 -0.1832
    5CHL1   H4A  302   3.609   3.310  10.108 -0.5671 -2.7869  1.3326
    5CHL1   H4B  303   3.468   3.242  10.127  1.6854 -2.1142 -1.8175
    5CHL1    C5  304   3.502   3.277   9.915  0.1919  0.0705 -0.3823
    5CHL1    C6  305   3.462   3.154   9.877 -0.8563 -0.2247  0.4372
    5CHL1    H6  306   3.428   3.081   9.952  0.4482  0.7813  2.0348
    5CHL1    C7  307   3.455   3.113   9.738 -0.4885  0.0733  0.8652
    5CHL1   H7A  308   3.480   3.006   9.722  0.3500  0.4176 -0.1846
    5CHL1   H7B  309   3.347   3.122   9.715 -0.0761 -2.4371 -2.4206
    5CHL1    C8  310   3.534   3.194   9.640 -0.6984  0.3941 -0.1853
    5CHL1    H8  311   3.645   3.188   9.647 -0.7698  1.0667  1.7986
    5CHL1   C14  312   3.486   3.165   9.493  0.0678  0.4476  0.4314
    5CHL1   H14  313   3.380   3.199   9.486  1.0667  3.5627 -0.4861
    5CHL1   C15  314   3.512   3.021   9.438 -0.4086  0.3412 -0.8518
    5CHL1  H15A  315   3.611   2.988   9.478 -1.8887 -0.4863  2.2367
    5CHL1  H15B  316   3.428   2.952   9.459  0.3582 -0.7333 -1.2486
    5CHL1   C16  317   3.528   3.042   9.288  0.2506 -0.0467  0.3219
    5CHL1  H16A  318   3.627   3.015   9.246 -1.0171 -1.5271 -1.8558
    5CHL1  H16B  319   3.454   2.978   9.234 -2.8175  1.3469  2.7159
    5CHL1   C17  320   3.504   3.195   9.258 -0.7721 -0.1198 -0.1058
    5CHL1   H17  321   3.394   3.210   9.260 -0.5793  1.8478 -2.2062
    5CHL1   C13  322   3.557   3.255   9.392  0.3339 -0.6049 -0.0537
    5CHL1   C18  323   3.715   3.252   9.390  0.0191 -0.1799 -0.3566
    5CHL1  H18A  324   3.753   3.152   9.362  0.2736 -0.7555  1.9626
    5CHL1  H18B  325   3.762   3.319   9.314  0.4003 -0.6474 -0.5393
    5CHL1  H18C  326   3.755   3.270   9.492  1.9362  0.1755 -1.1302
    5CHL1   C12  327   3.522   3.403   9.424  0.2578 -0.5289 -0.4781
    5CHL1  H12A  328   3.585   3.463   9.356  0.9523 -1.0933 -0.3348
    5CHL1  H12B  329   3.415   3.424   9.402  0.4686  2.1940  0.8677
    5CHL1   C11  330   3.556   3.436   9.567  0.1284  0.0955 -0.1015
    5CHL1  H11A  331   3.667   3.444   9.574  0.0216  0.1351  2.1847
    5CHL1  H11B  332   3.519   3.541   9.565 -2.0644 -0.6767 -0.3550
    5CHL1    C9  333   3.504   3.345   9.675 -0.3128  0.3020 -0.6229
    5CHL1    H9  334   3.393   3.348   9.674 -0.2943  0.5743 -1.5209
    5CHL1   C10  335   3.533   3.388   9.823  0.4441  0.0655  0.1706
    5CHL1   C19  336   3.684   3.423   9.823 -0.0396 -1.2738 -0.0700
    5CHL1  H19A  337   3.718   3.504   9.755  4.2565 -1.6077  1.5219
    5CHL1  H19B  338   3.713   3.474   9.918 -1.0796  0.7867 -0.8212
    5CHL1  H19C  339   3.751   3.336   9.813  1.2130 -0.2853 -0.4147
    5CHL1    C1  340   3.443   3.519   9.850 -0.5443 -0.4203 -1.0725
    5CHL1   H1A  341   3.478   3.604   9.787 -0.4296  0.1115 -0.2855
    5CHL1   H1B  342   3.337   3.498   9.825 -1.1700  0.5075  0.7377
    5CHL1    C2  343   3.455   3.554  10.001 -0.3516  1.0294  0.3163
    5CHL1   H2A  344   3.395   3.644  10.026  0.2586  1.3887  0.5188
    5CHL1   H2B  345   3.562   3.586  10.010  0.0590  0.5254 -2.3310
    5CHL1   C20  346   3.567   3.241   9.124 -0.0677  0.5488 -0.6141
    5CHL1   H20  347   3.671   3.279   9.134 -0.0800  0.4837 -0.2526
    5CHL1   C21  348   3.476   3.362   9.087 -0.3338 -0.7757 -0.4317
    5CHL1  H21A  349   3.448   3.427   9.173 -0.6423 -2.0402  0.4441
    5CHL1  H21B  350   3.382   3.334   9.033 -0.8332 -2.9146  1.4730
    5CHL1  H21C  351   3.534   3.425   9.017 -0.3741 -2.2332 -1.7955
    5CHL1   C22  352   3.549   3.136   9.009 -0.2895 -0.1397  0.1378
    5CHL1  H22A  353   3.579   3.033   9.037 -0.0141  0.3690  1.7860
    5CHL1  H22B  354   3.439   3.120   8.996 -0.2164 -0.1321 -0.4816
    5CHL1   C23  355   3.625   3.177   8.876  0.3494  0.1472  0.1577
    5CHL1  H23A  356   3.586   3.275   8.840 -1.3365 -0.5491  0.0489
    5CHL1  H23B  357   3.733   3.187   8.900  0.4111 -0.6587  0.2275
    5CHL1   C24  358   3.590   3.068   8.768 -0.3991 -0.1556 -0.3246
    5CHL1  H24A  359   3.636   2.972   8.801  0.8275  1.0409  1.5507
    5CHL1  H24B  360   3.480   3.057   8.768 -0.4439  0.3076  0.1087
    5CHL1   C25  361   3.645   3.100   8.630 -0.5698 -0.6760  0.2904
    5CHL1   H25  362   3.749   3.139   8.634 -1.0598  0.6426  0.4423
    5CHL1   C26  363   3.655   2.973   8.545 -0.0595  0.5223  0.3402
    5CHL1  H26A  364   3.735   2.915   8.596  0.3460  0.9035  0.1408
    5CHL1  H26B  365   3.557   2.921   8.547  0.3037 -0.3151 -2.1667
    5CHL1  H26C  366   3.673   2.992   8.437 -1.4116 -1.8896 -0.3341
    5CHL1   C27  367   3.561   3.195   8.540 -0.2320 -0.0401  0.1979
    5CHL1  H27A  368   3.592   3.208   8.434 -2.2009  0.4978 -0.3443
    5CHL1  H27B  369   3.463   3.145   8.524 -0.1414 -0.1905  0.1129
    5CHL1  H27C  370   3.549   3.291   8.595  2.8648 -1.0677  2.8165
    6CHL1    C3  371   0.762   0.741  10.401  0.3676  0.0510  0.8104
    6CHL1    H3  372   0.728   0.640  10.370  0.1993  0.2418  0.3720
    6CHL1    O3  373   0.787   0.744  10.544  0.2464 -0.0949  0.3213
    6CHL1   H3'  374   0.821   0.832  10.561 -3.0632  1.5252 -0.8925
    6CHL1    C4  375   0.887   0.778  10.329 -0.5729 -0.5308 -0.0324
    6CHL1   H4A  376   0.922   0.872  10.376 -0.7066 -2.2226  3.6338
    6CHL1   H4B  377   0.966   0.708  10.363 -2.1322 -1.7978  1.0556
    6CHL1    C5  378   0.871   0.783  10.180  0.4037 -0.1274 -0.2115
    6CHL1    C6  379   0.942   0.702  10.100  0.5763 -0.2367 -0.3531
    6CHL1    H6  380   1.015   0.635  10.148 -0.9192 -1.3097  0.4251
    6CHL1    C7  381   0.937   0.696   9.948 -0.5381 -0.0902 -0.8140
    6CHL1   H7A  382   1.035   0.701   9.897 -0.1012 -0.9054 -0.0639
    6CHL1   H7B  383   0.882   0.605   9.918 -2.1166  0.6798 -0.3648
    6CHL1    C8  384   0.851   0.822   9.897 -0.6966  0.3961  0.0401
    6CHL1    H8  385   0.913   0.914   9.908 -2.0295  1.0238  2.6911
    6CHL1   C14  386   0.805   0.796   9.751  0.2578 -0.4920 -0.0972
    6CHL1   H14  387   0.743   0.704   9.760 -1.6473  0.8660  0.9100
    6CHL1   C15  388   0.907   0.740   9.650 -0.0548  0.3244 -0.3928
    6CHL1  H15A  389   0.987   0.815   9.669 -0.0072  0.1663  0.0352
    6CHL1  H15B  390   0.955   0.642   9.670  1.2314  1.3341  1.5784
    6CHL1   C16  391   0.842   0.754   9.515 -0.1619  0.7887 -0.4328
    6CHL1  H16A  392   0.914   0.796   9.442  0.8886 -0.0056  0.1256
    6CHL1  H16B  393   0.815   0.657   9.467  0.5334 -0.9929  2.6244
    6CHL1   C17  394   0.706   0.831   9.533 -0.0097 -0.0400 -0.9006
    6CHL1   H17  395   0.636   0.745   9.543  0.7181 -0.8444 -2.5256
    6CHL1   C13  396   0.716   0.894   9.677 -0.3018  0.6741 -0.0464
    6CHL1   C18  397   0.785   1.036   9.657  1.0277  0.3924  0.2341
    6CHL1  H18A  398   0.815   1.073   9.758 -0.4564  0.1533  0.7800
    6CHL1  H18B  399   0.868   1.028   9.584  1.9388  2.3311  1.0047
    6CHL1  H18C  400   0.711   1.111   9.621  0.6906  1.2010  2.5085
    6CHL1   C12  401   0.590   0.906   9.762 -0.4595 -0.0488 -0.4772
    6CHL1  H12A  402   0.510   0.976   9.730 -0.6583 -1.2206 -2.6455
    6CHL1  H12B  403   0.543   0.805   9.767 -0.1441 -0.2907 -2.3098
    6CHL1   C11  404   0.624   0.942   9.915  0.6289 -0.4961 -0.0390
    6CHL1  H11A  405   0.666   1.044   9.917 -1.6680  0.4805  0.2502
    6CHL1  H11B  406   0.530   0.952   9.975  1.9400  0.0127  1.9629
    6CHL1    C9  407   0.726   0.841   9.981  0.6383  0.3005 -0.5843
    6CHL1    H9  408   0.675   0.743   9.970  0.4405  0.4253 -0.7833
    6CHL1   C10  409   0.761   0.874  10.133  0.2048  0.3054 -0.0597
    6CHL1   C19  410   0.799   1.025  10.136  0.1993 -0.1801  0.1886
    6CHL1  H19A  411   0.852   1.048  10.231  0.2242  0.4641  0.0219
    6CHL1  H19B  412   0.868   1.039  10.050 -1.3439 -0.7581 -1.1613
    6CHL1  H19C  413   0.716   1.098  10.126  1.2665  1.0580  0.2099
    6CHL1    C1  414   0.632   0.849  10.214  0.4538 -0.1458 -0.0683
    6CHL1   H1A  415   0.561   0.927  10.181  1.8381 -0.0927 -3.0789
    6CHL1   H1B  416   0.577   0.760  10.175 -0.8713 -0.1284  1.7083
    6CHL1    C2  417   0.653   0.840  10.365  0.5159  0.4151 -0.0384
    6CHL1   H2A  418   0.558   0.813  10.415  0.6381  0.1846  0.0691
    6CHL1   H2B  419   0.687   0.939  10.404  2.3918 -0.9634  1.9321
    6CHL1   C20  420   0.657   0.916   9.414 -0.0389 -0.6530  0.0855
    6CHL1   H20  421   0.722   1.005   9.401 -1.4769  0.0436 -2.7572
    6CHL1   C21  422   0.516   0.973   9.439  0.4436 -0.3255 -0.0075
    6CHL1  H21A  423   0.492   1.063   9.379 -0.7126  0.6494  1.8739
    6CHL1  H21B  424   0.500   1.015   9.541  1.3886 -2.3668  1.0171
    6CHL1  H21C  425   0.428   0.905   9.431  0.3698 -0.5135  2.0362
    6CHL1   C22  426   0.663   0.845   9.279 -0.3568 -0.2557  0.0232
    6CHL1  H22A  427   0.767   0.808   9.268 -0.0209  0.1800  1.6141
    6CHL1  H22B  428   0.584   0.766   9.287 -0.5659  0.0478  1.0176
    6CHL1   C23  429   0.642   0.937   9.154 -0.7566 -0.0504 -0.9349
    6CHL1  H23A  430   0.555   1.006   9.163  0.9845  2.2514 -1.4869
    6CHL1  H23B  431   0.735   0.995   9.140 -0.2659 -0.3743  0.9636
    6CHL1   C24  432   0.634   0.863   9.023  0.4005 -0.0023 -0.0204
    6CHL1  H24A  433   0.725   0.805   8.995  1.3339  0.8604  1.1502
    6CHL1  H24B  434   0.556   0.784   9.024 -1.0515  1.3266 -2.3246
    6CHL1   C25  435   0.607   0.953   8.902  0.3030 -0.0272 -0.5635
    6CHL1   H25  436   0.526   1.024   8.926 -0.9549 -1.9064  0.9346
    6CHL1   C26  437   0.737   1.037   8.878 -0.0683  0.1815 -0.6492
    6CHL1  H26A  438   0.751   1.110   8.960 -2.6611  0.6624 -0.5853
    6CHL1  H26B  439   0.823   0.966   8.879  1.0073  1.4498 -1.1777
    6CHL1  H26C  440   0.737   1.100   8.786 -1.4502  1.5538  0.2726
    6CHL1   C27  441   0.573   0.875   8.775  0.3021 -0.7147  0.2361
    6CHL1  H27A  442   0.658   0.834   8.717 -1.0113 -1.7759 -0.9870
    6CHL1  H27B  443   0.524   0.781   8.806  1.5337 -1.3482  0.2782
    6CHL1  H27C  444   0.510   0.940   8.709  0.6422 -0.1110  0.4974
    7CHL1    C3  445   4.067   4.635  10.490 -0.0334 -0.2261  0.9344
    7CHL1    H3  446   3.988   4.707  10.460  0.3252 -0.6140 -0.9860
    7CHL1    O3  447   4.083   4.617  10.631 -0.7850 -0.0265 -0.1620
    7CHL1   H3'  448   4.136   4.537  10.644  0.2972  0.2830 -2.5090
    7CHL1    C4  449   4.039   4.495  10.433 -0.3936 -0.2771 -0.4166
    7CHL1   H4A  450   4.126   4.431  10.456 -1.0149 -0.3293  1.9255
    7CHL1   H4B  451   3.956   4.444  10.486 -2.0822  2.0280 -0.7482
    7CHL1    C5  452   4.022   4.503  10.284  0.4007  0.2575 -1.0370
    7CHL1    C6  453   3.906   4.470  10.223  0.3004  0.5344  0.6045
    7CHL1    H6  454   3.819   4.438  10.282  0.5626 -2.2597 -0.4376
    7CHL1    C7  455   3.879   4.469  10.073 -0.6200 -0.1087 -0.4125
    7CHL1   H7A  456   3.859   4.368  10.031  1.8755 -0.4940 -0.7860
    7CHL1   H7B  457   3.800   4.541  10.046  1.1451  1.5601 -1.2641
    7CHL1    C8  458   4.012   4.494   9.997 -0.1247 -0.2869  0.6458
    7CHL1    H8  459   4.069   4.399  10.000  0.8959  0.2791 -0.4465
    7CHL1   C14  460   3.981   4.542   9.854  0.2225  0.6928  0.2292
    7CHL1   H14  461   3.940   4.641   9.884  0.9560  1.4248 -1.1165
    7CHL1   C15  462   3.874   4.473   9.777 -0.4017 -0.1355 -0.3562
    7CHL1  H15A  463   3.897   4.365   9.765 -3.3401 -0.9575  0.9536
    7CHL1  H15B  464   3.777   4.480   9.831 -1.1341 -0.1764 -1.6510
    7CHL1   C16  465   3.882   4.538   9.647 -0.6682  0.2273 -0.5786
    7CHL1  H16A  466   3.874   4.460   9.569 -0.5842 -2.6441  2.1748
    7CHL1  H16B  467   3.806   4.618   9.629  2.4183  3.9814  2.3193
    7CHL1   C17  468   4.013   4.615   9.637  0.3872  0.2985  0.2877
    7CHL1   H17  469   3.994   4.723   9.656  4.1036  1.4771 -1.9439
    7CHL1   C13  470   4.095   4.577   9.763 -0.1849 -0.8468 -0.1370
    7CHL1   C18  471   4.179   4.448   9.731  0.0518  0.3298 -0.1504
    7CHL1  H18A  472   4.270   4.470   9.672 -0.4155 -0.8882 -1.3490
    7CHL1  H18B  473   4.210   4.400   9.827 -0.6622  0.5650  0.2024
    7CHL1  H18C  474   4.118   4.371   9.678 -0.0709  0.9989 -0.9833
    7CHL1   C12  475   4.184   4.681   9.837  0.7318  0.1733  0.1423
    7CHL1  H12A  476   4.284   4.701   9.791  0.4216  0.9916 -0.1883
    7CHL1  H12B  477   4.131   4.779   9.835 -0.5931 -0.5138  1.2448
    7CHL1   C11  478   4.219   4.646   9.974  0.7121  0.5105  0.3273
    7CHL1  H11A  479   4.286   4.558   9.970  0.3334  0.2380 -0.0116
    7CHL1  H11B  480   4.283   4.721  10.025  0.4092 -0.1575  1.7257
    7CHL1    C9  481   4.101   4.598  10.058 -1.0213 -0.5971 -0.9743
    7CHL1    H9  482   4.039   4.689  10.075 -0.6797 -0.4070 -0.7295
    7CHL1   C10  483   4.139   4.556  10.205 -0.2404  0.3634 -0.3618
    7CHL1   C19  484   4.257   4.443  10.201  0.0788 -0.0347  0.2915
    7CHL1  H19A  485   4.221   4.356  10.141  2.2683 -1.3571  0.8481
    7CHL1  H19B  486   4.347   4.494  10.162  1.4052 -0.0846  3.1875
    7CHL1  H19C  487   4.280   4.395  10.298  2.0901  2.4474  1.0853
    7CHL1    C1  488   4.192   4.682  10.281 -0.0975  0.0008 -0.6317
    7CHL1   H1A  489   4.285   4.729  10.242  0.5327 -0.4017  0.3627
    7CHL1   H1B  490   4.109   4.753  10.265  0.5505  0.9795  0.2867
    7CHL1    C2  491   4.202   4.682  10.430  0.1346  0.8516 -0.4116
    7CHL1   H2A  492   4.222   4.783  10.472  1.3925  0.3113  0.3197
    7CHL1   H2B  493   4.277   4.606  10.460  0.2963  2.0562  2.4077
    7CHL1   C20  494   4.088   4.616   9.499  0.7927  0.0975  0.7276
    7CHL1   H20  495   4.118   4.513   9.471  0.1595  0.5271 -1.7127
    7CHL1   C21  496   4.219   4.692   9.488  0.0471 -1.2702 -0.5519
    7CHL1  H21A  497   4.208   4.802   9.497 -0.6206 -1.4985  1.4461
    7CHL1  H21B  498   4.277   4.666   9.396  0.3550  1.1201 -1.0759
    7CHL1  H21C  499   4.281   4.666   9.576  0.7359  0.0206 -0.6324
    7CHL1   C22  500   3.988   4.657   9.381 -0.2926  0.1007 -0.8653
    7CHL1  H22A  501   3.899   4.590   9.385  0.7398 -1.3820 -2.4131
    7CHL1  H22B  502   3.952   4.759   9.410  2.6817 -0.0249  3.9682
    7CHL1   C23  503   4.054   4.642   9.245  0.4337 -0.3171 -0.4681
    7CHL1  H23A  504   3.975   4.665   9.171 -0.0373 -2.2069 -0.5719
    7CHL1  H23B  505   4.134   4.719   9.239  0.8330 -0.7230 -0.3245
    7CHL1   C24  506   4.100   4.500   9.205 -0.2966 -0.2443  0.0461
    7CHL1  H24A  507   4.146   4.493   9.104 -0.3995  1.3784 -0.1382
    7CHL1  H24B  508   4.189   4.480   9.268  0.6909 -1.4861 -1.7155
    7CHL1   C25  509   3.992   4.395   9.200  0.3826  0.2682  0.9843
    7CHL1   H25  510   3.927   4.406   9.290  0.7332 -0.4758  1.3375
    7CHL1   C26  511   3.898   4.402   9.069 -0.2294  0.0606 -0.1666
    7CHL1  H26A  512   3.966   4.386   8.982  1.0977  0.4224  0.7864
    7CHL1  H26B  513   3.813   4.333   9.089 -0.5601  1.0789  2.1292
    7CHL1  H26C  514   3.844   4.499   9.070 -0.4933 -0.0863  0.8607
    7CHL1   C27  515   4.074   4.268   9.214  0.0069  0.2251 -0.2922
    7CHL1  H27A  516   4.129   4.282   9.310 -2.0044 -0.1449  0.9322
    7CHL1  H27B  517   4.007   4.180   9.217  0.0278  0.2603  1.1818
    7CHL1  H27C  518   4.148   4.256   9.131  0.8098  1.2500  0.2665
    8CHL1    C3  519   3.961   5.858  10.363  0.4386  0.2898  0.4372
    8CHL1    H3  520   3.984   5.749  10.358 -0.7413  0.0915 -0.8510
    8CHL1    O3  521   3.918   5.889  10.494  0.0467 -0.4428 -0.5296
    8CHL1   H3'  522   3.826   5.868  10.508  0.6047 -2.3551  0.3676
    8CHL1    C4  523   4.085   5.943  10.326  0.0351 -0.5544  0.2954
    8CHL1   H4A  524   4.062   6.051  10.338 -0.7859 -0.6086 -0.7929
    8CHL1   H4B  525   4.161   5.898  10.394  0.6284  0.9719  0.6662
    8CHL1    C5  526   4.130   5.924  10.180 -0.0239 -0.3973 -0.5146
    8CHL1    C6  527   4.254   5.882  10.151  0.5367  0.3904 -0.6578
    8CHL1    H6  528   4.332   5.863  10.226 -1.0637 -0.7066  0.7623
    8CHL1    C7  529   4.302   5.862  10.013  0.5324  0.0572  0.8156
    8CHL1   H7A  530   4.401   5.909   9.995 -0.0202  0.7069 -0.6400
    8CHL1   H7B  531   4.312   5.758   9.976 -0.3998 -0.0025  0.7013
    8CHL1    C8  532   4.208   5.918   9.905 -1.1058 -0.2720 -0.2408
    8CHL1    H8  533   4.231   6.027   9.904 -1.3597 -0.2184 -1.4584
    8CHL1   C14  534   4.238   5.854   9.770  0.6296  0.1662 -0.2099
    8CHL1   H14  535   4.192   5.753   9.777 -0.0216  0.4504 -0.3377
    8CHL1   C15  536   4.378   5.832   9.732 -0.4429  0.0553  0.0805
    8CHL1  H15A  537   4.430   5.926   9.762 -1.0117  0.0477  1.1457
    8CHL1  H15B  538   4.430   5.754   9.792  0.2300 -0.7861 -1.5656
    8CHL1   C16  539   4.362   5.789   9.589 -0.0299  0.4239 -0.9581
    8CHL1  H16A  540   4.446   5.830   9.529  0.5056 -2.0236 -1.9290
    8CHL1  H16B  541   4.359   5.678   9.586  0.0085  0.3960 -0.2266
    8CHL1   C17  542   4.223   5.836   9.532 -0.0453 -0.5198 -0.3275
    8CHL1   H17  543   4.168   5.740   9.520 -1.0376 -0.2717  2.0254
    8CHL1   C13  544   4.158   5.919   9.652 -0.3392  0.4879  0.6392
    8CHL1   C18  545   4.196   6.067   9.623 -0.2218  0.0849 -0.8214
    8CHL1  H18A  546   4.151   6.121   9.536 -1.2720 -0.2315 -0.4900
    8CHL1  H18B  547   4.169   6.130   9.710  1.1580 -0.7215  0.1955
    8CHL1  H18C  548   4.305   6.083   9.617 -0.2491  0.3886 -0.4995
    8CHL1   C12  549   4.008   5.899   9.681  0.3467 -0.2075 -0.0024
    8CHL1  H12A  550   3.945   5.952   9.606 -3.1169 -1.6024  1.7960
    8CHL1  H12B  551   3.986   5.792   9.662  3.0674 -0.6973 -0.6440
    8CHL1   C11  552   3.965   5.949   9.821 -0.1921  0.8072  0.5835
    8CHL1  H11A  553   3.959   6.059   9.805  1.4360  0.8302  0.0031
    8CHL1  H11B  554   3.861   5.915   9.835 -0.4238  1.4019  0.3298
    8CHL1    C9  555   4.059   5.903   9.934 -0.0457  0.5649 -0.5877
    8CHL1    H9  556   4.048   5.793   9.948  0.1962  0.5183 -0.7603
    8CHL1   C10  557   4.024   5.960  10.077 -0.3090  0.2145 -0.2925
    8CHL1   C19  558   4.002   6.113  10.058 -0.7177  1.1878 -0.6361
    8CHL1  H19A  559   4.003   6.170  10.153 -1.9444  2.3501 -1.3009
    8CHL1  H19B  560   4.088   6.151   9.999  1.8813  0.2888  2.4325
    8CHL1  H19C  561   3.902   6.137  10.014 -0.7187 -0.5306 -1.5900
    8CHL1    C1  562   3.889   5.887  10.120  0.3832 -0.2025 -0.3017
    8CHL1   H1A  563   3.814   5.935  10.053  0.5602 -0.1600 -0.4709
    8CHL1   H1B  564   3.903   5.779  10.101 -2.4060 -0.4883 -0.8510
    8CHL1    C2  565   3.848   5.891  10.270  0.4299 -0.4184  0.1573
    8CHL1   H2A  566   3.762   5.825  10.297  0.5371 -0.0273  1.4972
    8CHL1   H2B  567   3.820   5.996  10.288 -0.2441 -0.4288 -0.7729
    8CHL1   C20  568   4.226   5.897   9.392  0.1467 -1.3491  0.5644
    8CHL1   H20  569   4.277   5.996   9.399  2.2865 -2.2883 -1.1501
    8CHL1   C21  570   4.083   5.930   9.351 -0.2708 -0.0116  0.1111
    8CHL1  H21A  571   4.040   6.019   9.402 -0.3177  0.5650 -0.9181
    8CHL1  H21B  572   4.021   5.843   9.382  0.4383 -0.2785  0.7926
    8CHL1  H21C  573   4.071   5.941   9.241  1.9399 -3.1357 -0.4854
    8CHL1   C22  574   4.296   5.806   9.285 -0.0366  0.5055 -0.1962
    8CHL1  H22A  575   4.402   5.790   9.316  0.5011  1.5757 -1.4199
    8CHL1  H22B  576   4.252   5.704   9.296 -1.8628  1.2441 -0.4948
    8CHL1   C23  577   4.297   5.856   9.140 -0.7338  0.3889 -0.7966
    8CHL1  H23A  578   4.202   5.822   9.092 -1.9275  1.5141  0.7243
    8CHL1  H23B  579   4.299   5.967   9.138  2.5400  0.3415 -1.4024
    8CHL1   C24  580   4.421   5.801   9.074 -0.1658  0.0833  0.2610
    8CHL1  H24A  581   4.496   5.840   9.146  0.3954 -0.3994 -0.0674
    8CHL1  H24B  582   4.423   5.690   9.079  1.0348  0.1472  1.3695
    8CHL1   C25  583   4.458   5.857   8.939 -0.5308 -0.6021 -0.0366
    8CHL1   H25  584   4.552   5.801   8.919  0.2476  0.5959  0.2184
    8CHL1   C26  585   4.362   5.816   8.825 -0.4749 -0.0121  0.1647
    8CHL1  H26A  586   4.261   5.863   8.832  0.6850  2.7717 -1.4273
    8CHL1  H26B  587   4.388   5.853   8.724 -0.9002  0.1756  0.1218
    8CHL1  H26C  588   4.357   5.705   8.817  1.7876 -0.4924  4.1029
    8CHL1   C27  589   4.489   6.006   8.939 -0.6531  0.6603  0.3392
    8CHL1  H27A  590   4.570   6.018   9.015  0.5866 -3.3898 -0.2272
    8CHL1  H27B  591   4.518   6.038   8.837  0.6880  0.5070  0.6602
    8CHL1  H27C  592   4.393   6.059   8.956 -1.3138  1.1295 -4.1343
    9CHL1    C3  593   0.238   2.224  10.099  0.5354  0.3138  0.4926
    9CHL1    H3  594   0.269   2.118  10.088  0.4808  0.5187 -2.0049
    9CHL1    O3  595   0.247   2.268  10.234  0.6293 -0.3127  0.1091
    9CHL1   H3'  596   0.171   2.224  10.274  2.1222 -2.3551  0.8056
    9CHL1    C4  597   0.326   2.317  10.027 -0.9200 -0.0970 -0.2275
    9CHL1   H4A  598   0.302   2.421  10.059  2.3561  0.6846 -0.1352
    9CHL1   H4B  599   0.432   2.304  10.056 -0.5142  2.0552 -0.6339
    9CHL1    C5  600   0.314   2.303   9.878  0.5662 -0.6813 -0.3681
    9CHL1    C6  601   0.418   2.268   9.802  0.1277  0.4142  0.4812
    9CHL1    H6  602   0.511   2.250   9.859  0.1829  0.1834  0.3199
    9CHL1    C7  603   0.431   2.273   9.656 -0.3783  0.7349 -0.5430
    9CHL1   H7A  604   0.513   2.341   9.623  0.9110  1.5022  3.9719
    9CHL1   H7B  605   0.465   2.173   9.621 -2.4491  0.0110 -0.5462
    9CHL1    C8  606   0.293   2.302   9.587  0.0632 -1.8099  0.0719
    9CHL1    H8  607   0.281   2.412   9.582 -0.1822 -1.7840  1.2507
    9CHL1   C14  608   0.293   2.251   9.445  0.3215 -0.3466 -0.5527
    9CHL1   H14  609   0.293   2.140   9.443 -3.1400 -0.3884 -1.4379
    9CHL1   C15  610   0.414   2.287   9.351 -0.7672  0.2218 -0.2293
    9CHL1  H15A  611   0.427   2.396   9.364 -2.5641  0.4477 -0.2378
    9CHL1  H15B  612   0.498   2.220   9.380 -2.5567 -1.3075  1.6037
    9CHL1   C16  613   0.354   2.253   9.217 -0.0006  0.3890 -0.0606
    9CHL1  H16A  614   0.360   2.343   9.153 -1.1845  0.9927  0.6625
    9CHL1  H16B  615   0.397   2.170   9.158 -1.5916  0.2984 -1.1112
    9CHL1   C17  616   0.203   2.217   9.233 -0.0526 -0.1859 -0.0554
    9CHL1   H17  617   0.200   2.107   9.246 -1.1598 -0.0299  1.0566
    9CHL1   C13  618   0.167   2.285   9.368 -0.4896  0.3281 -0.2443
    9CHL1   C18  619   0.160   2.436   9.337  0.1022  0.7692 -0.0486
    9CHL1  H18A  620   0.208   2.468   9.243 -2.7852 -2.3139 -2.7413
    9CHL1  H18B  621   0.049   2.446   9.341  0.2355  1.8039  1.5998
    9CHL1  H18C  622   0.195   2.497   9.423 -0.4060  0.5257  0.3381
    9CHL1   C12  623   0.050   2.215   9.448 -0.1183 -0.4004 -0.4605
    9CHL1  H12A  624  -0.048   2.240   9.403 -0.6906  0.9078  1.4170
    9CHL1  H12B  625   0.069   2.106   9.448 -1.2505 -0.6051 -0.3632
    9CHL1   C11  626   0.048   2.279   9.586 -1.0801 -0.0508  0.5442
    9CHL1  H11A  627   0.037   2.388   9.570  0.0950 -0.1435 -0.9216
    9CHL1  H11B  628  -0.035   2.243   9.651 -0.8795 -0.8735  0.3501
    9CHL1    C9  629   0.171   2.254   9.669  0.0399 -0.3001  0.2283
    9CHL1    H9  630   0.182   2.144   9.683 -1.1839 -0.8614 -2.8209
    9CHL1   C10  631   0.172   2.306   9.816  0.8006 -0.4683  0.7083
    9CHL1   C19  632   0.123   2.451   9.822  0.3503 -0.2448 -0.5254
    9CHL1  H19A  633   0.018   2.483   9.803  0.5333  1.6027  1.3814
    9CHL1  H19B  634   0.151   2.492   9.922  1.7449  0.1520 -1.0704
    9CHL1  H19C  635   0.175   2.518   9.750 -1.5932  1.9458  0.0526
    9CHL1    C1  636   0.084   2.211   9.898 -0.3342  0.3334 -0.6005
    9CHL1   H1A  637  -0.022   2.219   9.869 -0.4000  0.9630 -0.1979
    9CHL1   H1B  638   0.117   2.106   9.881  0.2625  0.4189 -0.0141
    9CHL1    C2  639   0.092   2.236  10.053  0.0948  0.3316 -0.1964
    9CHL1   H2A  640   0.035   2.157  10.105  0.8152  0.9092  1.5048
    9CHL1   H2B  641   0.046   2.335  10.075  1.4457  0.9723 -0.1512
    9CHL1   C20  642   0.117   2.244   9.112 -0.2982  0.0009  0.0692
    9CHL1   H20  643   0.136   2.352   9.093  0.9428  0.6364  4.3981
    9CHL1   C21  644  -0.029   2.219   9.130  0.6153  0.0477  0.2303
    9CHL1  H21A  645  -0.090   2.262   9.048 -0.6437 -1.0412  0.5990
    9CHL1  H21B  646  -0.081   2.260   9.219 -0.2253  0.9552 -0.6652
    9CHL1  H21C  647  -0.053   2.111   9.136  1.1316 -0.1148 -0.5612
    9CHL1   C22  648   0.169   2.158   8.994  0.2621 -0.5815  0.1617
    9CHL1  H22A  649   0.279   2.158   8.979  0.0319 -0.6721 -1.5567
    9CHL1  H22B  650   0.144   2.053   9.023 -2.7233  0.7592  2.7200
    9CHL1   C23  651   0.114   2.172   8.851  1.0570  0.0407 -0.0986
    9CHL1  H23A  652   0.005   2.151   8.859  0.8232  0.8492 -0.9053
    9CHL1  H23B  653   0.124   2.273   8.804  2.3266 -0.3740 -0.7317
    9CHL1   C24  654   0.183   2.078   8.750 -0.0891 -0.0103  0.6737
    9CHL1  H24A  655   0.287   2.117   8.744 -0.9255  2.3253  0.8215
    9CHL1  H24B  656   0.181   1.983   8.807 -0.5724 -0.7406 -0.5487
    9CHL1   C25  657   0.117   2.057   8.612  0.2758  0.4419  0.3036
    9CHL1   H25  658   0.014   2.020   8.631 -1.2599  3.5643 -1.5311
    9CHL1   C26  659   0.109   2.190   8.537 -0.3676 -0.4658 -0.2428
    9CHL1  H26A  660   0.081   2.179   8.430 -0.1394 -0.8984 -0.2612
    9CHL1  H26B  661   0.039   2.258   8.588  0.4992  0.9145 -0.8748
    9CHL1  H26C  662   0.213   2.228   8.538 -0.4048 -0.2638 -2.1181
    9CHL1   C27  663   0.198   1.956   8.522 -0.5103  0.0148  0.2706
    9CHL1  H27A  664   0.287   2.002   8.475 -0.1043  0.3255  1.3305
    9CHL1  H27B  665   0.235   1.868   8.579  0.5553 -0.9005 -1.7937
    9CHL1  H27C  666   0.130   1.922   8.441  0.0851 -1.3938  0.3410
   10CHL1    C3  667   6.205   5.941  10.185 -0.1223  0.1382  0.2502
   10CHL1    H3  668   6.125   5.998  10.236  0.0924  1.8630 -1.2614
   10CHL1    O3  669   6.304   5.902  10.280  0.0377 -0.4647 -0.2913
   10CHL1   H3'  670   6.386   5.909  10.231  0.2741 -0.1435  0.1447
   10CHL1    C4  671   6.132   5.812  10.131  0.0648 -0.0163  0.4928
   10CHL1   H4A  672   6.221   5.754  10.098 -0.8714 -2.0445  1.5196
   10CHL1   H4B  673   6.080   5.763  10.215 -0.8997 -1.0965 -0.7262
   10CHL1    C5  674   6.041   5.841  10.012  0.4816  0.0758  0.2319
   10CHL1    C6  675   5.915   5.802  10.015  0.3882 -0.5925  0.7411
   10CHL1    H6  676   5.878   5.749  10.103  0.3963 -1.0480  0.4696
   10CHL1    C7  677   5.819   5.825   9.900  0.4416  0.3689 -0.1025
   10CHL1   H7A  678   5.742   5.746   9.888 -0.9247  1.6604 -0.1169
   10CHL1   H7B  679   5.750   5.908   9.927 -2.6272 -1.5691 -1.6665
   10CHL1    C8  680   5.893   5.845   9.763 -1.2041  0.4021 -0.5170
   10CHL1    H8  681   5.947   5.752   9.734  0.3905  1.4934 -1.1623
   10CHL1   C14  682   5.793   5.876   9.655 -0.6005  0.4443  0.1691
   10CHL1   H14  683   5.734   5.963   9.691  0.7490  1.4069  0.1037
   10CHL1   C15  684   5.692   5.767   9.626 -0.3476  0.4132 -0.2648
   10CHL1  H15A  685   5.738   5.667   9.640 -1.8770  0.1719  3.6669
   10CHL1  H15B  686   5.613   5.784   9.702 -0.5100  0.3224 -0.4129
   10CHL1   C16  687   5.637   5.801   9.488 -0.6615  0.8346 -0.3659
   10CHL1  H16A  688   5.656   5.709   9.429  1.4076  0.3194  1.0213
   10CHL1  H16B  689   5.527   5.814   9.496 -0.6537  0.3354  0.8114
   10CHL1   C17  690   5.729   5.917   9.434  0.0758  0.0132  0.0435
   10CHL1   H17  691   5.667   6.006   9.460 -1.0823  0.0450 -2.6059
   10CHL1   C13  692   5.854   5.907   9.518  0.0430 -0.3356  0.4590
   10CHL1   C18  693   5.930   5.787   9.468 -0.3181  0.3975  0.7619
   10CHL1  H18A  694   5.983   5.814   9.375  0.2434  0.8065  1.1977
   10CHL1  H18B  695   6.008   5.765   9.545 -1.3544 -0.8650  1.4751
   10CHL1  H18C  696   5.877   5.689   9.461 -0.6866  0.7926 -2.9908
   10CHL1   C12  697   5.947   6.031   9.541  0.1780 -0.7443  0.3220
   10CHL1  H12A  698   6.002   6.064   9.450  0.3258  1.8543  1.3404
   10CHL1  H12B  699   5.879   6.113   9.571  0.5799 -0.3787  0.2252
   10CHL1   C11  700   6.048   6.015   9.657 -0.0434  0.2929 -0.4509
   10CHL1  H11A  701   6.101   5.926   9.617 -1.2777 -0.4882 -0.3874
   10CHL1  H11B  702   6.116   6.102   9.670  0.6306 -0.1385 -1.1366
   10CHL1    C9  703   5.993   5.961   9.787 -0.2471 -0.2541 -0.5312
   10CHL1    H9  704   5.930   6.039   9.835  0.8832 -0.5713  1.5120
   10CHL1   C10  705   6.098   5.926   9.896 -0.4477  0.4616 -0.1866
   10CHL1   C19  706   6.211   5.846   9.829 -0.4474 -0.0050 -0.0090
   10CHL1  H19A  707   6.268   5.916   9.764 -0.1480  0.8157  1.1286
   10CHL1  H19B  708   6.281   5.795   9.898 -1.6341 -2.7150 -0.7395
   10CHL1  H19C  709   6.172   5.762   9.768  2.2313 -1.5664  0.3670
   10CHL1    C1  710   6.157   6.055   9.963 -0.8254 -0.4349 -0.0652
   10CHL1   H1A  711   6.215   6.112   9.887 -0.9420 -0.6025 -0.2804
   10CHL1   H1B  712   6.074   6.116  10.004 -1.4972 -1.8313  0.7122
   10CHL1    C2  713   6.261   6.025  10.072  0.4679 -0.7996  0.0745
   10CHL1   H2A  714   6.294   6.121  10.117  0.2019 -0.5789 -0.1976
   10CHL1   H2B  715   6.354   5.975  10.037 -0.9699 -2.9296 -0.8040
   10CHL1   C20  716   5.739   5.918   9.280  0.2659  0.1115  0.4202
   10CHL1   H20  717   5.815   5.840   9.257  1.8233  1.3293  1.3487
   10CHL1   C21  718   5.796   6.048   9.231  0.4587  0.2193  0.4271
   10CHL1  H21A  719   5.725   6.133   9.236 -0.2304 -0.2230 -1.2916
   10CHL1  H21B  720   5.831   6.035   9.126 -2.3848 -1.7839 -0.3332
   10CHL1  H21C  721   5.878   6.089   9.293 -0.3292  1.5679  0.5891
   10CHL1   C22  722   5.594   5.902   9.212  0.1986  0.0893 -0.5943
   10CHL1  H22A  723   5.546   5.813   9.257 -0.8485  1.6121  1.4022
   10CHL1  H22B  724   5.523   5.983   9.241  0.1523  0.2044 -1.0262
   10CHL1   C23  725   5.597   5.893   9.057  0.0695  0.6278  0.4100
   10CHL1  H23A  726   5.634   5.991   9.019  0.6751  0.2683  0.0625
   10CHL1  H23B  727   5.665   5.810   9.029 -1.9043 -1.0568  0.4756
   10CHL1   C24  728   5.458   5.877   8.993 -0.0259 -0.0560 -0.1491
   10CHL1  H24A  729   5.400   5.791   9.031  1.0546 -0.7333 -0.0186
   10CHL1  H24B  730   5.397   5.967   9.018  0.6473  1.0581 -2.3937
   10CHL1   C25  731   5.470   5.864   8.835 -0.3143  0.3147  0.5780
   10CHL1   H25  732   5.516   5.958   8.797  0.4112 -0.5366 -0.6706
   10CHL1   C26  733   5.554   5.750   8.783  0.1680 -0.5754 -0.3966
   10CHL1  H26A  734   5.524   5.652   8.826  0.8755  0.5990  2.9922
   10CHL1  H26B  735   5.555   5.747   8.672 -0.3541  0.8328 -0.4566
   10CHL1  H26C  736   5.662   5.770   8.802  0.2638 -2.8791  1.8779
   10CHL1   C27  737   5.329   5.847   8.780  0.0206 -0.8323 -0.9955
   10CHL1  H27A  738   5.332   5.851   8.669 -0.8282 -1.0675 -1.0314
   10CHL1  H27B  739   5.290   5.748   8.809 -0.7819 -0.3793 -0.5116
   10CHL1  H27C  740   5.259   5.928   8.810 -0.5464 -1.4590 -0.6160
   11CHL1    C3  741   2.158   2.515   9.997 -0.0113 -0.6035  0.1665
   11CHL1    H3  742   2.236   2.593  10.004  0.3466 -0.7000 -2.2178
   11CHL1    O3  743   2.117   2.466  10.126 -0.1458 -0.0115 -0.2613
   11CHL1   H3'  744   2.200   2.455  10.172 -0.9964 -2.1500  0.8583
   11CHL1    C4  745   2.040   2.596   9.946  0.7004  0.3998 -0.1373
   11CHL1   H4A  746   1.947   2.537   9.950  2.7508 -2.8987  0.5554
   11CHL1   H4B  747   2.026   2.683  10.013  1.5804  0.9861 -0.7011
   11CHL1    C5  748   2.060   2.639   9.803  0.5697 -0.6308  0.1628
   11CHL1    C6  749   2.057   2.766   9.767 -0.1870 -0.4609  0.6264
   11CHL1    H6  750   2.032   2.839   9.845 -1.2674  1.4182 -1.4443
   11CHL1    C7  751   2.076   2.811   9.625  0.1675  0.2871 -0.6430
   11CHL1   H7A  752   1.985   2.870   9.602 -0.4015 -0.8680 -1.3927
   11CHL1   H7B  753   2.169   2.871   9.614 -0.4405  1.2841 -0.3980
   11CHL1    C8  754   2.076   2.699   9.518  0.0095 -0.3355 -0.2442
   11CHL1    H8  755   1.979   2.648   9.502  0.5688 -1.5915  0.2671
   11CHL1   C14  756   2.127   2.751   9.379  0.0160 -0.1253 -0.2093
   11CHL1   H14  757   2.230   2.790   9.395 -0.2243  0.3432  0.2006
   11CHL1   C15  758   2.067   2.875   9.317 -0.1080  0.0173 -0.0312
   11CHL1  H15A  759   1.957   2.857   9.317  0.2817 -2.5708  0.4064
   11CHL1  H15B  760   2.105   2.963   9.373  0.6650 -0.6358  0.4867
   11CHL1   C16  761   2.115   2.860   9.175  0.4633 -0.8198 -0.5509
   11CHL1  H16A  762   2.031   2.855   9.103  0.1492 -0.7801 -0.1829
   11CHL1  H16B  763   2.173   2.947   9.138 -1.9056  1.0545  0.0552
   11CHL1   C17  764   2.199   2.735   9.169  0.0011 -0.0193  0.3567
   11CHL1   H17  765   2.302   2.764   9.198 -0.1087 -0.4957  1.2579
   11CHL1   C13  766   2.145   2.647   9.277  0.0191 -0.7981  0.7669
   11CHL1   C18  767   2.014   2.576   9.230 -0.1694  0.3002 -0.8527
   11CHL1  H18A  768   1.954   2.547   9.319  3.1157 -0.6274  1.1665
   11CHL1  H18B  769   1.954   2.640   9.162 -1.3068 -0.3207 -0.4275
   11CHL1  H18C  770   2.044   2.487   9.171  2.6594  1.4638 -1.2955
   11CHL1   C12  771   2.242   2.543   9.332 -0.3651 -0.3784  0.6832
   11CHL1  H12A  772   2.268   2.463   9.260  0.8071  1.2995 -0.7849
   11CHL1  H12B  773   2.335   2.594   9.363 -0.6271  0.2956  0.3732
   11CHL1   C11  774   2.188   2.481   9.464 -0.0282 -0.0723 -0.0983
   11CHL1  H11A  775   2.094   2.432   9.430  0.0698 -0.0187 -0.4506
   11CHL1  H11B  776   2.257   2.402   9.501  0.1551  1.1662  2.3366
   11CHL1    C9  777   2.162   2.584   9.576 -0.3785 -1.0231  0.6480
   11CHL1    H9  778   2.262   2.629   9.596 -0.2862 -0.1592 -1.6210
   11CHL1   C10  779   2.103   2.525   9.710 -0.6693 -0.0978 -0.3706
   11CHL1   C19  780   1.984   2.427   9.697  0.1125 -0.1412  0.8187
   11CHL1  H19A  781   1.898   2.483   9.653  0.1128 -0.7350  0.0583
   11CHL1  H19B  782   2.020   2.343   9.635  0.3996  0.0490  0.7260
   11CHL1  H19C  783   1.957   2.383   9.795 -0.9246 -0.1253  0.5481
   11CHL1    C1  784   2.229   2.444   9.769 -0.6037  0.4218  0.0518
   11CHL1   H1A  785   2.262   2.356   9.709 -0.8763  1.6984 -2.0090
   11CHL1   H1B  786   2.321   2.506   9.765 -0.4181  0.0773 -1.8549
   11CHL1    C2  787   2.206   2.400   9.913  0.3809  0.6220  1.2343
   11CHL1   H2A  788   2.300   2.359   9.954  1.0682  1.8502  0.9164
   11CHL1   H2B  789   2.126   2.323   9.910  1.8477 -0.9401 -3.9136
   11CHL1   C20  790   2.206   2.682   9.020  1.0337  0.0166 -0.7859
   11CHL1   H20  791   2.104   2.658   8.981 -0.9941  3.6250  1.9817
   11CHL1   C21  792   2.299   2.556   9.016 -0.0781  0.8050  0.3753
   11CHL1  H21A  793   2.240   2.469   9.052  1.4491 -0.2307  0.4142
   11CHL1  H21B  794   2.389   2.583   9.076  0.2239  2.4013 -0.7571
   11CHL1  H21C  795   2.320   2.538   8.909 -0.3144 -0.6253  0.5685
   11CHL1   C22  796   2.263   2.804   8.929  0.3760  0.2197  0.2605
   11CHL1  H22A  797   2.191   2.888   8.926 -0.7208 -0.7363 -0.9340
   11CHL1  H22B  798   2.360   2.831   8.976  0.5021 -2.7051  1.7823
   11CHL1   C23  799   2.289   2.763   8.777 -0.0774  0.2555 -0.0509
   11CHL1  H23A  800   2.319   2.857   8.727  1.0696 -0.2464 -0.3254
   11CHL1  H23B  801   2.379   2.698   8.775  0.5896  1.1255  1.0087
   11CHL1   C24  802   2.168   2.693   8.707  0.3572 -0.5308 -0.3188
   11CHL1  H24A  803   2.192   2.671   8.601  0.8675  1.5699 -0.6766
   11CHL1  H24B  804   2.148   2.595   8.755  0.2551 -0.6163 -0.5382
   11CHL1   C25  805   2.034   2.779   8.692  0.3267  0.1837 -0.1418
   11CHL1   H25  806   1.992   2.789   8.794 -2.2731  1.2747 -1.2726
   11CHL1   C26  807   2.054   2.921   8.633 -0.2270  0.5226 -0.3496
   11CHL1  H26A  808   2.098   2.988   8.710  1.3914 -0.9124  0.0358
   11CHL1  H26B  809   2.114   2.920   8.539  0.3464  1.9153 -0.0003
   11CHL1  H26C  810   1.957   2.959   8.595 -0.2258 -0.2930 -1.1782
   11CHL1   C27  811   1.923   2.693   8.616 -0.8751  0.0570  0.1607
   11CHL1  H27A  812   1.927   2.594   8.666  0.9251  0.5936  1.1458
   11CHL1  H27B  813   1.828   2.750   8.624 -0.9455  0.1631 -1.3762
   11CHL1  H27C  814   1.953   2.684   8.509 -1.8508 -2.2344  0.0471
   12CHL1    C3  815   4.897   5.438  10.428 -0.3127 -0.0252 -0.2444
   12CHL1    H3  816   4.898   5.549  10.440 -2.0743  0.0829 -0.8863
   12CHL1    O3  817   4.888   5.390  10.563  0.8484  0.1934 -0.1780
   12CHL1   H3'  818   4.902   5.295  10.559  1.9442  0.3480 -0.1607
   12CHL1    C4  819   4.769   5.420  10.360  0.0984 -0.4954  0.4731
   12CHL1   H4A  820   4.743   5.312  10.365  1.6037 -0.9017 -0.1465
   12CHL1   H4B  821   4.688   5.466  10.420  1.1727  0.0191  1.5383
   12CHL1    C5  822   4.778   5.467  10.210 -0.3299  0.4200 -0.8652
   12CHL1    C6  823   4.689   5.554  10.161 -0.2419 -0.0212 -0.2550
   12CHL1    H6  824   4.607   5.588  10.227 -0.5442  1.7761 -1.5275
   12CHL1    C7  825   4.693   5.584  10.015  0.2491  0.4635  0.9863
   12CHL1   H7A  826   4.592   5.574   9.971  0.1985  2.1094  0.7201
   12CHL1   H7B  827   4.727   5.687   9.992 -0.7126  0.8785  1.4141
   12CHL1    C8  828   4.788   5.487   9.929  0.5962 -0.2942  0.7756
   12CHL1    H8  829   4.727   5.395   9.918  1.0602 -0.6017  0.7651
   12CHL1   C14  830   4.804   5.545   9.789 -0.3632 -0.4118 -0.3585
   12CHL1   H14  831   4.862   5.639   9.806 -1.7571  0.5339 -0.7225
   12CHL1   C15  832   4.675   5.580   9.718  0.0633  0.1358 -0.2069
   12CHL1  H15A  833   4.604   5.497   9.736 -1.4583  1.6045  0.7380
   12CHL1  H15B  834   4.644   5.676   9.766 -0.8629 -0.4007  0.2855
   12CHL1   C16  835   4.710   5.577   9.569 -0.2998 -0.2907 -0.2895
   12CHL1  H16A  836   4.633   5.522   9.512  0.3599 -0.5985 -0.8973
   12CHL1  H16B  837   4.699   5.678   9.525  1.1115  1.1456  2.4748
   12CHL1   C17  838   4.856   5.534   9.555  0.4674  0.4037  0.1228
   12CHL1   H17  839   4.921   5.623   9.572 -0.5510  1.0105  0.8874
   12CHL1   C13  840   4.885   5.455   9.694  0.1933 -0.1044  0.4814
   12CHL1   C18  841   4.829   5.305   9.681 -0.3506 -0.5639 -0.1923
   12CHL1  H18A  842   4.899   5.245   9.619  0.9164  0.7385 -0.0638
   12CHL1  H18B  843   4.840   5.257   9.781 -0.2978 -0.4600 -0.1478
   12CHL1  H18C  844   4.725   5.291   9.647  0.1982  0.7937 -2.5275
   12CHL1   C12  845   5.021   5.456   9.751 -0.3497  0.1363 -0.5388
   12CHL1  H12A  846   5.081   5.388   9.686  0.1745 -1.6000  1.7076
   12CHL1  H12B  847   5.061   5.559   9.751  1.8944 -0.7084  0.1982
   12CHL1   C11  848   5.033   5.412   9.901  0.4301 -0.3060 -0.8928
   12CHL1  H11A  849   5.018   5.302   9.900 -0.1510 -0.2259 -0.8539
   12CHL1  H11B  850   5.134   5.428   9.945 -0.2664  1.1181  0.2378
   12CHL1    C9  851   4.924   5.470   9.997 -0.0046 -0.1116  0.7310
   12CHL1    H9  852   4.960   5.574  10.014 -0.1360  0.9031 -4.5270
   12CHL1   C10  853   4.901   5.400  10.139 -0.7016 -0.0995 -0.2976
   12CHL1   C19  854   4.876   5.250  10.129 -0.6104  0.1777 -0.8319
   12CHL1  H19A  855   4.969   5.204  10.088  1.0715  2.8376 -0.1216
   12CHL1  H19B  856   4.867   5.199  10.228 -1.3263  4.0957  1.2227
   12CHL1  H19C  857   4.790   5.219  10.067 -0.4732 -0.7035 -0.5871
   12CHL1    C1  858   5.031   5.427  10.229 -0.3234  0.0381  0.5581
   12CHL1   H1A  859   5.120   5.383  10.181  0.5764 -0.7141  2.8280
   12CHL1   H1B  860   5.052   5.536  10.232 -0.9634  0.2043 -0.6373
   12CHL1    C2  861   5.026   5.380  10.370  0.4404 -0.3363 -0.5134
   12CHL1   H2A  862   5.115   5.420  10.423  0.1797 -0.7966  0.2770
   12CHL1   H2B  863   5.021   5.270  10.383  2.4986 -0.1939  1.7767
   12CHL1   C20  864   4.881   5.476   9.415  0.1227  0.0923 -0.0945
   12CHL1   H20  865   4.828   5.379   9.403 -0.7789  0.5159  0.4685
   12CHL1   C21  866   5.033   5.432   9.407  0.4202 -0.5340  0.7608
   12CHL1  H21A  867   5.097   5.516   9.440  0.2615 -0.1358  0.0574
   12CHL1  H21B  868   5.065   5.396   9.307 -1.1363 -1.0433  0.4286
   12CHL1  H21C  869   5.037   5.347   9.479  0.1425 -0.5662  0.7415
   12CHL1   C22  870   4.826   5.566   9.298 -0.3130  0.0413 -1.0186
   12CHL1  H22A  871   4.715   5.556   9.299 -0.3189  0.1955  1.1166
   12CHL1  H22B  872   4.845   5.675   9.307 -1.7444  0.2111  0.1710
   12CHL1   C23  873   4.857   5.507   9.161  0.1142  0.1146 -0.3226
   12CHL1  H23A  874   4.964   5.511   9.130 -0.3786 -0.4222 -2.1658
   12CHL1  H23B  875   4.815   5.404   9.168 -0.9817  0.6674  1.4565
   12CHL1   C24  876   4.775   5.555   9.044 -0.0230 -0.4024  0.5997
   12CHL1  H24A  877   4.666   5.568   9.062 -0.4202 -1.5332 -0.8734
   12CHL1  H24B  878   4.808   5.660   9.030  0.0195 -0.6148 -0.9817
   12CHL1   C25  879   4.799   5.477   8.915  0.1729  0.4908  0.0436
   12CHL1   H25  880   4.789   5.367   8.931  0.0385  0.2704 -1.4518
   12CHL1   C26  881   4.699   5.536   8.815 -0.9308 -0.4254  0.1613
   12CHL1  H26A  882   4.726   5.531   8.708  0.0348  0.1192  0.3711
   12CHL1  H26B  883   4.596   5.496   8.823 -1.2997  0.2001 -1.2568
   12CHL1  H26C  884   4.683   5.643   8.840 -3.9579 -0.9612  0.7264
   12CHL1   C27  885   4.943   5.502   8.856 -0.1300  0.0860 -0.3871
   12CHL1  H27A  886   4.953   5.611   8.836 -1.5444 -0.1770 -2.7441
   12CHL1  H27B  887   5.014   5.458   8.928 -0.6076 -1.1005 -0.6336
   12CHL1  H27C  888   4.966   5.450   8.760  2.8559  0.4810  0.0542
   13CHL1    C3  889   3.699   1.175   9.890  0.4355 -0.5889 -0.6265
   13CHL1    H3  890   3.679   1.282   9.871  0.5976 -0.6279 -1.0192
   13CHL1    O3  891   3.791   1.158  10.004  0.0110 -0.0447 -0.8990
   13CHL1   H3'  892   3.846   1.235   9.990 -1.3711  0.7573 -2.0809
   13CHL1    C4  893   3.569   1.100   9.926 -0.8595  0.7710  0.3565
   13CHL1   H4A  894   3.600   0.994   9.941  1.4632  1.7381  2.8077
   13CHL1   H4B  895   3.543   1.143  10.024  1.7974  0.9966  1.0028
   13CHL1    C5  896   3.462   1.101   9.823 -0.1804  0.2237 -0.1347
   13CHL1    C6  897   3.335   1.146   9.852 -0.5586 -0.5938 -0.3948
   13CHL1    H6  898   3.319   1.192   9.951  0.0040  1.4055 -1.2133
   13CHL1    C7  899   3.225   1.148   9.755 -0.5318 -0.4809 -0.3194
   13CHL1   H7A  900   3.127   1.112   9.792 -1.2199  0.1894 -1.4615
   13CHL1   H7B  901   3.198   1.252   9.729 -0.5954  0.0541  1.8090
   13CHL1    C8  902   3.262   1.071   9.621 -0.1474  0.0639 -0.7543
   13CHL1    H8  903   3.244   0.962   9.635  0.0867  0.2657  1.2548
   13CHL1   C14  904   3.170   1.122   9.513 -0.2733  0.5256  1.1085
   13CHL1   H14  905   3.201   1.228   9.505 -0.6140  0.6737  1.7799
   13CHL1   C15  906   3.020   1.115   9.532 -1.1324  0.7016  0.5635
   13CHL1  H15A  907   2.975   1.016   9.555  0.7982 -0.3422 -0.0074
   13CHL1  H15B  908   2.981   1.192   9.601 -1.0928  1.2576 -0.0282
   13CHL1   C16  909   2.970   1.140   9.393  0.4029  0.0307  0.6019
   13CHL1  H16A  910   2.880   1.079   9.368  1.1750 -0.5641 -0.7790
   13CHL1  H16B  911   2.932   1.244   9.386  0.6088  0.0054 -0.9580
   13CHL1   C17  912   3.086   1.120   9.293  0.3277  0.6207 -0.2757
   13CHL1   H17  913   3.122   1.221   9.264  1.8976 -0.1461 -1.0829
   13CHL1   C13  914   3.189   1.051   9.381  0.3741  0.1204  0.8182
   13CHL1   C18  915   3.153   0.892   9.389  0.2441 -0.6567 -0.3511
   13CHL1  H18A  916   3.044   0.870   9.381  0.4350 -1.8925  0.3153
   13CHL1  H18B  917   3.200   0.838   9.304 -1.3031 -0.8084 -1.1408
   13CHL1  H18C  918   3.195   0.840   9.478  2.4520  0.6974 -0.5903
   13CHL1   C12  919   3.334   1.065   9.331 -0.1084 -0.1123 -0.3309
   13CHL1  H12A  920   3.363   1.006   9.242  0.4976  1.2197 -1.0335
   13CHL1  H12B  921   3.353   1.171   9.302 -2.6672 -0.1121 -2.1719
   13CHL1   C11  922   3.435   1.025   9.440 -0.2785 -0.2581  0.6012
   13CHL1  H11A  923   3.416   0.917   9.459 -0.2128 -0.3291  0.2625
   13CHL1  H11B  924   3.536   1.044   9.399 -0.9263  1.0141 -0.4612
   13CHL1    C9  925   3.405   1.089   9.579 -0.8881  0.4609  0.1597
   13CHL1    H9  926   3.414   1.200   9.570  1.2771  0.2794 -0.1821
   13CHL1   C10  927   3.514   1.049   9.685 -0.4521 -0.2685 -0.0565
   13CHL1   C19  928   3.528   0.891   9.692 -0.1181 -1.1932  0.0067
   13CHL1  H19A  929   3.588   0.853   9.777  1.9432  0.2685 -0.7618
   13CHL1  H19B  930   3.426   0.846   9.692 -0.0622 -1.3487 -1.3750
   13CHL1  H19C  931   3.572   0.858   9.595  0.5494 -1.2384  0.3218
   13CHL1    C1  932   3.647   1.117   9.654  0.2203  0.3429 -0.2758
   13CHL1   H1A  933   3.686   1.058   9.568 -1.8254  0.0012 -1.0057
   13CHL1   H1B  934   3.641   1.223   9.622 -1.3520  0.0624 -0.9690
   13CHL1    C2  935   3.747   1.106   9.765 -0.6908  0.7412  0.4776
   13CHL1   H2A  936   3.847   1.147   9.739 -0.7631  0.2451 -0.5997
   13CHL1   H2B  937   3.763   0.998   9.787  0.1443  0.4349 -1.5668
   13CHL1   C20  938   3.040   1.056   9.156  0.1615  0.5855 -0.3222
   13CHL1   H20  939   2.977   0.966   9.171 -1.1949  1.9734  2.7668
   13CHL1   C21  940   3.161   1.025   9.057 -1.0665 -0.0219 -0.4504
   13CHL1  H21A  941   3.231   0.953   9.103 -0.8757  0.3297 -0.1860
   13CHL1  H21B  942   3.219   1.119   9.044 -1.0617 -0.2361 -2.1167
   13CHL1  H21C  943   3.135   0.977   8.961  1.4022  0.6219 -1.4780
   13CHL1   C22  944   2.950   1.161   9.079 -0.3746 -0.5170 -0.4689
   13CHL1  H22A  945   2.867   1.194   9.144  1.0274 -3.0358  2.7322
   13CHL1  H22B  946   3.007   1.254   9.059 -0.8690  0.7134  3.5603
   13CHL1   C23  947   2.878   1.105   8.957 -0.9407  0.2605  0.5039
   13CHL1  H23A  948   2.953   1.080   8.879 -1.8051 -0.6943 -0.0420
   13CHL1  H23B  949   2.827   1.012   8.990  1.0395  0.4673  4.4176
   13CHL1   C24  950   2.780   1.197   8.900  0.2469 -0.2648  0.1754
   13CHL1  H24A  951   2.710   1.235   8.978  0.3311  0.1531  0.0492
   13CHL1  H24B  952   2.832   1.290   8.869  0.7881 -0.8405 -0.6587
   13CHL1   C25  953   2.702   1.159   8.775  0.5941 -0.4030 -0.2109
   13CHL1   H25  954   2.634   1.245   8.756 -0.7797 -1.4931 -0.3062
   13CHL1   C26  955   2.778   1.158   8.649 -0.8992 -0.3822 -0.2084
   13CHL1  H26A  956   2.717   1.139   8.558  0.5900  0.5125 -1.4234
   13CHL1  H26B  957   2.819   1.260   8.631  0.8541 -1.3384 -1.7936
   13CHL1  H26C  958   2.872   1.099   8.650  0.2815  1.4816  0.7941
   13CHL1   C27  959   2.618   1.035   8.794 -0.1874  1.0503  0.4738
   13CHL1  H27A  960   2.671   0.944   8.831  0.5765 -0.0089 -3.0340
   13CHL1  H27B  961   2.527   1.064   8.851  0.1056 -0.2285  1.6215
   13CHL1  H27C  962   2.569   1.018   8.696  2.6753 -2.0588 -0.5114
   14CHL1    C3  963   3.915   3.883  10.306 -0.4087 -0.7465  0.1201
   14CHL1    H3  964   4.018   3.849  10.282  0.0564  1.1289 -0.6442
   14CHL1    O3  965   3.897   3.891  10.443 -0.1980 -0.5758  0.0067
   14CHL1   H3'  966   3.809   3.921  10.466 -0.5871 -0.4305 -1.6305
   14CHL1    C4  967   3.889   4.021  10.251  1.1169  0.4196 -0.5230
   14CHL1   H4A  968   3.790   4.063  10.277  0.6432 -0.2023 -1.3014
   14CHL1   H4B  969   3.964   4.097  10.282  0.9502 -0.0518  1.0784
   14CHL1    C5  970   3.887   4.024  10.097 -0.1693 -0.5947  0.1910
   14CHL1    C6  971   3.972   4.099  10.019  0.6012 -0.4298 -0.0842
   14CHL1    H6  972   4.036   4.170  10.074 -0.1491 -0.1378  0.4138
   14CHL1    C7  973   3.981   4.103   9.867  0.2885 -0.4836 -0.0184
   14CHL1   H7A  974   3.983   4.209   9.834 -0.8922 -0.2109  0.7725
   14CHL1   H7B  975   4.075   4.056   9.831  0.0789 -0.7104 -0.2673
   14CHL1    C8  976   3.860   4.032   9.807  0.5534 -0.2634  0.3043
   14CHL1    H8  977   3.778   4.107   9.818  2.3908  2.3247 -2.7528
   14CHL1   C14  978   3.885   3.997   9.665 -0.2486  0.2539  0.3024
   14CHL1   H14  979   3.972   3.928   9.670 -0.3581 -0.0372 -1.6479
   14CHL1   C15  980   3.938   4.105   9.573 -0.2025 -0.1835  0.1131
   14CHL1  H15A  981   3.866   4.186   9.599 -0.3679  0.0059 -0.9302
   14CHL1  H15B  982   4.047   4.125   9.587 -0.4940  2.8242 -1.4208
   14CHL1   C16  983   3.912   4.049   9.434  0.1352 -0.3119  0.2445
   14CHL1  H16A  984   3.853   4.119   9.371  2.5383  1.8654  0.3237
   14CHL1  H16B  985   4.012   4.032   9.390  0.5824  0.5166  0.9184
   14CHL1   C17  986   3.832   3.908   9.453 -0.2017  0.0023 -0.0495
   14CHL1   H17  987   3.912   3.831   9.451 -0.8058 -0.6324  0.2470
   14CHL1   C13  988   3.774   3.917   9.594  0.4294 -0.1561 -0.2960
   14CHL1   C18  989   3.645   4.010   9.588 -0.1893 -0.1207  0.4024
   14CHL1  H18A  990   3.665   4.112   9.548  1.6930 -0.3572  0.6937
   14CHL1  H18B  991   3.557   3.988   9.525  0.2462  2.2477 -1.1220
   14CHL1  H18C  992   3.610   4.039   9.689  2.1953  1.1746  0.8991
   14CHL1   C12  993   3.757   3.781   9.668 -0.0887  0.4235 -0.6912
   14CHL1  H12A  994   3.670   3.727   9.627  0.1123 -0.4679  0.0385
   14CHL1  H12B  995   3.850   3.721   9.665 -0.0896  0.3760  0.0627
   14CHL1   C11  996   3.723   3.810   9.812 -0.1069 -0.1175 -0.1856
   14CHL1  H11A  997   3.624   3.860   9.816  1.6484  3.7064 -1.7080
   14CHL1  H11B  998   3.718   3.714   9.868  0.8746  0.0180  0.1535
   14CHL1    C9  999   3.830   3.902   9.879  1.1730  0.3876  0.1969
   14CHL1    H9 1000   3.930   3.852   9.885  0.4479 -0.9639  1.3408
   14CHL1   C10 1001   3.797   3.919  10.036  0.2647  0.2703 -0.3054
   14CHL1   C19 1002   3.646   3.964  10.050 -0.2324  0.1022 -0.0576
   14CHL1  H19A 1003   3.632   4.059   9.995  1.0573  0.7438  0.6819
   14CHL1  H19B 1004   3.577   3.881  10.022 -1.7735  0.9516  1.1645
   14CHL1  H19C 1005   3.616   3.988  10.155  0.2724 -0.4163  0.2114
   14CHL1    C1 1006   3.821   3.780  10.109  0.9520  0.0365  0.2438
   14CHL1   H1A 1007   3.744   3.708  10.073  1.5023 -0.0732 -0.7598
   14CHL1   H1B 1008   3.917   3.739  10.071  0.0722 -0.8250 -1.0851
   14CHL1    C2 1009   3.813   3.787  10.259 -0.1880 -0.0400 -0.6630
   14CHL1   H2A 1010   3.833   3.689  10.308  1.2440 -0.6802 -2.5046
   14CHL1   H2B 1011   3.712   3.819  10.294  0.5734  0.4544  1.1714
   14CHL1   C20 1012   3.743   3.870   9.332 -0.2426  0.4146  0.1126
   14CHL1   H20 1013   3.643   3.919   9.335 -1.0556 -1.2841  3.2591
   14CHL1   C21 1014   3.739   3.718   9.333  0.1025  0.6070  0.1752
   14CHL1  H21A 1015   3.700   3.669   9.242 -2.6463  2.5231  0.2728
   14CHL1  H21B 1016   3.688   3.689   9.427  0.7427  0.3558  0.4504
   14CHL1  H21C 1017   3.835   3.661   9.332 -0.8317 -1.0298  1.5898
   14CHL1   C22 1018   3.793   3.906   9.190  0.2211 -0.6004  0.5858
   14CHL1  H22A 1019   3.834   4.010   9.190 -1.9186  0.3067  3.5618
   14CHL1  H22B 1020   3.880   3.839   9.174  1.4640  0.5154  2.5389
   14CHL1   C23 1021   3.682   3.904   9.085 -0.4416  0.6936  0.5717
   14CHL1  H23A 1022   3.650   3.800   9.062 -0.4602  0.9776 -0.7532
   14CHL1  H23B 1023   3.594   3.953   9.131 -2.6223  0.0520 -2.7211
   14CHL1   C24 1024   3.731   3.962   8.955 -0.2497 -0.0690  0.0018
   14CHL1  H24A 1025   3.781   4.060   8.967 -0.4312 -0.1478  1.5395
   14CHL1  H24B 1026   3.800   3.888   8.909  0.3652  1.7619 -2.0797
   14CHL1   C25 1027   3.624   3.968   8.840  0.5429  0.3072 -0.0876
   14CHL1   H25 1028   3.542   3.905   8.881  3.3572 -2.0842  2.0936
   14CHL1   C26 1029   3.577   4.112   8.806  0.0601  0.8189 -0.4027
   14CHL1  H26A 1030   3.528   4.153   8.897 -1.0139 -1.3458  0.0340
   14CHL1  H26B 1031   3.662   4.175   8.772  0.4050  1.1160  1.0036
   14CHL1  H26C 1032   3.502   4.105   8.724 -0.5114 -1.1119  0.2541
   14CHL1   C27 1033   3.660   3.911   8.707 -0.3281  0.8419  0.4788
   14CHL1  H27A 1034   3.703   3.809   8.706 -1.7639  0.2148 -2.8777
   14CHL1  H27B 1035   3.581   3.906   8.630  1.1417 -2.6668 -0.8992
   14CHL1  H27C 1036   3.740   3.974   8.662  1.2718  0.0779  2.1752
   15CHL1    C3 1037   4.226   2.889  10.064  0.5175 -0.6713  0.0607
   15CHL1    H3 1038   4.122   2.886  10.024  0.8988  1.1311 -1.1228
   15CHL1    O3 1039   4.219   2.879  10.206  0.3788 -0.6287  0.8405
   15CHL1   H3' 1040   4.167   2.953  10.237 -0.9555 -1.9994  1.9347
   15CHL1    C4 1041   4.299   2.774  10.009 -0.4097  0.7365  0.0168
   15CHL1   H4A 1042   4.396   2.768  10.063 -1.4434  3.6893  2.3659
   15CHL1   H4B 1043   4.232   2.689  10.036 -0.4756  0.2711 -1.5744
   15CHL1    C5 1044   4.319   2.788   9.862 -0.3425  0.7682  0.0713
   15CHL1    C6 1045   4.281   2.682   9.779 -0.0560  0.4817  0.2188
   15CHL1    H6 1046   4.224   2.596   9.817 -0.0471 -1.0746 -3.1171
   15CHL1    C7 1047   4.310   2.681   9.631  0.4471  0.1435  0.3472
   15CHL1   H7A 1048   4.363   2.588   9.602  0.0264 -0.6700  2.1420
   15CHL1   H7B 1049   4.209   2.685   9.585 -0.3544  1.6857  2.1727
   15CHL1    C8 1050   4.400   2.795   9.583  0.2875 -0.1540  0.5651
   15CHL1    H8 1051   4.501   2.762   9.617 -0.1109 -1.6080  0.3335
   15CHL1   C14 1052   4.376   2.803   9.430  0.7004  0.2765 -0.2643
   15CHL1   H14 1053   4.268   2.825   9.418  0.8247  1.5693  0.7476
   15CHL1   C15 1054   4.406   2.683   9.350 -0.2919 -0.0793 -0.1529
   15CHL1  H15A 1055   4.504   2.650   9.391 -0.5265  0.4806  0.8609
   15CHL1  H15B 1056   4.327   2.605   9.362 -1.2358  0.6940 -1.2220
   15CHL1   C16 1057   4.422   2.739   9.204  0.0385  0.1242  0.8721
   15CHL1  H16A 1058   4.518   2.709   9.157  2.1500  4.4787  2.1055
   15CHL1  H16B 1059   4.338   2.690   9.151 -0.6124  1.1539  0.9280
   15CHL1   C17 1060   4.412   2.891   9.220 -0.3391  0.1864  0.7862
   15CHL1   H17 1061   4.307   2.923   9.206 -0.4736 -0.7058 -0.2790
   15CHL1   C13 1062   4.456   2.919   9.363  0.4100  0.2147 -0.5084
   15CHL1   C18 1063   4.615   2.902   9.383 -0.2920 -0.4298 -0.0705
   15CHL1  H18A 1064   4.646   2.830   9.304  0.6814  0.2766 -0.3526
   15CHL1  H18B 1065   4.662   3.002   9.371 -1.1424  0.3106  2.5696
   15CHL1  H18C 1066   4.638   2.869   9.486  0.5141 -2.0367 -0.7571
   15CHL1   C12 1067   4.397   3.043   9.429  0.6373  0.1380 -0.6455
   15CHL1  H12A 1068   4.440   3.135   9.385  0.7606  0.7174  0.6612
   15CHL1  H12B 1069   4.287   3.037   9.411  0.6990 -1.0252 -0.6446
   15CHL1   C11 1070   4.431   3.045   9.581 -0.9118  0.5411  0.5759
   15CHL1  H11A 1071   4.542   3.053   9.586 -0.8032  1.2883 -1.9149
   15CHL1  H11B 1072   4.387   3.139   9.621 -1.3982  0.1683  0.9102
   15CHL1    C9 1073   4.367   2.927   9.653  0.1879  0.2777  0.2998
   15CHL1    H9 1074   4.257   2.935   9.636 -0.0580 -0.5981  1.4093
   15CHL1   C10 1075   4.379   2.925   9.811  0.0947 -0.0344  0.1672
   15CHL1   C19 1076   4.529   2.922   9.849 -0.7688 -0.4518 -0.3352
   15CHL1  H19A 1077   4.546   2.939   9.958 -0.4102 -0.0333 -0.4571
   15CHL1  H19B 1078   4.585   2.829   9.825 -2.4417 -2.1814  2.1833
   15CHL1  H19C 1079   4.591   2.993   9.790 -2.0406  0.8078 -0.1758
   15CHL1    C1 1080   4.311   3.045   9.871  0.1286 -0.2510 -1.1474
   15CHL1   H1A 1081   4.369   3.138   9.852 -0.5507  0.2524 -0.8009
   15CHL1   H1B 1082   4.214   3.055   9.818 -1.1404  1.7544  1.4472
   15CHL1    C2 1083   4.276   3.030  10.026  0.0213 -0.6366  0.2974
   15CHL1   H2A 1084   4.207   3.111  10.060 -0.4293 -0.9133  0.0495
   15CHL1   H2B 1085   4.374   3.045  10.074 -0.2909  0.5033  0.5854
   15CHL1   C20 1086   4.489   2.968   9.112 -1.0387  0.0903  0.4799
   15CHL1   H20 1087   4.598   2.945   9.107 -1.4589 -2.6220  2.7167
   15CHL1   C21 1088   4.475   3.125   9.123  0.5786 -0.4669 -0.0483
   15CHL1  H21A 1089   4.486   3.172   9.023 -1.6739 -1.2084 -0.6823
   15CHL1  H21B 1090   4.565   3.164   9.175 -0.7816  2.1040  0.4525
   15CHL1  H21C 1091   4.378   3.166   9.160  0.3654 -0.7387 -0.3071
   15CHL1   C22 1092   4.445   2.920   8.964  0.0784  0.2336  0.0810
   15CHL1  H22A 1093   4.462   2.810   8.975  0.0692  0.2652  0.4221
   15CHL1  H22B 1094   4.338   2.933   8.934 -0.2268 -0.1478  0.9818
   15CHL1   C23 1095   4.527   2.985   8.851 -0.4284  0.5967 -0.3572
   15CHL1  H23A 1096   4.503   3.093   8.845 -0.6856  0.6769  1.6739
   15CHL1  H23B 1097   4.636   2.971   8.864 -0.5570  0.7780  1.0116
   15CHL1   C24 1098   4.492   2.910   8.716 -0.5472  0.5176  0.2763
   15CHL1  H24A 1099   4.492   2.799   8.725  0.1500  0.3547 -1.6009
   15CHL1  H24B 1100   4.384   2.929   8.697 -0.5347  0.5958  0.2862
   15CHL1   C25 1101   4.577   2.944   8.589 -0.0332  0.1687 -0.1005
   15CHL1   H25 1102   4.683   2.946   8.622  0.4611 -0.5060 -1.5862
   15CHL1   C26 1103   4.556   2.848   8.470 -0.6763  0.2819  0.0463
   15CHL1  H26A 1104   4.589   2.744   8.490  1.2185  0.7047 -0.8197
   15CHL1  H26B 1105   4.451   2.846   8.433 -0.8053  0.0971  0.4178
   15CHL1  H26C 1106   4.609   2.886   8.380 -0.9976  2.4943  0.7502
   15CHL1   C27 1107   4.547   3.089   8.546  0.3073 -0.1264  0.1707
   15CHL1  H27A 1108   4.625   3.123   8.475  0.5707 -0.7623  0.1450
   15CHL1  H27B 1109   4.447   3.097   8.500  0.1472  2.0188  0.8421
   15CHL1  H27C 1110   4.545   3.152   8.637  0.9591  1.7948 -1.1271
   16CHL1    C3 1111   4.802   3.415  10.260  0.1300  0.0714  0.0471
   16CHL1    H3 1112   4.911   3.415  10.243 -0.0260  1.9381 -1.0657
   16CHL1    O3 1113   4.761   3.413  10.394 -0.7588  0.1688  0.0796
   16CHL1   H3' 1114   4.671   3.446  10.393 -0.6870  0.5199  2.3902
   16CHL1    C4 1115   4.756   3.549  10.196  0.2972  0.5327 -0.1283
   16CHL1   H4A 1116   4.649   3.568  10.217  0.0809 -0.3632 -0.3826
   16CHL1   H4B 1117   4.801   3.633  10.253 -1.8103  1.4777  0.1964
   16CHL1    C5 1118   4.779   3.551  10.047 -0.3184 -0.5150  0.3063
   16CHL1    C6 1119   4.859   3.645   9.999 -0.9030 -0.2179 -0.1518
   16CHL1    H6 1120   4.915   3.713  10.065  0.6410 -0.8001 -0.8465
   16CHL1    C7 1121   4.876   3.663   9.850 -0.1628 -0.0852 -0.4713
   16CHL1   H7A 1122   4.867   3.771   9.824  1.3377 -0.1208 -1.1904
   16CHL1   H7B 1123   4.973   3.618   9.819  0.1159  0.3029 -0.1638
   16CHL1    C8 1124   4.776   3.583   9.756 -0.2486 -0.2331 -0.1281
   16CHL1    H8 1125   4.678   3.634   9.762 -0.3734 -0.4912 -0.0166
   16CHL1   C14 1126   4.823   3.567   9.605  0.0902  0.2219  0.3065
   16CHL1   H14 1127   4.924   3.523   9.621  0.0726  0.4947  1.1869
   16CHL1   C15 1128   4.848   3.691   9.527  0.4747 -1.0177  0.4788
   16CHL1  H15A 1129   4.766   3.764   9.545  1.7988  0.4326  0.7436
   16CHL1  H15B 1130   4.944   3.740   9.551 -0.3376  0.8927 -0.0265
   16CHL1   C16 1131   4.839   3.647   9.374 -0.7035 -0.2512 -0.3541
   16CHL1  H16A 1132   4.771   3.712   9.316  0.9465  1.4096 -0.4908
   16CHL1  H16B 1133   4.938   3.673   9.329 -0.8511 -3.2618 -2.5913
   16CHL1   C17 1134   4.818   3.492   9.386 -0.2106 -0.1150 -0.5374
   16CHL1   H17 1135   4.916   3.442   9.403 -0.0076  0.0295 -1.2883
   16CHL1   C13 1136   4.744   3.480   9.521 -0.4388 -0.1341 -0.5409
   16CHL1   C18 1137   4.599   3.524   9.500  0.1739 -0.2296 -0.0218
   16CHL1  H18A 1138   4.554   3.551   9.598  1.0622 -2.5857  1.0817
   16CHL1  H18B 1139   4.602   3.614   9.435  3.3579  0.6111  1.1813
   16CHL1  H18C 1140   4.537   3.451   9.444  0.8187 -0.3793 -0.5403
   16CHL1   C12 1141   4.749   3.337   9.588 -0.4312  0.3806 -0.1614
   16CHL1  H12A 1142   4.701   3.259   9.526  0.2808 -0.5940  0.4973
   16CHL1  H12B 1143   4.857   3.317   9.606 -0.4159  1.3170  0.8984
   16CHL1   C11 1144   4.676   3.345   9.725 -0.4491 -0.4223 -0.7537
   16CHL1  H11A 1145   4.570   3.361   9.699 -1.0315 -3.8061 -0.7732
   16CHL1  H11B 1146   4.678   3.241   9.764 -1.2141 -0.2075 -0.1310
   16CHL1    C9 1147   4.759   3.441   9.818  0.1822 -0.4850 -0.1828
   16CHL1    H9 1148   4.859   3.394   9.817  0.3578 -0.1112 -1.3111
   16CHL1   C10 1149   4.713   3.437   9.964 -0.1147 -0.4425  0.2906
   16CHL1   C19 1150   4.556   3.452   9.974  0.5092  1.1955  0.2644
   16CHL1  H19A 1151   4.522   3.546   9.925 -2.9355  0.9164  1.9589
   16CHL1  H19B 1152   4.496   3.371   9.927 -0.5811  1.2141  1.5852
   16CHL1  H19C 1153   4.524   3.464  10.079 -0.6797 -1.6168  0.2772
   16CHL1    C1 1154   4.753   3.303  10.018 -0.0874  0.4694 -0.1141
   16CHL1   H1A 1155   4.705   3.218   9.965 -2.0190  0.4655  1.5642
   16CHL1   H1B 1156   4.862   3.291   9.997 -0.3268  1.9124 -2.2629
   16CHL1    C2 1157   4.745   3.291  10.180  0.3301 -0.0321 -0.3928
   16CHL1   H2A 1158   4.792   3.194  10.205  0.4106 -0.2708 -1.4430
   16CHL1   H2B 1159   4.637   3.288  10.207  0.2707  4.4094  0.1234
   16CHL1   C20 1160   4.755   3.418   9.266 -0.0112 -0.2014  0.5996
   16CHL1   H20 1161   4.644   3.411   9.277 -0.3858  2.0498 -1.2288
   16CHL1   C21 1162   4.823   3.277   9.255  0.0635  0.3493  0.0073
   16CHL1  H21A 1163   4.775   3.226   9.169 -0.7733  1.4147 -0.1737
   16CHL1  H21B 1164   4.798   3.222   9.348 -0.2022  0.2995 -0.0933
   16CHL1  H21C 1165   4.931   3.286   9.232 -0.0630 -0.8249 -1.0815
   16CHL1   C22 1166   4.767   3.489   9.124  0.6775 -0.0591  0.4567
   16CHL1  H22A 1167   4.742   3.596   9.142  1.6966  0.1909  0.4168
   16CHL1  H22B 1168   4.874   3.476   9.098  1.5195 -0.1253  3.7111
   16CHL1   C23 1169   4.658   3.428   9.022  0.1101  0.2167  0.0649
   16CHL1  H23A 1170   4.663   3.318   9.016  0.0949  0.2434 -0.4100
   16CHL1  H23B 1171   4.556   3.459   9.052  0.6738  1.2642  0.9814
   16CHL1   C24 1172   4.662   3.477   8.878  0.4945  0.0366  0.5277
   16CHL1  H24A 1173   4.654   3.587   8.865 -0.1724 -0.3460 -2.9341
   16CHL1  H24B 1174   4.759   3.451   8.831 -1.0520 -1.4681 -1.9997
   16CHL1   C25 1175   4.547   3.416   8.794  0.2734 -0.4185  0.4121
   16CHL1   H25 1176   4.543   3.306   8.811  0.2354 -0.6025 -0.7520
   16CHL1   C26 1177   4.418   3.489   8.829 -0.7670 -0.3692  0.9264
   16CHL1  H26A 1178   4.423   3.588   8.778  3.3873 -0.7621  0.3739
   16CHL1  H26B 1179   4.337   3.441   8.771  0.2574 -1.9404  0.7563
   16CHL1  H26C 1180   4.387   3.487   8.935 -2.9167  0.6473  0.3352
   16CHL1   C27 1181   4.577   3.439   8.644  0.1555 -0.7503  0.3312
   16CHL1  H27A 1182   4.600   3.548   8.640 -0.4601 -0.6501 -0.6766
   16CHL1  H27B 1183   4.662   3.376   8.610  2.0139  0.9460  1.7153
   16CHL1  H27C 1184   4.483   3.415   8.591  1.1413  0.2705 -1.9925
   17CHL1    C3 1185   0.164   0.208  10.345  0.7351  0.3741 -0.0096
   17CHL1    H3 1186   0.258   0.256  10.310  0.6136 -0.7783 -1.9823
   17CHL1    O3 1187   0.162   0.185  10.488  0.5749 -0.2204 -0.3367
   17CHL1   H3' 1188   0.070   0.175  10.514  0.7717  0.8649  0.8173
   17CHL1    C4 1189   0.054   0.312  10.298 -0.8834 -0.2821 -0.9219
   17CHL1   H4A 1190  -0.048   0.274  10.322 -1.4146  0.5167 -1.9010
   17CHL1   H4B 1191   0.073   0.403  10.359  1.9777 -0.8805 -0.8172
   17CHL1    C5 1192   0.057   0.342  10.152 -0.6667  0.3874  0.1432
   17CHL1    C6 1193   0.067   0.466  10.099  0.3428 -0.1711  0.1179
   17CHL1    H6 1194   0.081   0.554  10.164 -0.7176  1.2543 -1.5654
   17CHL1    C7 1195   0.074   0.487   9.952 -0.4137  0.1169 -0.1519
   17CHL1   H7A 1196   0.004   0.571   9.932  0.4236  0.3446 -2.1483
   17CHL1   H7B 1197   0.178   0.514   9.924 -0.6695 -1.1720 -2.5259
   17CHL1    C8 1198   0.026   0.366   9.875  0.4813  0.3421 -0.4400
   17CHL1    H8 1199  -0.081   0.350   9.896  0.4296  0.1319 -0.8473
   17CHL1   C14 1200   0.046   0.380   9.723 -0.4444  0.1028  0.7940
   17CHL1   H14 1201   0.155   0.393   9.703 -0.6129 -0.7505 -0.7826
   17CHL1   C15 1202  -0.018   0.507   9.658  0.7159 -0.2260 -0.7538
   17CHL1  H15A 1203  -0.112   0.526   9.714  1.3051 -2.6485  1.1609
   17CHL1  H15B 1204   0.043   0.598   9.676  0.8161 -0.4560  0.1239
   17CHL1   C16 1205  -0.047   0.457   9.514  0.1515 -0.1594 -0.5548
   17CHL1  H16A 1206  -0.155   0.436   9.502  0.6266 -3.8789  1.1993
   17CHL1  H16B 1207   0.003   0.525   9.442  1.1069 -0.3769 -0.1081
   17CHL1   C17 1208   0.011   0.311   9.496  0.4784  0.2863 -0.0280
   17CHL1   H17 1209   0.119   0.326   9.478  0.0369  3.5049 -0.3020
   17CHL1   C13 1210   0.008   0.256   9.646 -0.0307  0.3168 -0.0485
   17CHL1   C18 1211  -0.138   0.217   9.680 -0.3600 -0.0717 -0.3937
   17CHL1  H18A 1212  -0.211   0.290   9.639  0.7939  1.8818  0.9572
   17CHL1  H18B 1213  -0.154   0.120   9.629 -0.5595 -0.0384 -0.3931
   17CHL1  H18C 1214  -0.169   0.210   9.786  0.7306 -1.1348 -0.1387
   17CHL1   C12 1215   0.109   0.148   9.681 -0.1383 -0.1683 -0.6116
   17CHL1  H12A 1216   0.092   0.045   9.641 -2.3722 -0.2555  0.4723
   17CHL1  H12B 1217   0.209   0.193   9.659 -1.0122  1.9325 -0.3500
   17CHL1   C11 1218   0.100   0.114   9.830 -0.2219 -0.2112 -0.1519
   17CHL1  H11A 1219   0.003   0.061   9.845  0.4687 -2.0656 -1.9278
   17CHL1  H11B 1220   0.180   0.044   9.866  0.4499  0.3213 -0.6055
   17CHL1    C9 1221   0.100   0.237   9.927  0.8050  2.0352  0.2467
   17CHL1    H9 1222   0.209   0.260   9.935  1.2819 -0.7496  2.7883
   17CHL1   C10 1223   0.055   0.210  10.073 -0.1818  0.1577 -0.2272
   17CHL1   C19 1224  -0.090   0.165  10.084  0.7226 -0.5305 -0.0757
   17CHL1  H19A 1225  -0.111   0.139  10.190  0.1170 -0.3423 -0.1456
   17CHL1  H19B 1226  -0.164   0.240  10.047 -0.6336 -0.9618  1.6745
   17CHL1  H19C 1227  -0.110   0.070  10.029  0.7947  0.1275 -1.2340
   17CHL1    C1 1228   0.150   0.101  10.125  0.0930  0.1326 -0.6719
   17CHL1   H1A 1229   0.105   0.014  10.071 -1.8160  0.3052  0.5939
   17CHL1   H1B 1230   0.252   0.124  10.088  0.5836  1.1543  1.2591
   17CHL1    C2 1231   0.153   0.073  10.275 -0.4503  0.3453  0.3502
   17CHL1   H2A 1232   0.240   0.012  10.309 -0.5744 -0.1049 -0.1348
   17CHL1   H2B 1233   0.055   0.035  10.310  0.0916 -0.6751  0.7943
   17CHL1   C20 1234  -0.052   0.230   9.380  0.3443 -0.0160  0.3168
   17CHL1   H20 1235  -0.160   0.214   9.398  1.0326 -2.0546  2.9126
   17CHL1   C21 1236   0.016   0.091   9.380 -0.9268  0.4880  0.7460
   17CHL1  H21A 1237   0.003   0.031   9.473 -0.0761  1.0462  1.2357
   17CHL1  H21B 1238   0.127   0.097   9.373 -0.9122  0.9317  1.3667
   17CHL1  H21C 1239  -0.016   0.024   9.296  1.6579 -1.8688  1.5456
   17CHL1   C22 1240  -0.023   0.309   9.239  0.1267  1.0652 -0.8748
   17CHL1  H22A 1241  -0.063   0.412   9.250  1.3647  1.5118 -0.4610
   17CHL1  H22B 1242   0.086   0.318   9.218  0.9593  0.9327  3.0342
   17CHL1   C23 1243  -0.074   0.244   9.106  0.2406  0.2322 -0.2454
   17CHL1  H23A 1244  -0.035   0.140   9.097 -0.9380 -0.0029 -3.0124
   17CHL1  H23B 1245  -0.184   0.235   9.108  0.2028  0.6973 -0.2048
   17CHL1   C24 1246  -0.032   0.321   8.981 -0.6270  0.2979  0.4208
   17CHL1  H24A 1247  -0.047   0.427   9.010 -0.3261  0.9188 -1.6418
   17CHL1  H24B 1248   0.074   0.290   8.973 -0.9645 -0.9122  0.5405
   17CHL1   C25 1249  -0.113   0.284   8.856  0.2820  0.0013 -0.6556
   17CHL1   H25 1250  -0.120   0.173   8.858  1.2632 -0.0462  0.7705
   17CHL1   C26 1251  -0.251   0.347   8.852 -0.1578 -0.3588  0.4538
   17CHL1  H26A 1252  -0.325   0.323   8.931 -0.4821 -0.1856  0.2044
   17CHL1  H26B 1253  -0.244   0.458   8.856  2.4664 -0.5149  1.0513
   17CHL1  H26C 1254  -0.291   0.330   8.750  0.2672 -2.2062  0.5824
   17CHL1   C27 1255  -0.028   0.323   8.728  0.5403  1.2558  0.0345
   17CHL1  H27A 1256  -0.064   0.262   8.642  0.9200  0.3769  0.4811
   17CHL1  H27B 1257  -0.032   0.430   8.701 -1.4286  1.8240  2.4080
   17CHL1  H27C 1258   0.074   0.283   8.746  0.1863  0.2914 -0.0611
   18CHL1    C3 1259   6.204   5.253  10.050  0.0358  0.1565 -0.0162
   18CHL1    H3 1260   6.307   5.234  10.014 -1.2697 -0.3625 -3.7098
   18CHL1    O3 1261   6.190   5.239  10.185 -0.0472  0.6901 -0.1731
   18CHL1   H3' 1262   6.262   5.185  10.217 -0.2722  1.9718  2.6766
   18CHL1    C4 1263   6.147   5.387   9.997 -0.0623 -0.2406  0.5455
   18CHL1   H4A 1264   6.041   5.401  10.029 -0.5339 -0.4803 -0.8877
   18CHL1   H4B 1265   6.195   5.477  10.042 -0.5454  0.9651 -1.2932
   18CHL1    C5 1266   6.168   5.401   9.849  0.1183 -0.5783 -0.7044
   18CHL1    C6 1267   6.249   5.488   9.784  0.3057  0.3246 -0.3260
   18CHL1    H6 1268   6.307   5.552   9.852  0.7116  0.3008 -0.6517
   18CHL1    C7 1269   6.256   5.511   9.638 -0.7190  0.1075  0.4469
   18CHL1   H7A 1270   6.252   5.621   9.625 -1.3689  0.0534  0.2089
   18CHL1   H7B 1271   6.359   5.480   9.608 -1.2065  0.1221 -1.2575
   18CHL1    C8 1272   6.145   5.428   9.563 -0.3169  0.6060  0.2040
   18CHL1    H8 1273   6.055   5.487   9.588 -0.8338 -0.5577  1.1602
   18CHL1   C14 1274   6.186   5.420   9.423 -0.3333  0.7235  0.5991
   18CHL1   H14 1275   6.288   5.375   9.420 -1.0319 -0.9506  1.3438
   18CHL1   C15 1276   6.210   5.551   9.343 -0.4270  0.4994  0.3272
   18CHL1  H15A 1277   6.122   5.616   9.364 -1.3340 -0.5542 -0.1697
   18CHL1  H15B 1278   6.302   5.606   9.373  0.6170 -1.7753  1.3864
   18CHL1   C16 1279   6.202   5.505   9.194 -0.9175 -0.2287  0.2174
   18CHL1  H16A 1280   6.109   5.543   9.147  0.0141 -1.1444 -2.4456
   18CHL1  H16B 1281   6.286   5.542   9.131  0.0255  2.7938  3.0810
   18CHL1   C17 1282   6.166   5.356   9.196  0.2487 -0.4888 -0.1744
   18CHL1   H17 1283   6.262   5.304   9.211  0.4792 -0.4807 -1.6045
   18CHL1   C13 1284   6.093   5.330   9.333  0.8081 -0.5880  0.7914
   18CHL1   C18 1285   5.949   5.400   9.323 -0.0596 -0.2090 -0.2883
   18CHL1  H18A 1286   5.900   5.360   9.232  0.8903  0.3782 -1.0684
   18CHL1  H18B 1287   5.883   5.376   9.409 -0.6880  1.3267 -0.3145
   18CHL1  H18C 1288   5.951   5.507   9.293  0.1190 -0.0132  0.4163
   18CHL1   C12 1289   6.107   5.188   9.390 -0.8987  0.0269  0.4805
   18CHL1  H12A 1290   6.049   5.111   9.333 -1.4597  0.5996  0.2652
   18CHL1  H12B 1291   6.214   5.164   9.374 -0.6227  1.1853  0.5275
   18CHL1   C11 1292   6.061   5.187   9.533  0.1290  0.1793 -0.7811
   18CHL1  H11A 1293   5.952   5.208   9.534  0.4928  2.1525  0.7582
   18CHL1  H11B 1294   6.079   5.082   9.566  0.6298  0.9227  1.3929
   18CHL1    C9 1295   6.142   5.285   9.625 -0.0101 -0.6989 -0.3757
   18CHL1    H9 1296   6.249   5.254   9.621  0.1952  0.0871 -1.1295
   18CHL1   C10 1297   6.093   5.294   9.774 -0.1714  0.1334 -0.3061
   18CHL1   C19 1298   5.941   5.327   9.778  0.5866  0.1179 -0.2513
   18CHL1  H19A 1299   5.889   5.235   9.747 -0.1224 -0.3064  2.1089
   18CHL1  H19B 1300   5.889   5.356   9.872 -0.1599 -2.1007  0.0389
   18CHL1  H19C 1301   5.917   5.401   9.698  0.1189  0.4317  0.1771
   18CHL1    C1 1302   6.123   5.148   9.835 -0.1786 -0.8868 -0.2664
   18CHL1   H1A 1303   6.055   5.068   9.796  0.3734 -1.7823  0.5781
   18CHL1   H1B 1304   6.228   5.125   9.806 -0.5097 -0.6517 -1.7247
   18CHL1    C2 1305   6.121   5.145   9.985  0.4709 -0.2898  0.1466
   18CHL1   H2A 1306   6.159   5.043  10.008  0.5884 -0.1732  0.4765
   18CHL1   H2B 1307   6.017   5.156  10.022  0.4708  0.1118  0.0231
   18CHL1   C20 1308   6.096   5.309   9.070 -0.1604  0.0898 -0.4256
   18CHL1   H20 1309   6.002   5.362   9.047  0.0099  1.0621  1.0762
   18CHL1   C21 1310   6.054   5.160   9.084  0.3938 -0.0258  0.4437
   18CHL1  H21A 1311   6.142   5.094   9.103  1.8303  1.3526 -1.1865
   18CHL1  H21B 1312   6.015   5.134   8.983  0.2496  0.9790  0.2370
   18CHL1  H21C 1313   5.972   5.147   9.157  1.4450 -0.5790  1.5315
   18CHL1   C22 1314   6.188   5.332   8.946 -0.2448  0.0295  0.1350
   18CHL1  H22A 1315   6.214   5.438   8.924 -4.6625  2.0953  4.1429
   18CHL1  H22B 1316   6.283   5.278   8.968 -1.1056 -1.4384  0.2832
   18CHL1   C23 1317   6.135   5.308   8.804 -0.1555 -0.4100 -0.8936
   18CHL1  H23A 1318   6.118   5.198   8.796 -2.0823 -0.3543  1.7426
   18CHL1  H23B 1319   6.038   5.360   8.785 -1.0769 -2.1676 -1.0977
   18CHL1   C24 1320   6.238   5.354   8.690  0.3511 -0.1216 -1.2502
   18CHL1  H24A 1321   6.278   5.455   8.714  1.5540 -0.6488 -1.0095
   18CHL1  H24B 1322   6.327   5.288   8.680  0.2519 -0.6308  0.9526
   18CHL1   C25 1323   6.156   5.368   8.558 -0.0788 -0.2268 -0.0118
   18CHL1   H25 1324   6.084   5.449   8.580  2.9465  2.5995 -0.1045
   18CHL1   C26 1325   6.241   5.422   8.447  0.1894  0.0711 -0.7801
   18CHL1  H26A 1326   6.180   5.427   8.354 -0.7125 -2.0411 -0.3278
   18CHL1  H26B 1327   6.267   5.529   8.462 -0.4215  0.0531  0.4521
   18CHL1  H26C 1328   6.328   5.357   8.425  0.7775  0.2225  1.0637
   18CHL1   C27 1329   6.076   5.250   8.510 -0.3832 -0.0160  0.0840
   18CHL1  H27A 1330   6.006   5.214   8.589 -1.8733 -0.1964 -1.3012
   18CHL1  H27B 1331   6.007   5.279   8.429  0.1799  0.8495 -0.0874
   18CHL1  H27C 1332   6.124   5.158   8.469  0.2874  1.1830 -1.8277
   19CHL1    C3 1333   3.179   2.589  10.242  0.7629  0.2104 -0.0538
   19CHL1    H3 1334   3.082   2.534  10.232  1.1047 -0.7387  1.6728
   19CHL1    O3 1335   3.193   2.621  10.383 -0.4467  0.0236 -0.0757
   19CHL1   H3' 1336   3.253   2.560  10.427  0.6544  0.0742 -1.4457
   19CHL1    C4 1337   3.296   2.496  10.194 -0.1808  0.2102 -0.4470
   19CHL1   H4A 1338   3.395   2.543  10.213 -0.2051 -0.0287  0.2735
   19CHL1   H4B 1339   3.279   2.401  10.250 -1.8593  2.1563  2.4507
   19CHL1    C5 1340   3.292   2.481  10.043 -0.3968  0.0748 -0.2714
   19CHL1    C6 1341   3.290   2.359   9.984  0.1288 -1.0630 -0.5848
   19CHL1    H6 1342   3.298   2.265  10.041 -0.2148 -0.2373  0.8341
   19CHL1    C7 1343   3.270   2.348   9.831  0.1348  0.3898  0.3682
   19CHL1   H7A 1344   3.316   2.256   9.791  0.1301  0.0965  1.0340
   19CHL1   H7B 1345   3.160   2.349   9.812  0.0924  2.3674  0.6189
   19CHL1    C8 1346   3.337   2.465   9.759 -0.3957  0.7135 -0.4721
   19CHL1    H8 1347   3.446   2.467   9.777 -0.4275  0.9466 -0.3053
   19CHL1   C14 1348   3.311   2.463   9.610  0.9379 -0.4656  0.0960
   19CHL1   H14 1349   3.201   2.446   9.610  1.1403 -1.8505  1.4234
   19CHL1   C15 1350   3.355   2.345   9.527 -0.0392  0.6516 -0.2537
   19CHL1  H15A 1351   3.464   2.323   9.527 -0.1760 -0.0642  1.1987
   19CHL1  H15B 1352   3.313   2.250   9.565  1.6721  0.7590  2.0010
   19CHL1   C16 1353   3.324   2.384   9.381  0.1480 -0.8401  0.3272
   19CHL1  H16A 1354   3.416   2.347   9.331  1.0386  0.5470  0.9210
   19CHL1  H16B 1355   3.232   2.337   9.338  1.8752 -5.1493  1.0841
   19CHL1   C17 1356   3.303   2.534   9.382  0.2879  0.1142 -0.2642
   19CHL1   H17 1357   3.193   2.549   9.386  0.2275 -0.3796 -0.0899
   19CHL1   C13 1358   3.346   2.586   9.522  0.6202 -0.1926 -0.6275
   19CHL1   C18 1359   3.500   2.601   9.519  0.4808 -0.6483  0.0204
   19CHL1  H18A 1360   3.536   2.613   9.624  0.3725 -1.4962  0.1603
   19CHL1  H18B 1361   3.560   2.514   9.488 -0.2380 -1.3981  0.7120
   19CHL1  H18C 1362   3.534   2.692   9.465  2.1534 -0.4824  1.2970
   19CHL1   C12 1363   3.269   2.706   9.573  0.4694 -0.1302  0.2600
   19CHL1  H12A 1364   3.288   2.796   9.510  0.5557 -0.8702 -0.7858
   19CHL1  H12B 1365   3.161   2.685   9.555  0.9692 -0.2807 -2.8515
   19CHL1   C11 1366   3.294   2.722   9.723 -0.8728  0.8043  0.5276
   19CHL1  H11A 1367   3.401   2.748   9.737 -1.1727  0.9706  2.6540
   19CHL1  H11B 1368   3.242   2.809   9.770 -0.5355  2.8390 -2.6704
   19CHL1    C9 1369   3.273   2.594   9.810  0.0489  0.1342 -0.1246
   19CHL1    H9 1370   3.163   2.580   9.794  0.4822 -0.8150 -2.5499
   19CHL1   C10 1371   3.283   2.610   9.963  0.6942 -0.6487  0.2962
   19CHL1   C19 1372   3.418   2.683   9.995  0.0137 -0.2173 -0.4594
   19CHL1  H19A 1373   3.507   2.634   9.951 -0.7697 -0.2539 -2.0277
   19CHL1  H19B 1374   3.426   2.784   9.949  0.0997  0.7130  1.5097
   19CHL1  H19C 1375   3.437   2.708  10.102  0.3718 -1.5417 -0.2060
   19CHL1    C1 1376   3.157   2.695  10.015  0.3202 -0.3902 -0.2987
   19CHL1   H1A 1377   3.155   2.794   9.964 -2.0005  0.4826  1.4070
   19CHL1   H1B 1378   3.065   2.641   9.984  0.2024 -0.3981  0.0699
   19CHL1    C2 1379   3.149   2.715  10.163  0.1754 -0.5394 -0.3914
   19CHL1   H2A 1380   3.055   2.767  10.191  0.1732 -1.0691  0.5834
   19CHL1   H2B 1381   3.229   2.788  10.190  0.3336 -1.2335  1.0148
   19CHL1   C20 1382   3.351   2.616   9.256 -0.1899 -0.3500 -0.4705
   19CHL1   H20 1383   3.370   2.722   9.280  0.4924 -0.7506  0.7800
   19CHL1   C21 1384   3.236   2.600   9.150 -0.6542 -0.1222 -0.7023
   19CHL1  H21A 1385   3.208   2.496   9.122  0.4948 -1.0390  1.4021
   19CHL1  H21B 1386   3.263   2.656   9.058  1.0817 -1.8477 -1.2755
   19CHL1  H21C 1387   3.145   2.641   9.200 -0.3823 -1.0755  0.5969
   19CHL1   C22 1388   3.492   2.578   9.191 -0.2100  0.1520  0.4755
   19CHL1  H22A 1389   3.554   2.534   9.272 -0.4681 -0.7319  0.1928
   19CHL1  H22B 1390   3.483   2.498   9.115 -1.1317 -0.8516  1.6167
   19CHL1   C23 1391   3.569   2.701   9.131 -0.5239  0.5158 -0.1108
   19CHL1  H23A 1392   3.503   2.746   9.054  1.2364  0.0437 -1.9365
   19CHL1  H23B 1393   3.588   2.782   9.205  2.3922 -0.4973  0.3335
   19CHL1   C24 1394   3.711   2.694   9.072  0.2564 -0.4885 -0.7139
   19CHL1  H24A 1395   3.751   2.792   9.039 -1.4860 -0.2137 -2.0784
   19CHL1  H24B 1396   3.773   2.662   9.159  0.9360  1.4957 -0.4500
   19CHL1   C25 1397   3.744   2.583   8.962 -0.2985 -0.3544 -0.1577
   19CHL1   H25 1398   3.712   2.483   8.998 -0.7941 -0.2650 -0.3470
   19CHL1   C26 1399   3.665   2.615   8.837 -0.2846 -0.4437  0.1951
   19CHL1  H26A 1400   3.555   2.608   8.852 -0.2733 -2.2400 -0.3795
   19CHL1  H26B 1401   3.686   2.718   8.802 -0.7952 -0.6662 -0.7761
   19CHL1  H26C 1402   3.699   2.550   8.754  0.6077  1.9703 -1.3820
   19CHL1   C27 1403   3.894   2.582   8.937  0.0207  0.4919  0.4597
   19CHL1  H27A 1404   3.964   2.567   9.022 -1.1152  0.1805  1.3536
   19CHL1  H27B 1405   3.893   2.492   8.871 -0.9635  1.1763 -0.4703
   19CHL1  H27C 1406   3.928   2.663   8.869 -0.3843  0.0910 -0.2186
   20CHL1    C3 1407   5.566   2.963  10.476 -0.5138 -0.1597  0.2139
   20CHL1    H3 1408   5.474   2.900  10.473 -1.5718  1.2317  2.0492
   20CHL1    O3 1409   5.588   2.997  10.613 -0.8271 -0.1768 -0.3175
   20CHL1   H3' 1410   5.616   2.916  10.657 -2.4898 -1.5521 -1.7175
   20CHL1    C4 1411   5.686   2.889  10.410  0.2887  0.3308 -0.0185
   20CHL1   H4A 1412   5.780   2.939  10.442 -0.5231  1.1340  1.1402
   20CHL1   H4B 1413   5.679   2.786  10.452 -1.5702 -0.6694 -2.5634
   20CHL1    C5 1414   5.678   2.878  10.260 -0.6501 -0.8350  0.5496
   20CHL1    C6 1415   5.695   2.756  10.207 -0.1608  0.4507 -0.4296
   20CHL1    H6 1416   5.739   2.680  10.273  1.3988 -1.4662 -3.5386
   20CHL1    C7 1417   5.695   2.730  10.052 -0.0300  0.8019 -0.4594
   20CHL1   H7A 1418   5.770   2.658  10.011  1.6572  0.9413  2.2223
   20CHL1   H7B 1419   5.598   2.686  10.020 -0.2505  0.2741  0.9058
   20CHL1    C8 1420   5.718   2.864   9.980 -0.2945 -0.0563 -0.0799
   20CHL1    H8 1421   5.822   2.902   9.986 -0.3604 -0.0595  1.1273
   20CHL1   C14 1422   5.679   2.853   9.831 -1.4769 -0.8206 -0.7520
   20CHL1   H14 1423   5.570   2.831   9.826 -1.6101 -0.5972  0.8336
   20CHL1   C15 1424   5.743   2.735   9.754  1.1035  0.4010  0.0883
   20CHL1  H15A 1425   5.851   2.723   9.778  1.1316 -2.5162 -1.1941
   20CHL1  H15B 1426   5.691   2.640   9.778 -0.3057  1.4854  1.3624
   20CHL1   C16 1427   5.721   2.771   9.608 -0.3706 -0.1912  0.3469
   20CHL1  H16A 1428   5.818   2.773   9.553 -1.2586 -1.9531 -1.3204
   20CHL1  H16B 1429   5.663   2.698   9.548 -0.3255  0.2981 -0.3085
   20CHL1   C17 1430   5.646   2.915   9.607 -0.4291 -0.4452 -0.4304
   20CHL1   H17 1431   5.537   2.895   9.599 -0.4421 -0.3688 -0.4409
   20CHL1   C13 1432   5.676   2.976   9.745  0.2399 -0.6281  0.1262
   20CHL1   C18 1433   5.818   3.046   9.751  0.5888  0.6030 -0.6385
   20CHL1  H18A 1434   5.887   2.970   9.710  0.4549 -0.1007  0.4263
   20CHL1  H18B 1435   5.815   3.137   9.687  1.5448  2.5547  2.0125
   20CHL1  H18C 1436   5.858   3.066   9.852 -0.3891  0.4767 -0.2197
   20CHL1   C12 1437   5.569   3.066   9.804  0.5556 -0.0335  0.1387
   20CHL1  H12A 1438   5.579   3.156   9.739 -0.9455  0.4612  0.5579
   20CHL1  H12B 1439   5.465   3.026   9.813  0.3889  0.3430 -0.1184
   20CHL1   C11 1440   5.607   3.103   9.948 -0.2411 -0.9152  0.0002
   20CHL1  H11A 1441   5.696   3.169   9.941  1.9441 -3.6104  1.3691
   20CHL1  H11B 1442   5.526   3.162   9.995 -0.6280 -0.5424 -1.1241
   20CHL1    C9 1443   5.624   2.978  10.042 -0.3657  1.0651 -0.4311
   20CHL1    H9 1444   5.529   2.921  10.036 -1.4900  2.8920 -0.5352
   20CHL1   C10 1445   5.640   3.010  10.190  0.4028 -0.2284 -0.0544
   20CHL1   C19 1446   5.743   3.118  10.196 -0.4574 -0.8771  0.3796
   20CHL1  H19A 1447   5.782   3.145  10.297 -0.7904  0.0802  0.2511
   20CHL1  H19B 1448   5.834   3.087  10.140 -1.3862 -0.6208 -1.3109
   20CHL1  H19C 1449   5.708   3.213  10.152  0.5505 -0.0556  1.3108
   20CHL1    C1 1450   5.510   3.063  10.256  0.7613  0.1279  0.0326
   20CHL1   H1A 1451   5.483   3.160  10.209 -0.4843  0.6637  1.8061
   20CHL1   H1B 1452   5.428   2.991  10.240  0.4838  0.5923 -0.6438
   20CHL1    C2 1453   5.532   3.087  10.400 -0.0505  0.4897 -0.0562
   20CHL1   H2A 1454   5.440   3.136  10.440  0.0284  0.7528 -0.1953
   20CHL1   H2B 1455   5.606   3.168  10.415  0.2285  0.3027 -0.4177
   20CHL1   C20 1456   5.679   2.991   9.477  0.3071 -0.8941 -0.1313
   20CHL1   H20 1457   5.788   3.014   9.473 -0.0700  0.6912 -2.2016
   20CHL1   C21 1458   5.604   3.129   9.483 -0.1319 -0.2963  0.7230
   20CHL1  H21A 1459   5.652   3.197   9.557 -0.1769 -1.3916  1.7498
   20CHL1  H21B 1460   5.498   3.108   9.506 -0.0677 -0.6137  0.7228
   20CHL1  H21C 1461   5.614   3.164   9.378 -0.2330 -4.6667 -0.8361
   20CHL1   C22 1462   5.642   2.920   9.348 -0.0688 -0.1753 -0.4819
   20CHL1  H22A 1463   5.673   2.814   9.363  1.4097  0.3628  0.4018
   20CHL1  H22B 1464   5.531   2.921   9.341 -0.1799  1.4389  1.0398
   20CHL1   C23 1465   5.716   2.968   9.221  0.5278 -0.8245  1.1469
   20CHL1  H23A 1466   5.704   3.078   9.213  0.1876 -0.7941  2.0077
   20CHL1  H23B 1467   5.824   2.945   9.233  0.9192  1.1510  1.5326
   20CHL1   C24 1468   5.646   2.906   9.102 -0.4522 -0.0301  0.1361
   20CHL1  H24A 1469   5.630   2.801   9.135  1.5108 -1.4681 -3.2439
   20CHL1  H24B 1470   5.546   2.952   9.087 -0.7186 -0.0156  1.8121
   20CHL1   C25 1471   5.728   2.902   8.974 -0.2536  0.4810 -0.4559
   20CHL1   H25 1472   5.825   2.856   9.003 -0.6243 -0.6936 -1.0369
   20CHL1   C26 1473   5.660   2.815   8.865  0.1691 -0.0148 -1.3807
   20CHL1  H26A 1474   5.725   2.811   8.775  0.5143 -1.0646 -1.0907
   20CHL1  H26B 1475   5.642   2.711   8.900 -0.9390  0.9082  0.9543
   20CHL1  H26C 1476   5.565   2.864   8.834 -1.3130 -1.9384  0.0243
   20CHL1   C27 1477   5.758   3.046   8.926  0.2741  1.8833  0.3299
   20CHL1  H27A 1478   5.807   3.110   9.003  1.1922  1.4923  0.0767
   20CHL1  H27B 1479   5.818   3.033   8.833 -2.5972 -2.4363 -1.0484
   20CHL1  H27C 1480   5.666   3.097   8.889 -0.8572 -1.5679 -1.8585
   21CHL1    C3 1481   5.023   5.833  10.316  0.6434  0.0516 -0.2250
   21CHL1    H3 1482   5.010   5.724  10.303  1.7005 -0.1909  0.6924
   21CHL1    O3 1483   5.041   5.858  10.456  0.5081  0.2736 -0.0971
   21CHL1   H3' 1484   5.047   5.953  10.467 -1.0933  0.3730 -0.0396
   21CHL1    C4 1485   5.149   5.887  10.245 -0.6288 -0.6085 -0.7011
   21CHL1   H4A 1486   5.175   5.989  10.279  0.0055 -0.0583 -2.7282
   21CHL1   H4B 1487   5.227   5.816  10.280 -1.4337 -1.2009 -0.0812
   21CHL1    C5 1488   5.143   5.890  10.094  0.3427  0.1230 -0.2655
   21CHL1    C6 1489   5.251   5.843  10.020 -0.2443  0.1636  0.1380
   21CHL1    H6 1490   5.342   5.806  10.069 -1.3684 -0.4886  1.7867
   21CHL1    C7 1491   5.253   5.840   9.868  0.6980 -0.0750  0.0912
   21CHL1   H7A 1492   5.343   5.892   9.829 -0.7201  0.9662 -1.8502
   21CHL1   H7B 1493   5.239   5.738   9.826 -1.2462  0.3354 -0.2949
   21CHL1    C8 1494   5.131   5.922   9.812  0.0406  0.4646  0.4236
   21CHL1    H8 1495   5.151   6.030   9.825  0.4233  0.2442  1.8001
   21CHL1   C14 1496   5.103   5.886   9.667  0.2899  0.5380 -0.7409
   21CHL1   H14 1497   5.074   5.780   9.658 -2.3250  1.1747 -0.3367
   21CHL1   C15 1498   5.224   5.884   9.571  1.3185  0.4278  0.0929
   21CHL1  H15A 1499   5.284   5.975   9.591  0.5808  1.3404 -1.7411
   21CHL1  H15B 1500   5.286   5.792   9.580 -1.3086 -1.3456  0.8660
   21CHL1   C16 1501   5.159   5.890   9.433 -0.2462 -0.3562  0.2811
   21CHL1  H16A 1502   5.191   5.987   9.390 -2.2695  0.4017  0.4138
   21CHL1  H16B 1503   5.184   5.819   9.352 -1.0052  0.3946 -0.6292
   21CHL1   C17 1504   5.004   5.900   9.453 -0.1807 -0.2419  0.1091
   21CHL1   H17 1505   4.952   5.802   9.459 -2.0261  0.8434  3.1518
   21CHL1   C13 1506   4.999   5.961   9.591  0.4650  0.5932 -0.2211
   21CHL1   C18 1507   5.021   6.117   9.598  0.1763  0.7848  0.1979
   21CHL1  H18A 1508   5.009   6.149   9.704  0.3861 -1.6475  0.9921
   21CHL1  H18B 1509   5.121   6.147   9.562 -0.7295  3.2077 -0.4003
   21CHL1  H18C 1510   4.957   6.174   9.528 -0.0292  0.1737 -0.1230
   21CHL1   C12 1511   4.865   5.935   9.661 -0.7454 -0.1432 -0.7208
   21CHL1  H12A 1512   4.777   5.995   9.629 -1.0415 -0.8403 -1.2195
   21CHL1  H12B 1513   4.839   5.830   9.636 -1.2662 -0.0598 -0.5494
   21CHL1   C11 1514   4.869   5.961   9.815 -1.1021  0.5704 -0.3480
   21CHL1  H11A 1515   4.886   6.069   9.836 -0.7782  0.6427 -0.9674
   21CHL1  H11B 1516   4.774   5.923   9.858  0.3151 -1.5439  1.0272
   21CHL1    C9 1517   4.993   5.901   9.888 -0.2113  0.1136 -0.1351
   21CHL1    H9 1518   4.986   5.790   9.888  0.0046  0.1003 -0.2215
   21CHL1   C10 1519   5.006   5.941  10.036  0.3795  0.3831  0.1308
   21CHL1   C19 1520   5.002   6.090  10.064  0.3935 -0.8871  0.3768
   21CHL1  H19A 1521   5.023   6.108  10.172 -0.5355 -1.5430  0.6694
   21CHL1  H19B 1522   5.077   6.141  10.000  1.4844 -1.3319  1.2813
   21CHL1  H19C 1523   4.906   6.138  10.035  1.2108  0.0655 -0.7848
   21CHL1    C1 1524   4.883   5.876  10.109  0.5396 -1.1761 -1.1343
   21CHL1   H1A 1525   4.783   5.912  10.078  1.1282 -0.5623 -2.3446
   21CHL1   H1B 1526   4.889   5.766  10.094 -0.3646 -1.3416 -0.3387
   21CHL1    C2 1527   4.891   5.900  10.270  0.6233  0.2237  0.0331
   21CHL1   H2A 1528   4.811   5.842  10.321  0.4159  0.2591 -0.2504
   21CHL1   H2B 1529   4.868   6.003  10.304 -1.4986 -0.2653  0.1333
   21CHL1   C20 1530   4.951   5.973   9.327  0.1278  0.3658 -0.7249
   21CHL1   H20 1531   4.993   6.075   9.335 -0.9734  0.8258 -0.7975
   21CHL1   C21 1532   4.799   5.993   9.337  0.9907  0.5468  0.1668
   21CHL1  H21A 1533   4.736   5.901   9.338  0.8474  0.5874 -1.9672
   21CHL1  H21B 1534   4.751   6.058   9.260  0.1209 -1.7619 -1.3080
   21CHL1  H21C 1535   4.782   6.036   9.438 -2.7926 -0.5942  0.1078
   21CHL1   C22 1536   4.982   5.914   9.190  0.1410  0.0774  0.5128
   21CHL1  H22A 1537   5.090   5.889   9.185  0.1900  0.4271 -0.2053
   21CHL1  H22B 1538   4.910   5.832   9.168  0.3535 -0.3006  1.2213
   21CHL1   C23 1539   4.973   6.020   9.078 -0.0965  0.4034  0.2196
   21CHL1  H23A 1540   4.872   6.062   9.092 -2.3164 -4.8871  1.2906
   21CHL1  H23B 1541   5.052   6.098   9.082  1.5859 -1.2352 -0.1576
   21CHL1   C24 1542   4.974   5.952   8.941  0.3317  0.3422  0.1323
   21CHL1  H24A 1543   5.068   5.894   8.929  0.6294  0.3388  2.1884
   21CHL1  H24B 1544   4.893   5.877   8.945  0.1766  0.2700 -3.0439
   21CHL1   C25 1545   4.965   6.042   8.819  0.5744 -0.1102 -0.2077
   21CHL1   H25 1546   5.057   6.104   8.807 -1.1795  2.4473 -0.9266
   21CHL1   C26 1547   4.950   5.953   8.687 -0.5576 -0.2102 -0.3071
   21CHL1  H26A 1548   5.051   5.918   8.659  0.2371  2.1355 -0.4714
   21CHL1  H26B 1549   4.877   5.870   8.698  1.8650 -2.3532 -0.0824
   21CHL1  H26C 1550   4.921   6.020   8.603 -0.0939 -1.0718 -1.1582
   21CHL1   C27 1551   4.839   6.135   8.824  0.2629 -0.7314 -0.5670
   21CHL1  H27A 1552   4.746   6.073   8.827  0.5241 -1.2771 -2.6055
   21CHL1  H27B 1553   4.840   6.197   8.915  0.9662  1.0329 -1.7492
   21CHL1  H27C 1554   4.851   6.199   8.734  0.9877  0.1521  0.1640
   22CHL1    C3 1555   4.845   0.193  10.227 -0.0602  0.1587 -0.1777
   22CHL1    H3 1556   4.786   0.099  10.226  1.1600 -0.6124 -2.1919
   22CHL1    O3 1557   4.895   0.227  10.360  0.1679  0.4331 -0.0147
   22CHL1   H3' 1558   4.954   0.301  10.345  0.1411  0.8904  2.0020
   22CHL1    C4 1559   4.966   0.176  10.133 -0.2753 -0.2555 -0.0477
   22CHL1   H4A 1560   5.033   0.264  10.139 -2.9506  1.8137  0.2829
   22CHL1   H4B 1561   5.009   0.082  10.174  1.3875  0.6841  0.4167
   22CHL1    C5 1562   4.929   0.166   9.990  0.0052  0.6175 -0.2238
   22CHL1    C6 1563   4.966   0.068   9.910  0.0944  0.0695  0.0561
   22CHL1    H6 1564   5.049   0.004   9.943  0.9518  1.0401 -0.2008
   22CHL1    C7 1565   4.938   0.061   9.764 -0.1283 -0.4272  0.6734
   22CHL1   H7A 1566   5.026   0.036   9.702 -0.6257  0.4633 -0.4223
   22CHL1   H7B 1567   4.862  -0.017   9.742 -0.4720  0.8043 -2.9085
   22CHL1    C8 1568   4.878   0.196   9.702 -0.5217 -0.3065  0.0525
   22CHL1    H8 1569   4.959   0.267   9.675 -0.4286 -0.9231 -1.3757
   22CHL1   C14 1570   4.797   0.150   9.578 -0.1618  0.7688 -0.4233
   22CHL1   H14 1571   4.721   0.077   9.613 -0.8351  1.9780  0.6845
   22CHL1   C15 1572   4.866   0.067   9.473 -0.2658  0.1414 -0.2178
   22CHL1  H15A 1573   4.971   0.102   9.469 -0.2244  0.0596  0.1458
   22CHL1  H15B 1574   4.870  -0.039   9.506  2.0952  1.0237  2.4965
   22CHL1   C16 1575   4.801   0.091   9.344  0.5706  0.6219 -0.3573
   22CHL1  H16A 1576   4.864   0.135   9.263 -0.7529  0.2244 -1.6178
   22CHL1  H16B 1577   4.767  -0.007   9.305 -1.3195 -0.5597  4.0050
   22CHL1   C17 1578   4.684   0.198   9.377 -0.1010 -0.2707  0.0394
   22CHL1   H17 1579   4.597   0.137   9.410 -0.0490  0.4710  1.5904
   22CHL1   C13 1580   4.732   0.270   9.505 -0.1426  0.1486  0.1326
   22CHL1   C18 1581   4.837   0.369   9.458 -1.2810  0.0056  0.4330
   22CHL1  H18A 1582   4.801   0.436   9.376  1.1922  1.5623  0.5628
   22CHL1  H18B 1583   4.877   0.436   9.538 -0.9741  0.7280 -0.3132
   22CHL1  H18C 1584   4.926   0.319   9.415  1.8575  1.1496  5.1256
   22CHL1   C12 1585   4.631   0.340   9.604  0.1704  0.2356 -0.6415
   22CHL1  H12A 1586   4.600   0.439   9.564  2.6645  1.8164  1.1670
   22CHL1  H12B 1587   4.540   0.278   9.622 -0.7379  1.2869 -1.4849
   22CHL1   C11 1588   4.692   0.377   9.738 -0.3784 -0.7935 -0.2219
   22CHL1  H11A 1589   4.753   0.469   9.729 -0.8914 -0.3435  0.8143
   22CHL1  H11B 1590   4.609   0.401   9.807  1.0340  0.5227  1.0563
   22CHL1    C9 1591   4.775   0.264   9.796 -0.3822 -0.0324  0.3428
   22CHL1    H9 1592   4.704   0.180   9.810  0.3516 -1.0608 -1.8180
   22CHL1   C10 1593   4.835   0.285   9.936 -0.5201 -0.2810  0.1803
   22CHL1   C19 1594   4.923   0.408   9.917 -0.3586  0.2908  0.0980
   22CHL1  H19A 1595   4.854   0.494   9.902 -1.3855 -0.9277 -2.4076
   22CHL1  H19B 1596   4.976   0.441  10.009  0.6658 -0.6780 -0.1321
   22CHL1  H19C 1597   5.000   0.398   9.838 -1.6699  0.9992 -1.3021
   22CHL1    C1 1598   4.718   0.311  10.027 -0.4960 -0.2379  0.4882
   22CHL1   H1A 1599   4.672   0.409   9.999  2.1141  0.6787 -0.7467
   22CHL1   H1B 1600   4.639   0.235  10.010 -0.9777 -0.0871  1.9939
   22CHL1    C2 1601   4.752   0.308  10.183 -0.2837  0.3104  0.7392
   22CHL1   H2A 1602   4.664   0.295  10.250  1.1700 -0.5370  2.5315
   22CHL1   H2B 1603   4.800   0.407  10.199  1.3513 -0.5723  1.3546
   22CHL1   C20 1604   4.638   0.278   9.251 -0.0396 -0.7840  0.2422
   22CHL1   H20 1605   4.724   0.335   9.211 -0.1201  0.0106  1.1761
   22CHL1   C21 1606   4.538   0.379   9.292  0.4487  0.5093 -0.0382
   22CHL1  H21A 1607   4.575   0.452   9.367 -0.5079 -0.9718  1.9199
   22CHL1  H21B 1608   4.456   0.338   9.355  1.4799  0.0493  1.0318
   22CHL1  H21C 1609   4.504   0.428   9.198  2.1024  1.1965 -0.2928
   22CHL1   C22 1610   4.580   0.179   9.139 -0.4130  0.4491 -0.0183
   22CHL1  H22A 1611   4.623   0.078   9.156  0.6132  0.9347  0.3406
   22CHL1  H22B 1612   4.474   0.155   9.164  0.4828 -2.5881  1.0827
   22CHL1   C23 1613   4.608   0.218   8.992 -0.5374 -0.1336  0.1097
   22CHL1  H23A 1614   4.592   0.328   8.979 -1.5864 -0.5505 -2.2741
   22CHL1  H23B 1615   4.717   0.200   8.981 -1.1018 -4.0021  0.2184
   22CHL1   C24 1616   4.518   0.148   8.895  0.1287 -0.8626  0.8523
   22CHL1  H24A 1617   4.548   0.042   8.891  0.2920 -0.7679 -0.7163
   22CHL1  H24B 1618   4.413   0.142   8.931 -0.1288 -1.1779  0.0716
   22CHL1   C25 1619   4.522   0.214   8.753  1.3619 -0.2886 -0.2508
   22CHL1   H25 1620   4.489   0.319   8.764  0.1510 -0.7765  1.0581
   22CHL1   C26 1621   4.662   0.200   8.691  0.5766 -0.5453 -0.2486
   22CHL1  H26A 1622   4.661   0.242   8.588  2.7725 -0.8817 -0.4168
   22CHL1  H26B 1623   4.732   0.255   8.758 -1.2110 -0.7007  1.8101
   22CHL1  H26C 1624   4.699   0.096   8.682 -3.3630 -1.9451 -1.1477
   22CHL1   C27 1625   4.435   0.125   8.660 -0.2106 -0.9368 -0.4371
   22CHL1  H27A 1626   4.330   0.124   8.699 -0.1776  0.2555 -0.2851
   22CHL1  H27B 1627   4.445   0.164   8.557  2.6586  0.1257  0.1996
   22CHL1  H27C 1628   4.482   0.025   8.652  1.3926  0.0026 -3.1054
   23CHL1    C3 1629   1.417   2.036  10.221 -0.3466 -0.0716  0.2840
   23CHL1    H3 1630   1.433   2.101  10.132 -1.2653 -2.5316 -1.7369
   23CHL1    O3 1631   1.377   2.111  10.336 -1.1338  0.5771  0.2227
   23CHL1   H3' 1632   1.455   2.150  10.375 -1.0091  3.1866 -2.4319
   23CHL1    C4 1633   1.304   1.939  10.179  1.0447 -0.0575  0.0035
   23CHL1   H4A 1634   1.261   1.886  10.267 -1.7700  3.7341  1.0154
   23CHL1   H4B 1635   1.220   2.005  10.148 -0.5090 -1.4564  1.1650
   23CHL1    C5 1636   1.329   1.826  10.078  0.1153 -0.1713 -0.1428
   23CHL1    C6 1637   1.248   1.804   9.975  0.3606 -0.9842  1.0864
   23CHL1    H6 1638   1.157   1.867   9.977  0.9576 -0.0918  0.3595
   23CHL1    C7 1639   1.273   1.702   9.873 -0.0910 -0.1146 -0.5988
   23CHL1   H7A 1640   1.189   1.630   9.870  1.1636 -1.5648 -2.1426
   23CHL1   H7B 1641   1.265   1.741   9.769 -1.9164  1.2195  0.0240
   23CHL1    C8 1642   1.403   1.614   9.899 -0.8544 -1.0215 -0.1236
   23CHL1    H8 1643   1.375   1.539   9.976  0.7888  0.7337  2.2435
   23CHL1   C14 1644   1.454   1.552   9.770  0.4860  0.2089  0.4912
   23CHL1   H14 1645   1.500   1.639   9.718  1.2218 -1.2673 -1.3766
   23CHL1   C15 1646   1.355   1.502   9.663  0.4677  0.7959  0.4121
   23CHL1  H15A 1647   1.279   1.436   9.710 -0.0731  0.4360 -0.9654
   23CHL1  H15B 1648   1.297   1.582   9.614  1.8608  1.7507  0.2842
   23CHL1   C16 1649   1.446   1.420   9.577 -0.9833 -0.9707  0.5030
   23CHL1  H16A 1650   1.422   1.314   9.600 -2.0552 -1.7262 -3.5523
   23CHL1  H16B 1651   1.427   1.432   9.468 -1.7298 -1.9797  0.5140
   23CHL1   C17 1652   1.601   1.426   9.629 -0.0760  0.0590  0.3052
   23CHL1   H17 1653   1.649   1.516   9.584  0.1732  0.2772  1.0011
   23CHL1   C13 1654   1.573   1.452   9.782 -0.0682 -0.0948  0.3671
   23CHL1   C18 1655   1.536   1.322   9.857  0.2516  0.2139  0.4677
   23CHL1  H18A 1656   1.504   1.335   9.962 -0.4242 -0.5528  0.3620
   23CHL1  H18B 1657   1.452   1.264   9.812  1.1851 -0.4530 -0.4403
   23CHL1  H18C 1658   1.626   1.260   9.874  0.8085  1.1606  0.9956
   23CHL1   C12 1659   1.682   1.520   9.865 -0.0188 -0.4700  1.0955
   23CHL1  H12A 1660   1.763   1.449   9.890  0.3343 -0.4094  0.1517
   23CHL1  H12B 1661   1.731   1.598   9.803  0.7633 -2.0288 -0.2576
   23CHL1   C11 1662   1.642   1.589   9.994 -0.0300  0.2449 -0.0652
   23CHL1  H11A 1663   1.615   1.514  10.071  0.7330  0.7902  0.7312
   23CHL1  H11B 1664   1.726   1.653  10.027  0.7404 -0.2209 -1.0793
   23CHL1    C9 1665   1.517   1.684   9.970  0.6682 -0.2469  0.2789
   23CHL1    H9 1666   1.547   1.763   9.899  1.2071 -0.8240 -0.1357
   23CHL1   C10 1667   1.463   1.755  10.101  0.1835 -0.1912  0.0577
   23CHL1   C19 1668   1.447   1.659  10.220 -0.0255 -0.2376 -0.1917
   23CHL1  H19A 1669   1.379   1.704  10.295 -2.6090  0.9856 -3.1277
   23CHL1  H19B 1670   1.391   1.566  10.195 -1.6880  0.8828 -0.7326
   23CHL1  H19C 1671   1.540   1.624  10.270 -0.2937 -2.7100 -1.3233
   23CHL1    C1 1672   1.577   1.854  10.138 -1.2142  0.6627  0.6727
   23CHL1   H1A 1673   1.660   1.791  10.174  0.3723  0.3899 -3.2123
   23CHL1   H1B 1674   1.622   1.897  10.046  2.2578 -2.7608  0.6695
   23CHL1    C2 1675   1.548   1.959  10.246  0.0292  0.1005  0.4518
   23CHL1   H2A 1676   1.631   2.029  10.271 -1.7897  2.2937  0.5234
   23CHL1   H2B 1677   1.520   1.900  10.336 -1.2796  1.1314  0.7427
   23CHL1   C20 1678   1.681   1.299   9.595  0.5142  0.4366  0.2864
   23CHL1   H20 1679   1.631   1.223   9.657 -1.8698  1.1548 -0.6872
   23CHL1   C21 1680   1.823   1.311   9.648  0.6417 -0.7229  0.1678
   23CHL1  H21A 1681   1.866   1.406   9.609 -0.3233  0.3779  1.6962
   23CHL1  H21B 1682   1.887   1.228   9.611  2.1879  0.4291  0.2235
   23CHL1  H21C 1683   1.834   1.317   9.758 -0.2881  1.6742  0.1694
   23CHL1   C22 1684   1.671   1.270   9.446 -0.0432 -1.0891  0.5819
   23CHL1  H22A 1685   1.735   1.180   9.439 -0.3982 -1.1440 -2.4804
   23CHL1  H22B 1686   1.568   1.252   9.410 -0.1313 -0.2850  0.4209
   23CHL1   C23 1687   1.723   1.379   9.348  0.6388  0.0539 -0.4919
   23CHL1  H23A 1688   1.674   1.477   9.368  0.9740 -0.0326  0.8506
   23CHL1  H23B 1689   1.831   1.405   9.356  0.9878 -0.9054 -1.9344
   23CHL1   C24 1690   1.681   1.351   9.201 -0.6038  0.7588 -0.7655
   23CHL1  H24A 1691   1.757   1.278   9.166  0.7838  1.1944  1.2723
   23CHL1  H24B 1692   1.589   1.290   9.200  0.7021 -1.2344 -0.9264
   23CHL1   C25 1693   1.672   1.467   9.104  0.0916 -0.5425  0.1251
   23CHL1   H25 1694   1.616   1.546   9.159 -0.3632  1.0152 -2.4707
   23CHL1   C26 1695   1.812   1.515   9.055  0.2466 -0.8039 -0.6937
   23CHL1  H26A 1696   1.871   1.533   9.148  1.7438 -1.9807 -1.3843
   23CHL1  H26B 1697   1.858   1.426   9.007 -2.1804 -1.9506 -0.9489
   23CHL1  H26C 1698   1.806   1.598   8.982  0.9266 -0.6359 -0.5620
   23CHL1   C27 1699   1.588   1.431   8.981  0.2789 -0.1076 -0.1300
   23CHL1  H27A 1700   1.581   1.522   8.918 -0.6164  0.5004  0.8379
   23CHL1  H27B 1701   1.646   1.357   8.923  2.1907 -0.7645  2.5083
   23CHL1  H27C 1702   1.488   1.388   9.004  0.8527 -2.2053 -1.4305
   24CHL1    C3 1703   2.598   2.644  10.327  0.3866 -0.0509 -0.8216
   24CHL1    H3 1704   2.570   2.537  10.339 -2.6950  0.7409 -0.4646
   24CHL1    O3 1705   2.600   2.704  10.452  0.0605  0.7417  0.5854
   24CHL1   H3' 1706   2.624   2.796  10.436 -1.5641  1.0202 -0.3303
   24CHL1    C4 1707   2.743   2.639  10.267 -0.5621  0.4200  0.1243
   24CHL1   H4A 1708   2.793   2.738  10.276 -1.9521  1.3008 -1.5406
   24CHL1   H4B 1709   2.791   2.562  10.331  1.1981 -1.2344 -3.0117
   24CHL1    C5 1710   2.743   2.586  10.120 -0.7946 -0.5660  0.7498
   24CHL1    C6 1711   2.829   2.488  10.089 -0.0877  0.0763  0.1707
   24CHL1    H6 1712   2.898   2.438  10.159 -1.2677 -0.1711  1.1682
   24CHL1    C7 1713   2.840   2.448   9.942  0.5459 -0.5025  0.4834
   24CHL1   H7A 1714   2.943   2.422   9.911  0.1834 -1.1312 -0.2236
   24CHL1   H7B 1715   2.780   2.356   9.927 -2.1721  1.1757  0.6446
   24CHL1    C8 1716   2.786   2.555   9.838  0.6006  0.0282  0.3979
   24CHL1    H8 1717   2.862   2.637   9.841  0.7320 -0.0807  0.0574
   24CHL1   C14 1718   2.781   2.500   9.699  0.0203  0.2143  0.2529
   24CHL1   H14 1719   2.703   2.422   9.686  0.0702  0.3796 -1.1052
   24CHL1   C15 1720   2.911   2.444   9.648 -0.2234 -0.0580 -0.5213
   24CHL1  H15A 1721   3.001   2.504   9.671  0.2608 -1.1515  0.4957
   24CHL1  H15B 1722   2.936   2.341   9.682 -0.9063  0.1976  0.7835
   24CHL1   C16 1723   2.890   2.443   9.497  0.2218 -0.3695  0.2653
   24CHL1  H16A 1724   2.980   2.491   9.454  0.9570 -0.3757  1.7715
   24CHL1  H16B 1725   2.881   2.343   9.450  0.6906  0.8721 -2.5835
   24CHL1   C17 1726   2.760   2.521   9.468 -0.2792 -0.2722  0.7193
   24CHL1   H17 1727   2.676   2.450   9.450  0.4624 -0.8159 -0.6796
   24CHL1   C13 1728   2.737   2.603   9.593 -0.4104  0.5078  0.2488
   24CHL1   C18 1729   2.836   2.726   9.593 -0.0341  0.5645  0.1939
   24CHL1  H18A 1730   2.827   2.791   9.682 -3.0412  2.5389 -1.4657
   24CHL1  H18B 1731   2.940   2.694   9.573  0.7096  1.8477  1.9538
   24CHL1  H18C 1732   2.810   2.793   9.509 -0.3006 -0.0285 -0.2070
   24CHL1   C12 1733   2.592   2.656   9.631  0.0819 -0.8994 -0.4425
   24CHL1  H12A 1734   2.543   2.733   9.568  1.0244  0.0881  0.0107
   24CHL1  H12B 1735   2.521   2.570   9.622 -0.0273 -0.8333 -0.2267
   24CHL1   C11 1736   2.580   2.699   9.782  0.0365  0.9955 -0.1533
   24CHL1  H11A 1737   2.627   2.800   9.785  0.9316  0.6081 -0.7747
   24CHL1  H11B 1738   2.474   2.714   9.810  0.1493 -1.2915  1.6149
   24CHL1    C9 1739   2.650   2.603   9.876 -0.2150  0.0339 -0.2190
   24CHL1    H9 1740   2.594   2.508   9.876 -1.5151  0.7824 -0.1027
   24CHL1   C10 1741   2.651   2.665  10.022 -0.8566  0.0459  0.1346
   24CHL1   C19 1742   2.701   2.807  10.029 -0.5946 -0.2517  0.2026
   24CHL1  H19A 1743   2.713   2.848  10.132 -0.9337  0.6247 -0.0997
   24CHL1  H19B 1744   2.799   2.820   9.980  0.3737 -3.1480  1.2593
   24CHL1  H19C 1745   2.630   2.878   9.982 -0.6476  0.5439  1.4503
   24CHL1    C1 1746   2.513   2.656  10.094  0.0169  0.1345 -0.3659
   24CHL1   H1A 1747   2.442   2.713  10.029  0.2940  1.1661  0.2397
   24CHL1   H1B 1748   2.482   2.549  10.087 -0.8178  0.5008 -2.8008
   24CHL1    C2 1749   2.497   2.710  10.237 -0.0813 -0.0858 -0.0053
   24CHL1   H2A 1750   2.396   2.692  10.280  1.1163 -0.0350  2.9068
   24CHL1   H2B 1751   2.512   2.820  10.239 -0.2113 -0.0806  0.8845
   24CHL1   C20 1752   2.765   2.589   9.333  0.1419 -0.4124  0.5873
   24CHL1   H20 1753   2.863   2.634   9.306 -0.3752  0.4056  0.0600
   24CHL1   C21 1754   2.639   2.680   9.316  0.3981  0.7867  0.1509
   24CHL1  H21A 1755   2.547   2.634   9.359 -0.1601  0.3918 -1.4248
   24CHL1  H21B 1756   2.598   2.708   9.217  0.9822 -3.9642 -1.5716
   24CHL1  H21C 1757   2.655   2.776   9.370  0.2428  2.2321 -2.2977
   24CHL1   C22 1758   2.752   2.483   9.226  0.0930  0.2059  0.0242
   24CHL1  H22A 1759   2.826   2.400   9.230 -1.8537 -1.7922 -2.8866
   24CHL1  H22B 1760   2.647   2.447   9.227  0.0333  0.3280  2.8884
   24CHL1   C23 1761   2.782   2.543   9.088  0.1927  0.4193 -0.0499
   24CHL1  H23A 1762   2.697   2.604   9.052 -2.4183 -1.7413  2.2440
   24CHL1  H23B 1763   2.876   2.601   9.102  0.6216 -0.4405  0.7051
   24CHL1   C24 1764   2.802   2.430   8.990  0.2641  0.3016 -0.5774
   24CHL1  H24A 1765   2.871   2.353   9.030 -1.1071 -0.6110  0.1164
   24CHL1  H24B 1766   2.709   2.375   8.961  1.5987 -1.8898 -0.7936
   24CHL1   C25 1767   2.866   2.480   8.858 -0.0274  0.6010  0.3525
   24CHL1   H25 1768   2.801   2.560   8.816  0.9188 -0.2965 -2.8996
   24CHL1   C26 1769   2.999   2.556   8.859 -0.1230  0.2239 -0.2800
   24CHL1  H26A 1770   3.087   2.496   8.888  0.0636  0.8687  0.4711
   24CHL1  H26B 1771   3.028   2.599   8.761 -0.1735  1.3433  0.1984
   24CHL1  H26C 1772   3.000   2.640   8.931  0.9142  0.6712 -0.8103
   24CHL1   C27 1773   2.876   2.366   8.760 -0.0423 -0.2132 -0.2463
   24CHL1  H27A 1774   2.781   2.313   8.737 -0.7707  0.4063  1.2811
   24CHL1  H27B 1775   2.918   2.401   8.664  1.0303  1.1515  0.6991
   24CHL1  H27C 1776   2.942   2.282   8.791 -1.6992 -2.4823 -2.6098
   25CHL1    C3 1777   4.577   3.915  10.354  0.6195  0.4038 -0.5858
   25CHL1    H3 1778   4.644   3.831  10.329 -1.4617 -0.9662 -1.7363
   25CHL1    O3 1779   4.575   3.945  10.489  0.3329  0.0155 -0.5492
   25CHL1   H3' 1780   4.575   3.857  10.529 -0.6685 -0.0726 -0.7196
   25CHL1    C4 1781   4.616   4.035  10.274 -0.4163  0.2982  0.5022
   25CHL1   H4A 1782   4.553   4.124  10.295 -0.4763  0.7121 -1.3149
   25CHL1   H4B 1783   4.723   4.052  10.299  0.1582 -3.1991  0.6598
   25CHL1    C5 1784   4.593   4.019  10.121  0.2987  0.2356  0.4315
   25CHL1    C6 1785   4.686   4.032  10.033 -0.4022  0.0210 -0.0962
   25CHL1    H6 1786   4.788   4.058  10.066  1.0054 -1.8485 -2.7880
   25CHL1    C7 1787   4.674   4.026   9.885  0.1540  0.3852 -0.3302
   25CHL1   H7A 1788   4.713   4.117   9.834 -0.8713  0.8779 -0.2496
   25CHL1   H7B 1789   4.727   3.947   9.827  0.2098  0.8015 -0.8430
   25CHL1    C8 1790   4.521   4.005   9.835  0.0202 -0.1049 -0.2669
   25CHL1    H8 1791   4.464   4.101   9.837 -0.0011 -0.1153 -0.3532
   25CHL1   C14 1792   4.519   3.937   9.700 -0.6964  0.0572  0.4739
   25CHL1   H14 1793   4.567   3.837   9.707  0.2001  0.4903  0.6981
   25CHL1   C15 1794   4.592   4.017   9.591 -0.2482  0.4158  0.1311
   25CHL1  H15A 1795   4.570   4.124   9.612 -0.0099  0.6064 -0.5838
   25CHL1  H15B 1796   4.702   4.003   9.605 -0.8273 -2.1046  2.7522
   25CHL1   C16 1797   4.529   3.979   9.463  0.2573  0.5238  0.4860
   25CHL1  H16A 1798   4.476   4.059   9.409  1.7314  2.2004  1.4713
   25CHL1  H16B 1799   4.604   3.927   9.399  0.2026  0.7315  0.2535
   25CHL1   C17 1800   4.428   3.866   9.508  0.0967 -0.1383  0.4457
   25CHL1   H17 1801   4.485   3.771   9.515 -0.4544 -0.4687  0.5205
   25CHL1   C13 1802   4.383   3.899   9.649 -0.0915 -0.1277 -0.0184
   25CHL1   C18 1803   4.284   4.018   9.643 -0.4295 -0.6016  0.2654
   25CHL1  H18A 1804   4.280   4.072   9.740 -0.0163 -0.1150  0.0131
   25CHL1  H18B 1805   4.302   4.096   9.566  0.8703  0.0502  1.2064
   25CHL1  H18C 1806   4.180   3.981   9.632 -0.4028 -0.2621 -1.1718
   25CHL1   C12 1807   4.322   3.790   9.747  0.3669  0.4285 -0.0795
   25CHL1  H12A 1808   4.226   3.746   9.712  0.3082  0.3627  0.1653
   25CHL1  H12B 1809   4.388   3.701   9.738 -1.0163 -0.3341 -3.3342
   25CHL1   C11 1810   4.323   3.846   9.888  0.2688 -0.3358  0.1786
   25CHL1  H11A 1811   4.241   3.921   9.889 -2.2430 -2.9166 -2.4469
   25CHL1  H11B 1812   4.294   3.763   9.956 -1.7338 -0.5765 -0.9343
   25CHL1    C9 1813   4.451   3.914   9.940  0.0436  0.1080  0.2084
   25CHL1    H9 1814   4.521   3.828   9.945  0.2733  0.3249  0.6829
   25CHL1   C10 1815   4.449   3.966  10.082  0.9446  0.1755  0.3012
   25CHL1   C19 1816   4.337   4.083  10.098  0.2840 -0.3114 -0.5901
   25CHL1  H19A 1817   4.352   4.158  10.018 -0.2172  1.8492  1.2950
   25CHL1  H19B 1818   4.236   4.036  10.092  0.2180 -0.1824 -0.4863
   25CHL1  H19C 1819   4.340   4.118  10.203 -2.8973 -0.2991 -0.4524
   25CHL1    C1 1820   4.399   3.836  10.171  0.2305  0.4164  0.0802
   25CHL1   H1A 1821   4.291   3.823  10.153  0.2606 -0.5905  0.6382
   25CHL1   H1B 1822   4.451   3.744  10.136 -0.9914 -0.6043  0.9297
   25CHL1    C2 1823   4.429   3.864  10.315  0.0307  0.5849 -0.1430
   25CHL1   H2A 1824   4.414   3.766  10.365  0.7052  0.4291 -0.2547
   25CHL1   H2B 1825   4.348   3.931  10.353  0.4039  0.1616  1.4669
   25CHL1   C20 1826   4.314   3.849   9.397 -0.5110  0.3692 -0.7197
   25CHL1   H20 1827   4.248   3.936   9.380 -2.1410 -1.0089 -1.6149
   25CHL1   C21 1828   4.227   3.733   9.440 -0.4284 -0.4174 -0.3444
   25CHL1  H21A 1829   4.154   3.774   9.513  0.6702  0.6518  0.1767
   25CHL1  H21B 1830   4.298   3.659   9.483  2.5384  2.0033 -0.8586
   25CHL1  H21C 1831   4.172   3.690   9.354 -0.2195  0.0453 -0.7144
   25CHL1   C22 1832   4.372   3.820   9.257 -0.0103  0.1416  1.1964
   25CHL1  H22A 1833   4.463   3.878   9.229  0.7884 -1.3894  0.5756
   25CHL1  H22B 1834   4.396   3.712   9.244 -0.9630  0.1030 -0.3180
   25CHL1   C23 1835   4.262   3.855   9.159  0.3083 -0.4884 -0.3699
   25CHL1  H23A 1836   4.170   3.794   9.170 -1.5289  1.8312 -2.3948
   25CHL1  H23B 1837   4.229   3.960   9.172 -1.3826 -0.8792 -1.4257
   25CHL1   C24 1838   4.309   3.834   9.013 -0.2047  0.0158 -0.2378
   25CHL1  H24A 1839   4.419   3.844   9.012 -0.2824  1.0827  0.9158
   25CHL1  H24B 1840   4.281   3.730   8.984 -0.1413 -0.4314  1.2762
   25CHL1   C25 1841   4.255   3.935   8.919  0.4316 -0.1732  0.9572
   25CHL1   H25 1842   4.281   4.034   8.963  0.9407 -0.4016  1.1703
   25CHL1   C26 1843   4.321   3.934   8.781 -0.1373 -0.0157  0.1117
   25CHL1  H26A 1844   4.310   4.031   8.727 -3.8398 -0.2142  0.4010
   25CHL1  H26B 1845   4.430   3.913   8.790 -0.3366 -1.5377 -0.8018
   25CHL1  H26C 1846   4.303   3.845   8.717  1.5517 -1.6560  1.8470
   25CHL1   C27 1847   4.096   3.930   8.898  0.2844 -0.4010  0.4646
   25CHL1  H27A 1848   4.061   4.019   8.841  4.0028  0.0812 -1.2100
   25CHL1  H27B 1849   4.067   3.839   8.842 -1.4947 -1.1947  2.6146
   25CHL1  H27C 1850   4.040   3.924   8.994 -0.8436  0.6019 -0.1109
   26CHL1    C3 1851   5.527   6.782  10.239 -0.2617 -0.3330  0.3708
   26CHL1    H3 1852   5.531   6.893  10.244  0.8959 -0.3945  0.8127
   26CHL1    O3 1853   5.525   6.731  10.371 -0.1053  0.0809  0.2822
   26CHL1   H3' 1854   5.461   6.660  10.360 -0.2213  0.1100  0.7567
   26CHL1    C4 1855   5.395   6.743  10.169 -0.1772  0.1894  0.4493
   26CHL1   H4A 1856   5.399   6.632  10.179  3.9606 -0.0474 -2.3163
   26CHL1   H4B 1857   5.303   6.780  10.219  0.7132  1.2118  1.3640
   26CHL1    C5 1858   5.403   6.786  10.025  0.5337 -0.9706 -0.1077
   26CHL1    C6 1859   5.317   6.880   9.982 -0.2027  0.0980  0.5315
   26CHL1    H6 1860   5.239   6.918  10.049  1.1372  0.8133  1.7163
   26CHL1    C7 1861   5.320   6.939   9.840 -0.1230 -0.9545 -0.1318
   26CHL1   H7A 1862   5.214   6.945   9.808  0.0693  0.5725 -0.4873
   26CHL1   H7B 1863   5.358   7.043   9.838  1.0378 -1.3893 -2.9483
   26CHL1    C8 1864   5.396   6.841   9.744 -0.8913  0.4372 -0.1581
   26CHL1    H8 1865   5.333   6.750   9.735 -1.2220  0.4754  1.6341
   26CHL1   C14 1866   5.406   6.906   9.607 -0.1316 -0.6154  0.5034
   26CHL1   H14 1867   5.458   7.005   9.611  0.2194 -0.6679 -2.1157
   26CHL1   C15 1868   5.270   6.939   9.540  0.0329 -0.0664 -0.3147
   26CHL1  H15A 1869   5.195   6.858   9.548 -2.0016  1.8320  0.2685
   26CHL1  H15B 1870   5.222   7.032   9.578  0.0066 -0.2292  0.0494
   26CHL1   C16 1871   5.295   6.953   9.391  0.0715  0.6692  0.2136
   26CHL1  H16A 1872   5.236   6.872   9.344  0.4631  1.1320 -1.0947
   26CHL1  H16B 1873   5.272   7.045   9.334 -0.5501  0.3521 -0.0568
   26CHL1   C17 1874   5.451   6.919   9.374  0.4839 -0.4831  0.1286
   26CHL1   H17 1875   5.518   7.005   9.392 -0.4265  0.9572 -2.9190
   26CHL1   C13 1876   5.486   6.833   9.504 -0.3104 -0.1263  0.2445
   26CHL1   C18 1877   5.423   6.692   9.481 -0.4544  0.6220  0.5772
   26CHL1  H18A 1878   5.320   6.691   9.438 -0.3762  1.6864  0.3477
   26CHL1  H18B 1879   5.484   6.638   9.405 -1.6206  0.4278 -0.2442
   26CHL1  H18C 1880   5.412   6.638   9.577 -4.5462  0.4456  0.1067
   26CHL1   C12 1881   5.632   6.813   9.553 -0.4411 -0.4545  0.8705
   26CHL1  H12A 1882   5.696   6.742   9.496  0.8471  1.8501 -0.6071
   26CHL1  H12B 1883   5.676   6.914   9.546 -0.3466 -0.6066 -0.9234
   26CHL1   C11 1884   5.644   6.764   9.701 -0.1914  0.2404  0.0150
   26CHL1  H11A 1885   5.618   6.657   9.683  1.7975 -0.8380  3.2460
   26CHL1  H11B 1886   5.744   6.786   9.742 -0.4713 -0.0737  0.8841
   26CHL1    C9 1887   5.536   6.818   9.802  0.0992  0.0228  0.4326
   26CHL1    H9 1888   5.576   6.921   9.816  0.7345  0.0519 -1.4815
   26CHL1   C10 1889   5.525   6.743   9.942  0.3891 -0.1881  0.5451
   26CHL1   C19 1890   5.506   6.591   9.919 -0.4245  0.7872 -0.0579
   26CHL1  H19A 1891   5.485   6.539  10.015  2.0907  2.3637  1.4193
   26CHL1  H19B 1892   5.426   6.580   9.844 -0.0903 -1.4527 -0.1213
   26CHL1  H19C 1893   5.597   6.548   9.871 -2.2479 -2.9607 -0.2873
   26CHL1    C1 1894   5.650   6.772  10.024 -0.6725 -0.2864 -0.4028
   26CHL1   H1A 1895   5.740   6.730   9.973  0.1089  0.1037  0.6483
   26CHL1   H1B 1896   5.678   6.879  10.023 -0.3800 -0.3152  2.1069
   26CHL1    C2 1897   5.650   6.724  10.170  0.1650 -0.2387 -0.0684
   26CHL1   H2A 1898   5.745   6.763  10.212  0.7610 -1.4035 -0.2974
   26CHL1   H2B 1899   5.645   6.613  10.179  0.1501 -0.2878 -0.6521
   26CHL1   C20 1900   5.470   6.862   9.233  0.0497 -0.1340 -0.4597
   26CHL1   H20 1901   5.405   6.776   9.211 -2.0819  1.7005 -1.5049
   26CHL1   C21 1902   5.624   6.813   9.231 -0.9327  0.1461 -0.5903
   26CHL1  H21A 1903   5.652   6.738   9.307  2.7808  1.0329 -0.9597
   26CHL1  H21B 1904   5.695   6.898   9.243  1.1660 -1.7161  0.4542
   26CHL1  H21C 1905   5.665   6.768   9.138 -1.9486  0.0725 -1.0099
   26CHL1   C22 1906   5.441   6.960   9.113  0.3380  0.4720 -0.2779
   26CHL1  H22A 1907   5.331   6.969   9.104  0.1193  0.3978  2.1408
   26CHL1  H22B 1908   5.487   7.060   9.126  0.4571  0.6151 -1.7268
   26CHL1   C23 1909   5.489   6.898   8.976 -0.4735  0.7320 -0.4136
   26CHL1  H23A 1910   5.598   6.879   8.991 -0.8464 -0.5341  0.8242
   26CHL1  H23B 1911   5.433   6.807   8.949 -1.8564  2.1606 -2.4843
   26CHL1   C24 1912   5.476   7.002   8.863  0.7018  0.2443 -0.0468
   26CHL1  H24A 1913   5.392   7.069   8.894  1.9428  1.3918  0.9337
   26CHL1  H24B 1914   5.553   7.082   8.870  0.6398  0.2706  0.3449
   26CHL1   C25 1915   5.446   6.938   8.727  0.1813 -0.2032 -0.5138
   26CHL1   H25 1916   5.360   6.870   8.738 -1.3972  1.5615 -1.7120
   26CHL1   C26 1917   5.413   7.054   8.622 -0.7588  0.2262  0.0349
   26CHL1  H26A 1918   5.506   7.114   8.616 -0.3415 -0.3390  0.8131
   26CHL1  H26B 1919   5.370   7.013   8.529 -1.6484  0.5952  0.2752
   26CHL1  H26C 1920   5.329   7.109   8.671 -0.6421  0.6671 -0.2628
   26CHL1   C27 1921   5.553   6.847   8.668  0.9417 -0.3125 -0.7532
   26CHL1  H27A 1922   5.573   6.750   8.720  2.2107 -0.0116 -0.6633
   26CHL1  H27B 1923   5.513   6.817   8.569  0.5987 -0.9308 -0.4334
   26CHL1  H27C 1924   5.650   6.898   8.652 -0.2859  1.7405 -1.7878
   27CHL1    C3 1925   5.299   4.012  10.471  0.1671 -0.3732 -0.0480
   27CHL1    H3 1926   5.397   4.063  10.459 -0.5263  1.0666  0.1533
   27CHL1    O3 1927   5.278   3.997  10.612 -0.2298  0.3058 -0.2777
   27CHL1   H3' 1928   5.208   3.932  10.620  0.3762 -0.3751 -0.4618
   27CHL1    C4 1929   5.181   4.099  10.421 -0.2967 -0.3145  0.2317
   27CHL1   H4A 1930   5.092   4.050  10.466 -0.1468 -0.2513  0.5958
   27CHL1   H4B 1931   5.190   4.197  10.472  1.1913  0.0026 -0.6056
   27CHL1    C5 1932   5.174   4.128  10.273 -0.5264  0.4006  0.7752
   27CHL1    C6 1933   5.172   4.248  10.220  0.4150  0.4130  0.4030
   27CHL1    H6 1934   5.177   4.336  10.286  1.4414  1.7110 -1.3439
   27CHL1    C7 1935   5.158   4.285  10.072  0.3885 -0.1539 -0.2919
   27CHL1   H7A 1936   5.085   4.368  10.058  0.3302  0.2606  2.1941
   27CHL1   H7B 1937   5.254   4.331  10.038 -1.4988  2.1009 -2.7412
   27CHL1    C8 1938   5.127   4.164   9.989  0.2651  0.0493  0.3972
   27CHL1    H8 1939   5.018   4.149   9.996  0.3281 -0.2180  0.7993
   27CHL1   C14 1940   5.171   4.201   9.844 -0.0039 -0.6810 -0.9379
   27CHL1   H14 1941   5.279   4.225   9.848 -0.6281  2.0524  1.7537
   27CHL1   C15 1942   5.105   4.327   9.779  0.6013 -0.0827 -0.1429
   27CHL1  H15A 1943   4.996   4.336   9.798  0.2886 -0.8903 -1.5026
   27CHL1  H15B 1944   5.140   4.429   9.806  2.0369 -1.1108  2.0151
   27CHL1   C16 1945   5.121   4.293   9.629  0.3839 -1.0161 -0.1852
   27CHL1  H16A 1946   5.015   4.288   9.598 -0.0580 -2.9297  1.5033
   27CHL1  H16B 1947   5.186   4.368   9.579 -1.0987 -0.3211 -1.0874
   27CHL1   C17 1948   5.190   4.155   9.625 -0.1041 -1.0188 -0.0213
   27CHL1   H17 1949   5.298   4.180   9.637 -0.8852  2.6592 -0.1392
   27CHL1   C13 1950   5.146   4.086   9.749 -0.5846  0.1175  0.0916
   27CHL1   C18 1951   4.995   4.050   9.730 -0.3754 -0.1321 -0.5638
   27CHL1  H18A 1952   4.952   4.007   9.822 -0.4950 -0.0121 -0.5636
   27CHL1  H18B 1953   4.923   4.125   9.690  1.3176  1.5078 -0.6428
   27CHL1  H18C 1954   4.989   3.960   9.665 -0.1625 -0.4440 -0.1532
   27CHL1   C12 1955   5.222   3.958   9.789  0.2439  0.0213  0.4834
   27CHL1  H12A 1956   5.205   3.874   9.717  2.9601  0.9429 -1.3015
   27CHL1  H12B 1957   5.330   3.981   9.782  0.0442  0.3128 -2.4029
   27CHL1   C11 1958   5.185   3.914   9.937 -0.0438 -0.5188 -0.2418
   27CHL1  H11A 1959   5.078   3.887   9.929 -0.3232  0.8937 -1.4940
   27CHL1  H11B 1960   5.239   3.818   9.954 -0.2454 -0.0580  3.4319
   27CHL1    C9 1961   5.195   4.034  10.038  0.1582  0.0074 -0.3592
   27CHL1    H9 1962   5.301   4.066  10.027 -0.4872  1.8432 -1.6981
   27CHL1   C10 1963   5.172   3.995  10.191 -0.4369 -0.9246 -0.8317
   27CHL1   C19 1964   5.028   3.934  10.200  0.0007  0.0639  0.3231
   27CHL1  H19A 1965   4.971   4.008  10.140  0.3284 -1.3409 -1.7803
   27CHL1  H19B 1966   5.027   3.829  10.162  2.8399 -0.0787  0.5325
   27CHL1  H19C 1967   4.989   3.924  10.304 -0.7928 -1.0326 -0.0618
   27CHL1    C1 1968   5.281   3.898  10.246  0.1141 -0.4242  0.3040
   27CHL1   H1A 1969   5.251   3.802  10.200 -1.1461  0.1505 -0.1124
   27CHL1   H1B 1970   5.381   3.934  10.213  1.3892 -1.9718  2.3644
   27CHL1    C2 1971   5.300   3.880  10.401 -0.0666  0.4773 -0.1716
   27CHL1   H2A 1972   5.397   3.827  10.414 -1.2857 -1.6108  0.5863
   27CHL1   H2B 1973   5.215   3.821  10.440  0.6171 -2.0279 -2.2835
   27CHL1   C20 1974   5.176   4.086   9.489 -0.1378  0.6022 -0.9277
   27CHL1   H20 1975   5.208   3.980   9.499 -0.1376  0.4982 -1.9595
   27CHL1   C21 1976   5.287   4.151   9.400 -0.2270 -0.3166  0.5417
   27CHL1  H21A 1977   5.267   4.254   9.363  0.1457 -0.5232 -0.2656
   27CHL1  H21B 1978   5.285   4.086   9.310 -5.6215  1.2738 -0.6553
   27CHL1  H21C 1979   5.389   4.145   9.443  0.0665  1.1469  0.0767
   27CHL1   C22 1980   5.043   4.097   9.414  0.5730  0.8822  0.1765
   27CHL1  H22A 1981   4.958   4.054   9.470  0.3259 -1.2815 -1.7456
   27CHL1  H22B 1982   5.020   4.201   9.385  0.0048  0.4705 -0.9026
   27CHL1   C23 1983   5.039   3.998   9.287  0.3559  0.0308  0.5522
   27CHL1  H23A 1984   5.108   4.038   9.210 -2.4005 -0.6176 -2.3844
   27CHL1  H23B 1985   5.082   3.898   9.308 -0.0518 -0.0422  1.0401
   27CHL1   C24 1986   4.899   4.000   9.226  0.3829  0.3702  0.3328
   27CHL1  H24A 1987   4.838   3.947   9.302 -0.0499 -3.0061 -2.2752
   27CHL1  H24B 1988   4.855   4.099   9.203 -1.2414 -0.3590  0.2174
   27CHL1   C25 1989   4.887   3.931   9.091 -0.0537 -0.0045  0.4464
   27CHL1   H25 1990   4.938   3.833   9.099 -1.0277 -0.6122 -0.6728
   27CHL1   C26 1991   4.738   3.898   9.061 -0.5305 -0.5426 -0.9157
   27CHL1  H26A 1992   4.702   3.813   9.123 -0.9602  0.4550  0.2163
   27CHL1  H26B 1993   4.672   3.987   9.057  0.4375  0.2616  0.4927
   27CHL1  H26C 1994   4.744   3.866   8.954  2.1413  0.4780 -1.0998
   27CHL1   C27 1995   4.950   4.026   8.986 -1.0811 -0.0207 -0.0994
   27CHL1  H27A 1996   5.058   4.040   9.008 -0.5747 -1.2312 -1.6874
   27CHL1  H27B 1997   4.943   3.985   8.883  0.3994  1.6810 -0.9030
   27CHL1  H27C 1998   4.905   4.127   8.986 -0.5605  0.2168  0.3546
   28CHL1    C3 1999   3.803   2.403  10.195 -0.7119  0.5680  0.5618
   28CHL1    H3 2000   3.807   2.293  10.205  2.2807  0.4999 -0.9074
   28CHL1    O3 2001   3.777   2.459  10.321  0.4561 -0.1641  0.1116
   28CHL1   H3' 2002   3.774   2.552  10.296  0.8872 -0.2221 -0.1639
   28CHL1    C4 2003   3.926   2.455  10.131  0.2312  0.2978 -0.0973
   28CHL1   H4A 2004   3.918   2.566  10.127  1.4097  0.3357 -2.7388
   28CHL1   H4B 2005   4.013   2.437  10.198 -0.2903 -0.2277  0.4472
   28CHL1    C5 2006   3.957   2.402   9.990 -0.1747 -0.3803  0.2869
   28CHL1    C6 2007   4.069   2.344   9.954  0.4771  0.0479  0.2333
   28CHL1    H6 2008   4.149   2.338  10.029  2.5820 -1.7678 -2.0482
   28CHL1    C7 2009   4.093   2.283   9.819 -0.0813 -0.0566  0.2342
   28CHL1   H7A 2010   4.197   2.303   9.787  0.1492 -2.2301 -0.4756
   28CHL1   H7B 2011   4.073   2.173   9.818 -0.7922  0.0784 -1.6575
   28CHL1    C8 2012   3.997   2.337   9.709  0.2112  0.0945 -0.1969
   28CHL1    H8 2013   4.023   2.444   9.696  0.4866 -0.0663 -0.9776
   28CHL1   C14 2014   4.010   2.254   9.579  0.0064  0.5050 -0.2523
   28CHL1   H14 2015   3.981   2.153   9.613 -0.5753  1.6042  2.7058
   28CHL1   C15 2016   4.149   2.235   9.509  0.4837 -0.3228  0.3603
   28CHL1  H15A 2017   4.198   2.335   9.510 -1.3671  0.5973  1.3886
   28CHL1  H15B 2018   4.216   2.176   9.576  1.3909  0.3048  0.0225
   28CHL1   C16 2019   4.112   2.170   9.380  0.1599  0.2204 -0.2686
   28CHL1  H16A 2020   4.182   2.208   9.302 -0.3661 -0.6556 -1.1716
   28CHL1  H16B 2021   4.127   2.060   9.387 -1.2216  0.0462  0.0171
   28CHL1   C17 2022   3.959   2.191   9.356  0.5081 -1.2599 -0.1477
   28CHL1   H17 2023   3.909   2.093   9.375  0.8776 -1.2292  1.0143
   28CHL1   C13 2024   3.913   2.287   9.470 -0.5099 -0.6544  0.7053
   28CHL1   C18 2025   3.935   2.426   9.408 -0.0763  0.6122 -0.6844
   28CHL1  H18A 2026   3.925   2.511   9.479 -2.1493 -2.2078  2.6371
   28CHL1  H18B 2027   4.035   2.427   9.359  0.8832  0.7091  1.2228
   28CHL1  H18C 2028   3.857   2.436   9.330 -0.7989 -0.4566 -0.1245
   28CHL1   C12 2029   3.771   2.280   9.525  0.0664 -0.7404  0.1750
   28CHL1  H12A 2030   3.680   2.304   9.466 -1.9411 -0.2557  3.3473
   28CHL1  H12B 2031   3.763   2.173   9.552 -0.6211 -0.3821  1.4392
   28CHL1   C11 2032   3.750   2.366   9.651 -0.2510  0.3279 -0.4833
   28CHL1  H11A 2033   3.764   2.470   9.617  0.4813  0.3041 -0.2804
   28CHL1  H11B 2034   3.641   2.357   9.673 -0.0169 -2.0478 -0.1587
   28CHL1    C9 2035   3.853   2.335   9.766  0.1910  0.0546 -0.3399
   28CHL1    H9 2036   3.839   2.227   9.785 -1.0907  0.8774  3.9294
   28CHL1   C10 2037   3.830   2.412   9.898  0.2010  0.6212  0.3302
   28CHL1   C19 2038   3.822   2.561   9.860 -0.1603  0.4191  0.2724
   28CHL1  H19A 2039   3.908   2.596   9.798 -1.0028  1.8602 -0.1038
   28CHL1  H19B 2040   3.737   2.582   9.792  0.3251 -2.1918 -1.2195
   28CHL1  H19C 2041   3.813   2.628   9.948 -1.0994  0.7315 -0.0482
   28CHL1    C1 2042   3.707   2.354   9.974 -0.4268 -0.9042  0.3677
   28CHL1   H1A 2043   3.625   2.374   9.902 -1.7251  0.9808  2.2967
   28CHL1   H1B 2044   3.726   2.246   9.989  1.7282 -0.6366 -0.2466
   28CHL1    C2 2045   3.678   2.429  10.108  0.1509 -0.3206  0.1330
   28CHL1   H2A 2046   3.598   2.379  10.166  1.1084  0.0462  1.8129
   28CHL1   H2B 2047   3.665   2.539  10.095  1.6733 -0.0468  0.8303
   28CHL1   C20 2048   3.941   2.225   9.204 -0.0637 -0.5268  0.7147
   28CHL1   H20 2049   3.984   2.325   9.182  0.4940 -0.5306  1.7784
   28CHL1   C21 2050   3.789   2.230   9.181 -0.2076 -0.2981  0.7201
   28CHL1  H21A 2051   3.757   2.262   9.079  0.5365 -0.5961  0.3833
   28CHL1  H21B 2052   3.733   2.295   9.250  0.2370  2.1585 -1.1586
   28CHL1  H21C 2053   3.739   2.135   9.208  0.4170 -0.9026 -0.1928
   28CHL1   C22 2054   3.998   2.108   9.119 -0.8164  0.1245  0.1190
   28CHL1  H22A 2055   4.094   2.068   9.159 -0.9572  1.3775  1.7558
   28CHL1  H22B 2056   3.933   2.018   9.126 -2.5926  1.4244  0.7335
   28CHL1   C23 2057   4.017   2.148   8.969  0.2516  0.1833  0.3447
   28CHL1  H23A 2058   3.924   2.192   8.929 -0.8044 -0.9573  1.4837
   28CHL1  H23B 2059   4.097   2.225   8.966 -2.0528  2.5969 -1.4436
   28CHL1   C24 2060   4.067   2.026   8.899 -0.1081 -0.1037 -0.6342
   28CHL1  H24A 2061   4.151   1.979   8.955  0.6951  1.0828 -0.8216
   28CHL1  H24B 2062   3.985   1.953   8.892  0.0977 -0.4492  0.4606
   28CHL1   C25 2063   4.114   2.047   8.754 -0.5330 -0.4686 -0.1951
   28CHL1   H25 2064   4.031   2.100   8.702 -0.2674  1.4344  1.2992
   28CHL1   C26 2065   4.250   2.113   8.740 -0.0212 -1.0760  0.0183
   28CHL1  H26A 2066   4.251   2.223   8.758  0.8587 -1.4475  2.4461
   28CHL1  H26B 2067   4.324   2.069   8.810  3.0980  0.9436 -1.8901
   28CHL1  H26C 2068   4.300   2.099   8.642  0.4281 -0.7374  0.1976
   28CHL1   C27 2069   4.120   1.909   8.693  0.2914 -0.2987  0.4406
   28CHL1  H27A 2070   4.144   1.920   8.585 -1.2812  0.7206  0.1763
   28CHL1  H27B 2071   4.210   1.863   8.739  0.7995 -0.5152 -0.7466
   28CHL1  H27C 2072   4.025   1.853   8.701  0.8890 -1.6832 -1.7093
   29CHL1    C3 2073   5.833   6.777   6.513 -0.5429 -0.2877 -0.2817
   29CHL1    H3 2074   5.890   6.691   6.554  0.8865  1.6555  1.9826
   29CHL1    O3 2075   5.866   6.784   6.376 -0.6969  0.1538 -0.2854
   29CHL1   H3' 2076   5.819   6.860   6.341  0.7670  0.8566 -0.7645
   29CHL1    C4 2077   5.684   6.753   6.524 -1.2422  1.0804  0.4766
   29CHL1   H4A 2078   5.627   6.829   6.468  0.0041 -0.0372 -2.3931
   29CHL1   H4B 2079   5.659   6.663   6.463 -1.2715  0.3516  1.5497
   29CHL1    C5 2080   5.641   6.735   6.671  0.0918 -0.1157 -0.2792
   29CHL1    C6 2081   5.580   6.617   6.702 -0.1213  0.2066  0.5126
   29CHL1    H6 2082   5.547   6.550   6.621 -0.0098  0.2402  0.4404
   29CHL1    C7 2083   5.537   6.591   6.840 -0.9430  0.5164 -0.4582
   29CHL1   H7A 2084   5.432   6.556   6.840 -1.6434  2.4698 -3.2769
   29CHL1   H7B 2085   5.601   6.512   6.886  1.1773  1.9450 -0.8646
   29CHL1    C8 2086   5.550   6.714   6.938  0.2373 -0.1476 -0.4116
   29CHL1    H8 2087   5.459   6.775   6.917  0.4843  0.6091  0.6579
   29CHL1   C14 2088   5.541   6.673   7.081  0.0164 -0.4624 -0.1190
   29CHL1   H14 2089   5.641   6.631   7.102  1.1046  1.1042 -2.0515
   29CHL1   C15 2090   5.450   6.564   7.128  0.0603 -0.4859  0.2857
   29CHL1  H15A 2091   5.352   6.578   7.077  0.5222  3.8231  0.3758
   29CHL1  H15B 2092   5.477   6.459   7.104 -1.0308 -0.6835 -0.1011
   29CHL1   C16 2093   5.439   6.578   7.280  0.2251  0.1906  0.6337
   29CHL1  H16A 2094   5.332   6.584   7.307  0.7685 -1.8842  3.4170
   29CHL1  H16B 2095   5.492   6.503   7.341 -0.2177  1.0672  2.1219
   29CHL1   C17 2096   5.513   6.710   7.310  0.2734 -0.7773 -1.4368
   29CHL1   H17 2097   5.612   6.668   7.336 -0.2044 -0.4521  1.1033
   29CHL1   C13 2098   5.518   6.789   7.177 -0.0086  0.3746  0.1026
   29CHL1   C18 2099   5.383   6.865   7.165 -0.7496 -0.0873 -0.2086
   29CHL1  H18A 2100   5.297   6.801   7.192  1.7000 -2.3908  2.3748
   29CHL1  H18B 2101   5.381   6.964   7.216 -1.1955 -0.3120  0.2086
   29CHL1  H18C 2102   5.363   6.882   7.057 -0.0331 -1.9647 -0.6622
   29CHL1   C12 2103   5.630   6.889   7.154  0.1306 -0.3482 -0.1191
   29CHL1  H12A 2104   5.611   6.983   7.211 -0.1665 -2.0701  2.7339
   29CHL1  H12B 2105   5.726   6.846   7.190 -1.6750 -3.0212  1.7190
   29CHL1   C11 2106   5.637   6.926   7.001 -0.1913  0.6155 -0.8727
   29CHL1  H11A 2107   5.540   6.975   6.979 -1.2660 -0.3135  1.5826
   29CHL1  H11B 2108   5.725   6.993   6.997  2.7378 -2.8454  1.5265
   29CHL1    C9 2109   5.668   6.798   6.909  0.4039  0.5105 -0.5453
   29CHL1    H9 2110   5.760   6.745   6.942 -0.6601 -0.1480  1.4704
   29CHL1   C10 2111   5.696   6.842   6.770  0.0854  0.7414 -0.0685
   29CHL1   C19 2112   5.618   6.976   6.738  0.0761  0.4992 -0.3536
   29CHL1  H19A 2113   5.514   6.951   6.768  1.0200 -3.1574  0.0939
   29CHL1  H19B 2114   5.642   7.066   6.799 -1.5980 -0.0159  1.1138
   29CHL1  H19C 2115   5.621   6.999   6.630 -1.1845 -3.8460 -1.4253
   29CHL1    C1 2116   5.845   6.861   6.745 -0.3637  0.5233  0.6842
   29CHL1   H1A 2117   5.890   6.935   6.814  0.3274  0.5986  0.1586
   29CHL1   H1B 2118   5.909   6.776   6.776 -0.2050  0.0670 -0.8338
   29CHL1    C2 2119   5.888   6.887   6.599  0.6149 -0.6217 -0.2326
   29CHL1   H2A 2120   5.995   6.914   6.588  0.5561 -1.0951 -2.0302
   29CHL1   H2B 2121   5.837   6.978   6.559  0.5600  0.5562  2.4220
   29CHL1   C20 2122   5.468   6.789   7.440 -0.1852  0.6140 -0.0037
   29CHL1   H20 2123   5.368   6.831   7.419 -2.5838 -5.1585 -1.2803
   29CHL1   C21 2124   5.562   6.903   7.476 -0.3700  0.8996 -0.4669
   29CHL1  H21A 2125   5.557   6.991   7.409 -0.2751  1.7709  0.6575
   29CHL1  H21B 2126   5.667   6.869   7.485  0.5736  3.7018 -0.4776
   29CHL1  H21C 2127   5.535   6.952   7.571 -0.3126  1.1167 -0.5627
   29CHL1   C22 2128   5.451   6.700   7.570 -0.0493  0.5731 -0.8513
   29CHL1  H22A 2129   5.369   6.627   7.551 -0.4605  1.0510 -0.9276
   29CHL1  H22B 2130   5.544   6.640   7.578  0.0496  0.6668 -1.2596
   29CHL1   C23 2131   5.417   6.769   7.702  0.1064  0.6483 -0.3385
   29CHL1  H23A 2132   5.506   6.832   7.723 -0.7077  2.5740 -2.3931
   29CHL1  H23B 2133   5.326   6.830   7.685 -0.7340 -0.1347  1.2325
   29CHL1   C24 2134   5.395   6.671   7.815 -0.5781  0.2623  0.5875
   29CHL1  H24A 2135   5.322   6.592   7.787  0.6699 -0.6279 -0.2201
   29CHL1  H24B 2136   5.485   6.608   7.833 -0.8223 -0.1246  0.4538
   29CHL1   C25 2137   5.356   6.716   7.950 -0.3533  0.3320  0.2880
   29CHL1   H25 2138   5.252   6.755   7.948  0.3225  2.2289  1.1320
   29CHL1   C26 2139   5.358   6.601   8.055  0.0956  0.7448 -0.8240
   29CHL1  H26A 2140   5.281   6.530   8.017  0.2090  0.9687 -1.4660
   29CHL1  H26B 2141   5.459   6.556   8.061 -0.2938 -0.0264  0.1282
   29CHL1  H26C 2142   5.332   6.629   8.160 -1.2498 -0.7954 -0.7265
   29CHL1   C27 2143   5.444   6.836   7.990  0.2909 -0.0648 -0.3529
   29CHL1  H27A 2144   5.550   6.804   7.997  0.5531  0.9565  0.5232
   29CHL1  H27B 2145   5.436   6.927   7.927 -1.1239 -0.1334 -0.2871
   29CHL1  H27C 2146   5.408   6.871   8.089 -0.9987 -1.4307 -0.3281
   30CHL1    C3 2147   3.642   5.880   7.066 -0.2119  0.2730  0.3475
   30CHL1    H3 2148   3.592   5.785   7.096  0.1316  0.0771  0.2955
   30CHL1    O3 2149   3.610   5.903   6.925 -0.8259 -0.5958  0.4050
   30CHL1   H3' 2150   3.660   5.979   6.895 -2.9499 -0.4905 -3.1350
   30CHL1    C4 2151   3.611   5.996   7.148  0.2370  0.2310 -0.6269
   30CHL1   H4A 2152   3.664   6.079   7.096 -0.1243  2.1987  1.9948
   30CHL1   H4B 2153   3.501   6.010   7.135 -0.5054 -4.0023  0.2948
   30CHL1    C5 2154   3.653   5.982   7.294 -0.4708  0.5931 -0.2774
   30CHL1    C6 2155   3.566   5.976   7.400  0.1409  0.1354 -0.2197
   30CHL1    H6 2156   3.458   5.988   7.381  0.0822  0.1836  0.1289
   30CHL1    C7 2157   3.602   5.966   7.553  0.0456 -0.1495  0.6102
   30CHL1   H7A 2158   3.536   6.030   7.615  2.4398 -0.1800  3.2876
   30CHL1   H7B 2159   3.574   5.867   7.596 -3.4233  0.0550 -1.0054
   30CHL1    C8 2160   3.755   6.000   7.565 -0.7990 -0.1390  0.1578
   30CHL1    H8 2161   3.765   6.110   7.548  0.2263  0.2340  2.9497
   30CHL1   C14 2162   3.799   5.961   7.707  0.8016  0.8120 -0.6656
   30CHL1   H14 2163   3.792   5.851   7.716  0.3398  0.6824 -2.3229
   30CHL1   C15 2164   3.723   6.025   7.825  0.2822  0.3256  0.2896
   30CHL1  H15A 2165   3.712   6.134   7.806  2.6006  0.8629  1.8526
   30CHL1  H15B 2166   3.622   5.984   7.847  0.1877 -0.1766 -0.9861
   30CHL1   C16 2167   3.815   5.993   7.938 -0.5544  0.1314  0.3762
   30CHL1  H16A 2168   3.831   6.089   7.992  1.5098 -0.7566  1.4125
   30CHL1  H16B 2169   3.776   5.909   8.000  0.8684  0.6502  2.0106
   30CHL1   C17 2170   3.954   5.947   7.886 -0.0224  0.3171 -0.4572
   30CHL1   H17 2171   3.959   5.837   7.900 -2.2521  0.0928 -1.2386
   30CHL1   C13 2172   3.945   5.975   7.736  0.4893 -0.3245 -0.3839
   30CHL1   C18 2173   3.985   6.124   7.713  0.7794  0.9004  0.2754
   30CHL1  H18A 2174   3.959   6.154   7.609 -2.6587 -0.8048  0.5777
   30CHL1  H18B 2175   3.931   6.194   7.780 -0.3918  0.6525 -0.3908
   30CHL1  H18C 2176   4.096   6.132   7.715  0.7633  0.8380  2.2477
   30CHL1   C12 2177   4.015   5.883   7.647  0.0778  0.3706  0.4921
   30CHL1  H12A 2178   4.126   5.885   7.652  0.0063 -0.8411  3.4816
   30CHL1  H12B 2179   3.992   5.778   7.673  0.6584  0.3558  0.9657
   30CHL1   C11 2180   3.987   5.910   7.494 -0.0606  0.1487 -0.2924
   30CHL1  H11A 2181   4.039   6.008   7.487  2.1270 -0.8309  1.8702
   30CHL1  H11B 2182   4.027   5.837   7.420 -0.1800  0.1993 -0.4086
   30CHL1    C9 2183   3.835   5.921   7.463 -0.5855 -0.0413 -1.0342
   30CHL1    H9 2184   3.794   5.819   7.476 -1.1446  0.1432 -1.3204
   30CHL1   C10 2185   3.805   5.963   7.314 -0.3802  0.2617 -0.2505
   30CHL1   C19 2186   3.883   6.095   7.284  0.0004 -0.4122 -0.2097
   30CHL1  H19A 2187   3.846   6.144   7.192  0.0049 -0.9084 -0.4777
   30CHL1  H19B 2188   3.859   6.167   7.365 -2.3987  0.7712 -1.9211
   30CHL1  H19C 2189   3.992   6.073   7.275  0.5860  2.7477 -1.4042
   30CHL1    C1 2190   3.853   5.847   7.215 -0.0425  0.3960  0.2856
   30CHL1   H1A 2191   3.963   5.840   7.203 -0.0713 -1.1432  0.7920
   30CHL1   H1B 2192   3.817   5.750   7.256  0.4784  0.4961  0.9863
   30CHL1    C2 2193   3.797   5.861   7.067 -0.5784 -0.1668 -0.1368
   30CHL1   H2A 2194   3.832   5.772   7.011 -0.8127  1.4370 -2.9003
   30CHL1   H2B 2195   3.851   5.948   7.022 -2.4426  0.5878 -0.9710
   30CHL1   C20 2196   4.067   5.987   7.968  1.3020 -0.0596  0.0933
   30CHL1   H20 2197   4.087   6.097   7.959  0.2882  0.0434 -0.9381
   30CHL1   C21 2198   4.193   5.908   7.936  0.5500  0.1285 -0.8359
   30CHL1  H21A 2199   4.191   5.797   7.927  3.8350 -0.0304 -0.2439
   30CHL1  H21B 2200   4.276   5.925   8.008 -2.0133  0.5960  2.0707
   30CHL1  H21C 2201   4.229   5.946   7.838  0.5730  1.8538 -0.1710
   30CHL1   C22 2202   4.044   5.987   8.116 -0.2508  0.2920 -0.1299
   30CHL1  H22A 2203   3.941   6.016   8.147 -0.5982 -1.4582  0.3944
   30CHL1  H22B 2204   4.061   5.884   8.152 -0.4553  0.7737  1.3951
   30CHL1   C23 2205   4.144   6.069   8.197  0.0114 -0.3638 -0.1807
   30CHL1  H23A 2206   4.252   6.047   8.182 -0.2721 -1.6375 -0.4148
   30CHL1  H23B 2207   4.131   6.178   8.176 -0.5736 -0.3884  0.0476
   30CHL1   C24 2208   4.112   6.050   8.348  0.4605 -0.0509 -0.8160
   30CHL1  H24A 2209   4.003   6.060   8.368  0.1935 -0.4768 -1.9835
   30CHL1  H24B 2210   4.153   5.949   8.369 -1.2907 -0.3770  1.1853
   30CHL1   C25 2211   4.174   6.157   8.431  0.7663 -0.0495  0.1245
   30CHL1   H25 2212   4.275   6.172   8.388  0.4005 -1.7807 -1.3770
   30CHL1   C26 2213   4.108   6.296   8.414 -0.2607  0.2158 -0.0947
   30CHL1  H26A 2214   4.147   6.372   8.485 -0.7807 -0.3736  0.8377
   30CHL1  H26B 2215   4.110   6.338   8.311  0.0906 -0.2865 -0.2912
   30CHL1  H26C 2216   3.999   6.281   8.430 -0.4550 -0.6759 -2.1312
   30CHL1   C27 2217   4.174   6.113   8.574 -0.0448 -0.3403 -0.0108
   30CHL1  H27A 2218   4.238   6.185   8.631 -2.6394  2.1507 -0.1431
   30CHL1  H27B 2219   4.072   6.133   8.612 -1.1092 -3.7617 -0.8911
   30CHL1  H27C 2220   4.212   6.010   8.589  3.1480  0.7178 -0.3476
   31CHL1    C3 2221   2.936   1.395   6.694 -0.3847 -0.6211 -1.0837
   31CHL1    H3 2222   3.046   1.380   6.685  0.1087  2.0293  0.3446
   31CHL1    O3 2223   2.873   1.383   6.567  0.0779  0.1983 -0.1321
   31CHL1   H3' 2224   2.817   1.461   6.575  1.9716  1.7109 -0.9900
   31CHL1    C4 2225   2.876   1.286   6.780  0.1677 -0.5778 -0.1890
   31CHL1   H4A 2226   2.767   1.303   6.763  0.3319 -0.2808 -0.9578
   31CHL1   H4B 2227   2.909   1.191   6.733  1.4429  0.0469 -0.5556
   31CHL1    C5 2228   2.907   1.292   6.929 -0.4641  0.3994 -0.2652
   31CHL1    C6 2229   2.959   1.186   6.991  0.1165  0.7285  0.2107
   31CHL1    H6 2230   2.938   1.090   6.942 -1.9054  1.5197 -0.5278
   31CHL1    C7 2231   2.985   1.183   7.138  0.0307  0.1167  0.4985
   31CHL1   H7A 2232   2.928   1.094   7.173 -1.3630  1.8343  2.6738
   31CHL1   H7B 2233   3.094   1.168   7.154  0.6396  1.3900 -2.1599
   31CHL1    C8 2234   2.936   1.310   7.217  0.5685 -0.4756  0.2612
   31CHL1    H8 2235   2.826   1.298   7.226  0.4923 -3.3412 -3.2440
   31CHL1   C14 2236   3.006   1.311   7.355  0.4685  0.1798 -0.3506
   31CHL1   H14 2237   3.114   1.298   7.333  0.8468 -2.0688  2.5028
   31CHL1   C15 2238   2.977   1.202   7.452 -0.0861 -0.0935  1.0614
   31CHL1  H15A 2239   2.866   1.199   7.450 -0.1023  0.9560 -2.3855
   31CHL1  H15B 2240   3.008   1.099   7.428  1.8126  0.9638 -1.1774
   31CHL1   C16 2241   3.034   1.255   7.577  0.7815 -0.3067 -0.1758
   31CHL1  H16A 2242   2.958   1.264   7.658  0.9060  0.3940 -0.1380
   31CHL1  H16B 2243   3.117   1.192   7.616  0.5885  0.0229  0.7879
   31CHL1   C17 2244   3.079   1.405   7.553  0.0711 -0.9260  0.2061
   31CHL1   H17 2245   3.183   1.400   7.516  0.8441  0.4875  2.1626
   31CHL1   C13 2246   3.002   1.444   7.432 -0.0209 -0.6592  0.0124
   31CHL1   C18 2247   2.849   1.470   7.466  0.3033  0.9967 -0.0579
   31CHL1  H18A 2248   2.774   1.433   7.392  1.6590 -0.9662 -0.4911
   31CHL1  H18B 2249   2.826   1.411   7.557  1.6417  0.0381 -0.3340
   31CHL1  H18C 2250   2.835   1.578   7.485 -2.5033  1.0654 -2.1441
   31CHL1   C12 2251   3.051   1.562   7.349 -0.1131  0.1684  0.2756
   31CHL1  H12A 2252   3.021   1.654   7.404 -2.7768  0.6739 -1.8918
   31CHL1  H12B 2253   3.162   1.565   7.337  0.3123  0.6986  3.7830
   31CHL1   C11 2254   2.973   1.574   7.217 -0.1506  0.3624  0.0098
   31CHL1  H11A 2255   2.866   1.597   7.238 -0.2640 -0.3001  0.1854
   31CHL1  H11B 2256   3.013   1.653   7.150  0.7028  0.6420  0.8355
   31CHL1    C9 2257   2.977   1.437   7.144  1.0781  0.2101 -0.0566
   31CHL1    H9 2258   3.085   1.418   7.128  0.7866  0.3376 -2.3741
   31CHL1   C10 2259   2.896   1.438   7.002  0.8234  0.0951  0.1173
   31CHL1   C19 2260   2.742   1.459   7.013 -0.2539 -0.0147 -0.4949
   31CHL1  H19A 2261   2.691   1.401   7.093 -2.2411 -0.5101 -2.0713
   31CHL1  H19B 2262   2.732   1.563   7.051 -2.5145 -0.4600  0.2026
   31CHL1  H19C 2263   2.687   1.447   6.917 -0.6909 -2.5753  0.0268
   31CHL1    C1 2264   2.955   1.548   6.905  0.2824  0.0957 -0.5960
   31CHL1   H1A 2265   2.925   1.650   6.937  1.3620  0.3187 -0.2459
   31CHL1   H1B 2266   3.064   1.532   6.922  0.5894 -0.0987 -2.6799
   31CHL1    C2 2267   2.925   1.536   6.755 -0.2572 -0.0019  0.1633
   31CHL1   H2A 2268   2.996   1.597   6.695 -0.3834 -0.1008 -0.0907
   31CHL1   H2B 2269   2.817   1.563   6.748 -0.1321 -0.0051 -2.3979
   31CHL1   C20 2270   3.068   1.486   7.685 -0.4949  0.0281  0.4849
   31CHL1   H20 2271   2.962   1.495   7.719 -0.4279  0.7441  0.5132
   31CHL1   C21 2272   3.115   1.623   7.668 -0.3711 -0.4913  0.3676
   31CHL1  H21A 2273   3.049   1.685   7.604  1.7676  0.1123 -1.2703
   31CHL1  H21B 2274   3.214   1.615   7.619 -0.4421  0.2762  0.0969
   31CHL1  H21C 2275   3.124   1.673   7.767 -2.0703  0.9156 -0.1548
   31CHL1   C22 2276   3.133   1.412   7.805 -0.2048  0.0612  0.3744
   31CHL1  H22A 2277   3.118   1.469   7.899  0.3107  0.5385  0.1735
   31CHL1  H22B 2278   3.100   1.310   7.833 -0.9424  0.2838  0.3231
   31CHL1   C23 2279   3.284   1.387   7.780  0.9288 -0.2907 -0.0377
   31CHL1  H23A 2280   3.304   1.320   7.694 -2.3045 -0.8891 -0.3633
   31CHL1  H23B 2281   3.342   1.479   7.754 -1.9841  1.2264 -1.3454
   31CHL1   C24 2282   3.347   1.326   7.902 -0.0346 -0.0233 -0.1306
   31CHL1  H24A 2283   3.363   1.405   7.978  0.2041 -0.9589  0.8009
   31CHL1  H24B 2284   3.287   1.243   7.944  2.3390 -1.2071  0.9788
   31CHL1   C25 2285   3.487   1.271   7.878 -0.0693  0.3825  0.9928
   31CHL1   H25 2286   3.555   1.341   7.823  3.0204 -1.7582  1.9460
   31CHL1   C26 2287   3.556   1.269   8.014 -0.1411 -0.0539 -0.1139
   31CHL1  H26A 2288   3.653   1.217   7.998  0.3153  0.8011 -0.1756
   31CHL1  H26B 2289   3.564   1.372   8.056  2.2685 -1.6098  3.4865
   31CHL1  H26C 2290   3.490   1.210   8.081  0.7864 -1.0424 -0.0673
   31CHL1   C27 2291   3.497   1.129   7.815  0.2315  0.4929 -0.0511
   31CHL1  H27A 2292   3.600   1.088   7.824 -0.0541 -0.1488  0.3182
   31CHL1  H27B 2293   3.464   1.124   7.709  0.6816 -0.8010 -0.1414
   31CHL1  H27C 2294   3.427   1.064   7.871 -0.2568  0.9027 -0.1799
   32CHL1    C3 2295   3.991   6.680   6.933  0.1023  0.1306 -0.0280
   32CHL1    H3 2296   3.915   6.755   6.962 -0.0764  1.0214 -2.6300
   32CHL1    O3 2297   3.995   6.666   6.796  0.3355 -0.3652 -0.2149
   32CHL1   H3' 2298   4.062   6.599   6.783  2.2391  0.9191  2.4307
   32CHL1    C4 2299   4.129   6.735   6.977  0.3880 -0.1477 -0.3681
   32CHL1   H4A 2300   4.206   6.669   6.932 -0.4357 -2.5342  1.5650
   32CHL1   H4B 2301   4.142   6.833   6.927 -1.2376  0.7917  0.9853
   32CHL1    C5 2302   4.138   6.732   7.126  0.0343 -0.3342  0.0132
   32CHL1    C6 2303   4.176   6.852   7.189  0.6076 -0.3043  0.2359
   32CHL1    H6 2304   4.210   6.941   7.133 -1.5878 -0.2704 -1.0838
   32CHL1    C7 2305   4.186   6.858   7.334 -0.0785 -0.8036 -0.5008
   32CHL1   H7A 2306   4.273   6.921   7.364 -1.7073  1.5768 -0.5792
   32CHL1   H7B 2307   4.101   6.909   7.385 -0.2155 -0.3863 -1.1462
   32CHL1    C8 2308   4.198   6.725   7.411 -0.1538  0.4453  0.3829
   32CHL1    H8 2309   4.305   6.702   7.393 -0.9085 -1.8277 -1.5166
   32CHL1   C14 2310   4.175   6.736   7.561 -0.4701 -0.9160  0.4768
   32CHL1   H14 2311   4.066   6.751   7.580 -0.1219  1.3152  0.9146
   32CHL1   C15 2312   4.245   6.850   7.635  0.8028 -0.1100 -0.1143
   32CHL1  H15A 2313   4.344   6.873   7.591 -0.6385  2.9160 -2.0009
   32CHL1  H15B 2314   4.205   6.953   7.625 -0.3243 -0.5941 -0.7591
   32CHL1   C16 2315   4.245   6.803   7.776  0.4298  0.1520 -0.3810
   32CHL1  H16A 2316   4.345   6.815   7.823 -0.0376  0.6164  0.5201
   32CHL1  H16B 2317   4.174   6.858   7.842  0.4319  1.9156 -1.8296
   32CHL1   C17 2318   4.167   6.662   7.779 -0.2185 -0.4062 -0.4780
   32CHL1   H17 2319   4.059   6.689   7.790 -0.6895 -1.5094 -2.2505
   32CHL1   C13 2320   4.194   6.604   7.644 -0.1036  0.4893  0.2192
   32CHL1   C18 2321   4.331   6.539   7.628  0.4245  0.3553 -0.1976
   32CHL1  H18A 2322   4.406   6.601   7.681 -1.2194  3.2216 -1.1007
   32CHL1  H18B 2323   4.336   6.433   7.659  1.1681  0.2473 -0.6886
   32CHL1  H18C 2324   4.360   6.551   7.522 -0.0652 -1.1257 -0.5094
   32CHL1   C12 2325   4.087   6.509   7.585  0.1029 -1.1998 -0.1036
   32CHL1  H12A 2326   4.091   6.410   7.636  0.6484 -1.5190 -0.7544
   32CHL1  H12B 2327   3.981   6.540   7.597  0.0941 -0.8763 -0.9887
   32CHL1   C11 2328   4.095   6.490   7.433  1.2788  0.3043 -0.4396
   32CHL1  H11A 2329   4.190   6.434   7.420 -0.0989 -1.9401 -1.1164
   32CHL1  H11B 2330   4.016   6.416   7.409  0.7966  0.5781  0.2809
   32CHL1    C9 2331   4.095   6.623   7.355 -1.0298  0.5375  0.3196
   32CHL1    H9 2332   3.997   6.673   7.366 -1.2033  0.0136  1.1864
   32CHL1   C10 2333   4.098   6.608   7.202  0.1443  0.0006  0.3613
   32CHL1   C19 2334   4.206   6.502   7.173 -0.1689 -0.8593  0.0249
   32CHL1  H19A 2335   4.299   6.526   7.229 -0.4056 -0.1055  0.1078
   32CHL1  H19B 2336   4.171   6.400   7.202  1.7060 -1.1831  1.2151
   32CHL1  H19C 2337   4.236   6.497   7.067 -1.7085 -1.7088 -0.3859
   32CHL1    C1 2338   3.958   6.562   7.149 -0.2003 -0.4722  0.1868
   32CHL1   H1A 2339   3.942   6.464   7.198 -0.8429 -0.3210  0.2860
   32CHL1   H1B 2340   3.879   6.630   7.187  0.2577  0.4674 -0.4949
   32CHL1    C2 2341   3.950   6.546   7.000 -0.0326  0.3419  0.2546
   32CHL1   H2A 2342   3.851   6.505   6.970  0.6069 -0.6682 -0.5011
   32CHL1   H2B 2343   4.024   6.470   6.965 -0.7541 -0.8602  1.2764
   32CHL1   C20 2344   4.206   6.576   7.906  0.2520 -0.5857 -0.8756
   32CHL1   H20 2345   4.317   6.582   7.904  0.2549 -0.7507 -1.9672
   32CHL1   C21 2346   4.159   6.427   7.900  0.6724  0.2438  0.4665
   32CHL1  H21A 2347   4.205   6.386   7.992 -0.0178 -1.5753  0.0097
   32CHL1  H21B 2348   4.201   6.374   7.812 -0.0618  1.2793 -0.5214
   32CHL1  H21C 2349   4.048   6.419   7.903  0.7223 -0.4546  0.4212
   32CHL1   C22 2350   4.155   6.645   8.032  0.6317  0.0595  0.0343
   32CHL1  H22A 2351   4.188   6.574   8.111 -0.5125 -0.4572  0.0617
   32CHL1  H22B 2352   4.201   6.742   8.060  0.1627  0.7575 -1.5497
   32CHL1   C23 2353   4.002   6.676   8.062  0.3493 -0.5409  0.1536
   32CHL1  H23A 2354   3.952   6.735   7.983  1.5383  2.5306  1.5991
   32CHL1  H23B 2355   3.952   6.577   8.060  1.5625 -1.1633  0.1305
   32CHL1   C24 2356   3.974   6.750   8.195 -0.9398  0.6863 -0.2204
   32CHL1  H24A 2357   4.030   6.845   8.208 -1.4775  0.9666  0.0607
   32CHL1  H24B 2358   3.866   6.774   8.206 -0.8452  1.6918 -1.3720
   32CHL1   C25 2359   4.007   6.648   8.315  0.0268 -0.3820  0.4665
   32CHL1   H25 2360   4.097   6.592   8.285  2.8311  2.5060  3.0740
   32CHL1   C26 2361   4.027   6.727   8.443 -0.3031  0.5230  0.0970
   32CHL1  H26A 2362   4.092   6.815   8.422 -0.5748  0.7823  0.3427
   32CHL1  H26B 2363   3.927   6.765   8.472  0.1871  1.4958  0.5662
   32CHL1  H26C 2364   4.066   6.665   8.526  2.3855  1.9958  0.0091
   32CHL1   C27 2365   3.889   6.555   8.327  0.0511 -0.1639  0.4677
   32CHL1  H27A 2366   3.870   6.502   8.231  0.5914 -0.4224  0.5014
   32CHL1  H27B 2367   3.904   6.472   8.399 -0.2644 -1.4138 -0.8818
   32CHL1  H27C 2368   3.800   6.614   8.356  1.3249  1.1311  1.8583
   33CHL1    C3 2369   4.931   6.158   6.645 -0.8581 -0.2696  0.3122
   33CHL1    H3 2370   4.981   6.064   6.676 -0.7363 -0.2550  0.1634
   33CHL1    O3 2371   4.914   6.150   6.508 -0.1783 -0.3709  0.5568
   33CHL1   H3' 2372   4.832   6.101   6.499 -0.6455  0.1105  2.0783
   33CHL1    C4 2373   4.801   6.186   6.718  0.0637  0.6335 -0.3014
   33CHL1   H4A 2374   4.760   6.278   6.671  1.5539  0.6894 -1.5264
   33CHL1   H4B 2375   4.730   6.103   6.698  1.4027 -0.7726  0.6302
   33CHL1    C5 2376   4.819   6.207   6.870  0.2114 -0.6331  0.9410
   33CHL1    C6 2377   4.763   6.132   6.965  0.1879  0.1841  0.4143
   33CHL1    H6 2378   4.701   6.053   6.921  1.0825 -0.9296  1.1195
   33CHL1    C7 2379   4.774   6.144   7.106  0.0186  0.2390 -0.2002
   33CHL1   H7A 2380   4.676   6.120   7.152  0.5485  0.5444  1.1252
   33CHL1   H7B 2381   4.848   6.070   7.142  0.3257  0.3587 -0.5834
   33CHL1    C8 2382   4.827   6.281   7.145  0.3212  0.3159  0.5470
   33CHL1    H8 2383   4.749   6.359   7.133  0.4765  0.3686 -0.1304
   33CHL1   C14 2384   4.878   6.276   7.282 -0.3882 -0.1438 -0.3560
   33CHL1   H14 2385   4.957   6.198   7.280 -1.5120 -1.3004 -0.5748
   33CHL1   C15 2386   4.781   6.222   7.395 -0.3759  0.0526  0.7702
   33CHL1  H15A 2387   4.691   6.287   7.391  0.0975  0.6123 -2.2542
   33CHL1  H15B 2388   4.739   6.119   7.394  3.2760 -1.5222 -1.3664
   33CHL1   C16 2389   4.871   6.250   7.513  0.1067  0.2004  0.5197
   33CHL1  H16A 2390   4.802   6.286   7.592 -1.0048 -0.9570  0.1009
   33CHL1  H16B 2391   4.920   6.154   7.542 -0.9906 -0.4926  0.1020
   33CHL1   C17 2392   4.972   6.365   7.486 -0.4451  0.4899 -0.2403
   33CHL1   H17 2393   5.076   6.327   7.493  0.3911  2.8014  0.4234
   33CHL1   C13 2394   4.951   6.401   7.337 -0.3423 -0.2140  0.4515
   33CHL1   C18 2395   4.842   6.514   7.325  0.0571  0.1440 -0.7652
   33CHL1  H18A 2396   4.784   6.520   7.230 -1.6795 -1.5261  0.1759
   33CHL1  H18B 2397   4.766   6.482   7.399  1.8788 -0.7224  0.7932
   33CHL1  H18C 2398   4.886   6.610   7.360 -2.2439  0.2520  1.9320
   33CHL1   C12 2399   5.067   6.430   7.244  0.4188  0.2001 -0.2331
   33CHL1  H12A 2400   5.111   6.526   7.279  1.2016  0.1136 -0.9604
   33CHL1  H12B 2401   5.145   6.354   7.268 -1.2443 -0.9209  1.8047
   33CHL1   C11 2402   5.039   6.441   7.096 -0.3479 -0.2222 -0.1042
   33CHL1  H11A 2403   4.974   6.525   7.065 -0.3671  0.2704  1.2569
   33CHL1  H11B 2404   5.134   6.446   7.039  2.0381 -1.3270  3.6621
   33CHL1    C9 2405   4.950   6.318   7.053 -0.3571  0.2100 -0.0288
   33CHL1    H9 2406   5.019   6.235   7.079 -0.0196  1.5366  3.6345
   33CHL1   C10 2407   4.916   6.322   6.908  0.1767 -0.2619 -0.5928
   33CHL1   C19 2408   4.826   6.448   6.877 -0.0175  0.1046 -0.4353
   33CHL1  H19A 2409   4.785   6.442   6.774 -0.9549 -1.8817  0.0221
   33CHL1  H19B 2410   4.732   6.454   6.935 -0.2516  0.2443 -0.8272
   33CHL1  H19C 2411   4.872   6.547   6.896 -1.0412  0.5996 -0.5256
   33CHL1    C1 2412   5.040   6.321   6.815 -0.2063  0.4671 -0.3474
   33CHL1   H1A 2413   5.093   6.418   6.827  1.9374 -0.8756  1.4646
   33CHL1   H1B 2414   5.112   6.247   6.855 -0.4846  0.4899  0.1996
   33CHL1    C2 2415   5.020   6.285   6.665  0.3569  0.1743 -0.3141
   33CHL1   H2A 2416   5.115   6.253   6.616  0.3938 -0.3173  0.0655
   33CHL1   H2B 2417   4.973   6.372   6.616 -1.5606  0.4203  1.8873
   33CHL1   C20 2418   4.983   6.477   7.598  0.3203  0.0331  0.1999
   33CHL1   H20 2419   4.893   6.543   7.591  0.2447 -0.2993 -2.4533
   33CHL1   C21 2420   5.093   6.571   7.570 -0.1087  0.4357 -0.2355
   33CHL1  H21A 2421   5.098   6.658   7.639 -0.3682  0.2791 -0.0202
   33CHL1  H21B 2422   5.069   6.619   7.473 -0.4795  1.0276  0.1482
   33CHL1  H21C 2423   5.192   6.521   7.569 -1.3492 -2.1109  0.4849
   33CHL1   C22 2424   4.999   6.420   7.740  0.1473 -1.1305 -0.6590
   33CHL1  H22A 2425   4.939   6.327   7.745 -1.1820 -0.4889 -3.4825
   33CHL1  H22B 2426   5.107   6.403   7.759  0.8773  2.3927 -1.2615
   33CHL1   C23 2427   4.939   6.525   7.837 -0.9874  0.2828  0.4870
   33CHL1  H23A 2428   4.990   6.512   7.935  0.0213 -1.0332 -0.1940
   33CHL1  H23B 2429   4.961   6.631   7.809 -4.1594  0.9191  0.2441
   33CHL1   C24 2430   4.785   6.508   7.860 -0.7258  0.2205  0.4511
   33CHL1  H24A 2431   4.735   6.496   7.762  0.1364 -0.5591  0.1014
   33CHL1  H24B 2432   4.786   6.416   7.922 -1.6685 -0.1208 -0.0385
   33CHL1   C25 2433   4.717   6.630   7.926  0.9374  0.3918 -0.5567
   33CHL1   H25 2434   4.610   6.609   7.947  1.4051 -0.0682  1.4601
   33CHL1   C26 2435   4.770   6.647   8.070 -0.3601  0.1319  0.4251
   33CHL1  H26A 2436   4.762   6.557   8.136 -0.4323 -0.1098  0.0902
   33CHL1  H26B 2437   4.876   6.678   8.065 -0.2870  0.6477  3.8402
   33CHL1  H26C 2438   4.720   6.737   8.110 -1.2724 -1.0303  1.9809
   33CHL1   C27 2439   4.716   6.757   7.841  0.2278 -0.3326 -0.0724
   33CHL1  H27A 2440   4.651   6.746   7.752  0.0164  0.0854  0.0326
   33CHL1  H27B 2441   4.676   6.841   7.901  0.6507  0.6613 -1.1705
   33CHL1  H27C 2442   4.816   6.774   7.795 -0.7189  0.4097 -1.9112
   34CHL1    C3 2443   5.668   4.509   7.195  0.3899 -0.2917  0.0223
   34CHL1    H3 2444   5.564   4.535   7.224  0.5611  2.0512 -1.3669
   34CHL1    O3 2445   5.672   4.520   7.051  0.3329  0.5374 -0.3097
   34CHL1   H3' 2446   5.613   4.448   7.031  2.8132 -1.9712  1.0239
   34CHL1    C4 2447   5.754   4.619   7.254 -0.6847  0.4482  0.0547
   34CHL1   H4A 2448   5.854   4.606   7.207 -1.9108 -0.6941 -2.3840
   34CHL1   H4B 2449   5.700   4.713   7.231 -0.5303  0.0212 -2.2125
   34CHL1    C5 2450   5.766   4.601   7.403  0.3170 -0.0315  0.0755
   34CHL1    C6 2451   5.732   4.695   7.488  0.0534  0.0229  0.1260
   34CHL1    H6 2452   5.705   4.790   7.439  2.7754  1.5275  1.4436
   34CHL1    C7 2453   5.741   4.687   7.638 -0.1217  0.2167  0.4328
   34CHL1   H7A 2454   5.777   4.786   7.673  0.6738 -0.3098  1.1373
   34CHL1   H7B 2455   5.639   4.684   7.680 -0.3740 -1.0513 -0.2240
   34CHL1    C8 2456   5.828   4.569   7.699 -0.0913  0.7912 -0.7465
   34CHL1    H8 2457   5.937   4.591   7.690  0.4380 -1.9362 -1.6188
   34CHL1   C14 2458   5.780   4.535   7.837  0.2808  0.0619 -0.5199
   34CHL1   H14 2459   5.676   4.496   7.831  0.1481  0.1039  1.2250
   34CHL1   C15 2460   5.766   4.649   7.941 -0.0671 -0.5187  0.1622
   34CHL1  H15A 2461   5.851   4.717   7.918 -0.5143  1.0171  2.8725
   34CHL1  H15B 2462   5.669   4.702   7.932 -0.0470 -0.3600  0.8319
   34CHL1   C16 2463   5.768   4.575   8.070 -0.3126 -0.6966 -0.3585
   34CHL1  H16A 2464   5.845   4.610   8.141 -2.3926  4.4506 -0.4069
   34CHL1  H16B 2465   5.672   4.598   8.121 -1.5373  1.1322 -3.3456
   34CHL1   C17 2466   5.788   4.425   8.038 -0.0978  0.7793 -0.3409
   34CHL1   H17 2467   5.684   4.387   8.026  0.1792  0.2994 -1.2032
   34CHL1   C13 2468   5.860   4.421   7.900  0.6018  0.7027 -0.1393
   34CHL1   C18 2469   6.014   4.449   7.913  0.0202 -0.5475  0.1260
   34CHL1  H18A 2470   6.052   4.461   7.809  0.5667 -3.0233  0.0046
   34CHL1  H18B 2471   6.034   4.545   7.964  1.6153 -1.7356  1.7904
   34CHL1  H18C 2472   6.069   4.363   7.959  0.3605 -1.7526 -2.4243
   34CHL1   C12 2473   5.823   4.297   7.811  0.3296 -0.6078 -0.3807
   34CHL1  H12A 2474   5.878   4.210   7.853 -1.0503 -0.8339  0.9809
   34CHL1  H12B 2475   5.714   4.277   7.814  0.6710 -2.4866  0.0444
   34CHL1   C11 2476   5.869   4.309   7.662  0.6854  0.1473 -0.3217
   34CHL1  H11A 2477   5.979   4.325   7.658  0.7827 -0.2908  0.5734
   34CHL1  H11B 2478   5.837   4.227   7.594 -1.5000  0.3093  0.4722
   34CHL1    C9 2479   5.796   4.446   7.611 -0.5679  0.6226 -0.7939
   34CHL1    H9 2480   5.686   4.431   7.613 -0.6962  1.5976 -0.0282
   34CHL1   C10 2481   5.814   4.462   7.450 -1.1774 -0.6043  0.7593
   34CHL1   C19 2482   5.971   4.469   7.423 -0.2944  0.5086  0.1417
   34CHL1  H19A 2483   6.002   4.486   7.318 -1.1059  0.8134 -0.0539
   34CHL1  H19B 2484   6.016   4.552   7.481  0.2349  0.4839 -0.2294
   34CHL1  H19C 2485   6.014   4.371   7.456 -0.8962 -0.0002 -0.5720
   34CHL1    C1 2486   5.750   4.349   7.370 -0.8493  0.7553 -0.2152
   34CHL1   H1A 2487   5.802   4.252   7.384 -2.0092  0.3204  1.1848
   34CHL1   H1B 2488   5.656   4.324   7.423  0.2736 -1.4345  0.8404
   34CHL1    C2 2489   5.720   4.366   7.224  0.0438  0.7045  0.6474
   34CHL1   H2A 2490   5.649   4.293   7.178  1.0028  0.0859  0.1383
   34CHL1   H2B 2491   5.817   4.344   7.175 -0.2661 -0.3081  0.4750
   34CHL1   C20 2492   5.834   4.341   8.162  0.3337 -0.0932 -0.9687
   34CHL1   H20 2493   5.929   4.389   8.194 -1.1387  1.8761  0.6184
   34CHL1   C21 2494   5.862   4.195   8.130  0.1438  0.1495  0.1625
   34CHL1  H21A 2495   5.943   4.194   8.054 -1.6746  1.7839 -1.8758
   34CHL1  H21B 2496   5.775   4.148   8.079 -0.7873  0.8023  1.1395
   34CHL1  H21C 2497   5.901   4.137   8.216  0.8016 -0.2474 -0.3897
   34CHL1   C22 2498   5.739   4.362   8.280 -0.8281  0.3448 -0.3145
   34CHL1  H22A 2499   5.726   4.472   8.298  1.7108  0.5556  0.3425
   34CHL1  H22B 2500   5.636   4.335   8.249 -0.5220 -0.6065 -0.4862
   34CHL1   C23 2501   5.776   4.295   8.412  0.3792 -0.3056  0.0672
   34CHL1  H23A 2502   5.767   4.184   8.406 -0.2685 -0.2666  0.2853
   34CHL1  H23B 2503   5.882   4.325   8.431  1.1927 -3.1650  0.3066
   34CHL1   C24 2504   5.705   4.342   8.541 -0.2792 -0.8845 -0.1014
   34CHL1  H24A 2505   5.738   4.298   8.637 -0.9650 -0.1964  0.4575
   34CHL1  H24B 2506   5.729   4.449   8.554  1.5316 -1.4600  1.5011
   34CHL1   C25 2507   5.560   4.302   8.541  0.3390  0.2344 -0.8215
   34CHL1   H25 2508   5.512   4.326   8.444  1.2666  2.0736 -0.8631
   34CHL1   C26 2509   5.544   4.154   8.569 -0.8182  1.0534 -0.4579
   34CHL1  H26A 2510   5.605   4.126   8.658 -2.5829 -3.3693 -0.5366
   34CHL1  H26B 2511   5.445   4.108   8.591  0.0662 -0.8628 -0.3426
   34CHL1  H26C 2512   5.592   4.108   8.480 -1.8247 -0.1323 -0.4061
   34CHL1   C27 2513   5.490   4.379   8.663 -0.3377  0.2868 -0.2762
   34CHL1  H27A 2514   5.518   4.332   8.760 -1.1459 -1.6975 -0.9834
   34CHL1  H27B 2515   5.523   4.485   8.661  3.0271 -0.7316 -3.5856
   34CHL1  H27C 2516   5.379   4.378   8.655 -0.5686  0.7584  2.3376
   35CHL1    C3 2517   2.863   6.405   7.187 -0.6652  1.0716  0.4174
   35CHL1    H3 2518   2.947   6.337   7.215 -1.1783  1.4499  3.0195
   35CHL1    O3 2519   2.833   6.387   7.047  0.2066 -0.3270  0.0917
   35CHL1   H3' 2520   2.887   6.456   7.008 -1.0439 -0.7384 -2.5268
   35CHL1    C4 2521   2.754   6.362   7.278  0.5655 -0.1974 -0.2420
   35CHL1   H4A 2522   2.663   6.411   7.237  0.0600 -0.3548  0.6769
   35CHL1   H4B 2523   2.732   6.254   7.264 -0.4786 -0.0055 -0.1672
   35CHL1    C5 2524   2.779   6.391   7.426  0.3181 -0.0906 -0.6868
   35CHL1    C6 2525   2.773   6.298   7.518 -0.6381  0.1788 -1.1725
   35CHL1    H6 2526   2.745   6.195   7.491  0.1846 -0.8813  1.7394
   35CHL1    C7 2527   2.798   6.314   7.664 -0.4455 -0.1117  0.1947
   35CHL1   H7A 2528   2.702   6.282   7.711  0.1609 -1.8473  0.2760
   35CHL1   H7B 2529   2.878   6.250   7.707 -1.1994 -1.0519  0.2178
   35CHL1    C8 2530   2.826   6.457   7.709  0.2811  0.0088 -0.1020
   35CHL1    H8 2531   2.722   6.489   7.731  1.7663  2.9236  3.1562
   35CHL1   C14 2532   2.908   6.459   7.838  0.0322  0.3755  0.6068
   35CHL1   H14 2533   3.011   6.426   7.815 -0.0840  0.0275  0.5808
   35CHL1   C15 2534   2.863   6.378   7.955 -0.1765  0.5069 -0.4576
   35CHL1  H15A 2535   2.752   6.381   7.952 -0.1493  0.4221 -1.6303
   35CHL1  H15B 2536   2.885   6.269   7.959 -1.6225  0.1775 -0.9989
   35CHL1   C16 2537   2.915   6.450   8.083  0.9658  0.2063 -0.0947
   35CHL1  H16A 2538   2.829   6.480   8.147 -1.8071  1.4966 -4.2513
   35CHL1  H16B 2539   2.980   6.385   8.146  0.5027  0.7588  0.9538
   35CHL1   C17 2540   2.984   6.577   8.033  0.1289  0.4269 -0.7233
   35CHL1   H17 2541   3.087   6.539   8.019 -0.1204 -0.2691 -0.6804
   35CHL1   C13 2542   2.921   6.603   7.895 -0.4174 -0.1702  0.5462
   35CHL1   C18 2543   2.778   6.669   7.908 -0.4684  0.5471  0.5004
   35CHL1  H18A 2544   2.779   6.772   7.951 -0.1824 -0.3819  2.8256
   35CHL1  H18B 2545   2.715   6.678   7.818  1.5370  3.0283 -0.7398
   35CHL1  H18C 2546   2.718   6.604   7.975 -0.1802 -1.8140 -1.4648
   35CHL1   C12 2547   3.004   6.679   7.786  0.3162 -0.0304 -0.2954
   35CHL1  H12A 2548   3.016   6.787   7.810 -0.6814 -0.0293  0.2329
   35CHL1  H12B 2549   3.105   6.639   7.766  0.7313  0.4003  0.8918
   35CHL1   C11 2550   2.920   6.681   7.656 -0.4493 -0.6142  0.5376
   35CHL1  H11A 2551   2.818   6.726   7.664 -0.4654 -0.8213  1.6487
   35CHL1  H11B 2552   2.972   6.747   7.584 -0.3506 -1.0846  0.1824
   35CHL1    C9 2553   2.896   6.539   7.600  0.2688 -0.5329  0.6482
   35CHL1    H9 2554   2.997   6.492   7.598  1.0631  1.0482  2.0519
   35CHL1   C10 2555   2.838   6.533   7.454 -0.5392  0.2114 -0.1969
   35CHL1   C19 2556   2.717   6.634   7.440  0.0235 -0.4652 -0.2340
   35CHL1  H19A 2557   2.672   6.606   7.342  1.8197 -1.3298 -0.8296
   35CHL1  H19B 2558   2.643   6.612   7.519  0.8961 -0.1533  0.6869
   35CHL1  H19C 2559   2.749   6.741   7.433 -1.1515 -0.1185 -0.3381
   35CHL1    C1 2560   2.949   6.575   7.350 -0.8624 -0.9172  0.7028
   35CHL1   H1A 2561   2.998   6.671   7.379  0.9594 -1.5862 -0.0968
   35CHL1   H1B 2562   3.035   6.507   7.365  1.2072  1.9023  2.2731
   35CHL1    C2 2563   2.907   6.555   7.205  0.1457 -0.1772 -0.4023
   35CHL1   H2A 2564   3.000   6.581   7.149 -0.7054  2.8357 -0.4536
   35CHL1   H2B 2565   2.827   6.624   7.171 -0.8854 -1.2600 -0.2317
   35CHL1   C20 2566   2.978   6.690   8.133  0.5420 -0.7098 -0.7144
   35CHL1   H20 2567   2.874   6.707   8.166  1.9888  2.2493  2.7270
   35CHL1   C21 2568   3.041   6.820   8.065 -0.4948  0.3117  0.2172
   35CHL1  H21A 2569   3.137   6.809   8.010 -0.1377  0.1605  0.8565
   35CHL1  H21B 2570   3.051   6.899   8.144  2.3026  1.7133 -1.4404
   35CHL1  H21C 2571   2.973   6.864   7.989  1.0137  0.9684 -0.7821
   35CHL1   C22 2572   3.043   6.641   8.268  0.2175 -1.1219  0.3342
   35CHL1  H22A 2573   3.019   6.719   8.343 -2.2172 -0.5391 -0.9918
   35CHL1  H22B 2574   2.996   6.550   8.311  0.2898 -1.2408  0.1641
   35CHL1   C23 2575   3.195   6.620   8.266  0.1472 -0.3919 -0.6145
   35CHL1  H23A 2576   3.223   6.537   8.197  0.9315 -0.2463 -0.4813
   35CHL1  H23B 2577   3.239   6.716   8.231 -1.1156 -0.1302 -1.5132
   35CHL1   C24 2578   3.250   6.579   8.401  0.2225 -0.4154 -0.4833
   35CHL1  H24A 2579   3.210   6.638   8.487  1.9201  0.2600 -0.1394
   35CHL1  H24B 2580   3.220   6.474   8.422  1.5276 -1.0040 -1.4709
   35CHL1   C25 2581   3.405   6.590   8.400  0.7482 -0.0157 -0.0841
   35CHL1   H25 2582   3.432   6.588   8.292 -1.6515 -1.6959 -0.6795
   35CHL1   C26 2583   3.455   6.736   8.438  0.3078  0.3546 -0.1487
   35CHL1  H26A 2584   3.451   6.760   8.546 -1.1571 -1.2687  0.1682
   35CHL1  H26B 2585   3.561   6.729   8.405  1.1452 -1.5673  2.7964
   35CHL1  H26C 2586   3.394   6.819   8.396  0.5275  0.9292  0.6592
   35CHL1   C27 2587   3.480   6.475   8.461  0.0058  0.2620 -0.2261
   35CHL1  H27A 2588   3.449   6.461   8.566  1.8270 -2.9818 -0.0645
   35CHL1  H27B 2589   3.588   6.499   8.449 -0.1185  0.2612 -1.3825
   35CHL1  H27C 2590   3.452   6.380   8.410  0.6256  0.9120 -1.8087
   36CHL1    C3 2591   2.555   5.400   7.188  0.1132 -0.1702  0.6066
   36CHL1    H3 2592   2.456   5.396   7.238  0.2463 -1.1053  0.8052
   36CHL1    O3 2593   2.546   5.350   7.062 -0.2613 -0.1160 -0.2019
   36CHL1   H3' 2594   2.632   5.353   7.019  0.3024 -2.4087  0.7073
   36CHL1    C4 2595   2.583   5.548   7.177  0.0998  0.1390  0.5870
   36CHL1   H4A 2596   2.678   5.547   7.121  0.7919  3.4526  1.5585
   36CHL1   H4B 2597   2.507   5.601   7.116  0.5996  1.6520  1.2533
   36CHL1    C5 2598   2.603   5.616   7.315  0.1462 -0.0172  0.3721
   36CHL1    C6 2599   2.552   5.731   7.342 -0.3737  0.1989  0.5759
   36CHL1    H6 2600   2.488   5.782   7.268 -1.0243  0.0936  1.0581
   36CHL1    C7 2601   2.596   5.823   7.455  0.1030  0.3416 -0.6035
   36CHL1   H7A 2602   2.649   5.913   7.417  2.2249 -0.4149  0.4462
   36CHL1   H7B 2603   2.500   5.844   7.507  0.0559  0.4017 -0.7160
   36CHL1    C8 2604   2.695   5.750   7.547 -0.4866  0.2392 -0.5188
   36CHL1    H8 2605   2.799   5.770   7.513  1.6326  2.6404  6.4258
   36CHL1   C14 2606   2.683   5.796   7.687 -0.0650 -0.4642 -0.1706
   36CHL1   H14 2607   2.589   5.758   7.733 -0.2894  0.5303  0.2199
   36CHL1   C15 2608   2.674   5.949   7.713  0.0729 -0.6099  0.5732
   36CHL1  H15A 2609   2.735   6.011   7.644  1.1400 -0.0524  1.9827
   36CHL1  H15B 2610   2.572   5.986   7.689  1.2723  3.5165  1.3563
   36CHL1   C16 2611   2.707   5.966   7.867  0.0999  0.1318 -0.0090
   36CHL1  H16A 2612   2.797   6.028   7.887  1.7337 -1.3735 -2.4654
   36CHL1  H16B 2613   2.621   6.016   7.916  0.1047  0.4925 -0.3636
   36CHL1   C17 2614   2.734   5.824   7.916 -0.5975  0.1546 -0.0673
   36CHL1   H17 2615   2.637   5.777   7.945 -0.9635  1.0167  0.1297
   36CHL1   C13 2616   2.788   5.750   7.791 -0.2745  0.1041  0.1918
   36CHL1   C18 2617   2.928   5.804   7.742  0.3454 -0.1492 -0.1283
   36CHL1  H18A 2618   3.013   5.765   7.803  0.5293  0.1147 -0.2121
   36CHL1  H18B 2619   2.938   5.774   7.636 -0.2389  1.6240 -0.7006
   36CHL1  H18C 2620   2.932   5.915   7.735 -0.5529 -0.0480  0.8561
   36CHL1   C12 2621   2.772   5.596   7.794 -0.3700  0.7626 -0.2976
   36CHL1  H12A 2622   2.849   5.547   7.857 -0.4565 -0.0385 -0.8124
   36CHL1  H12B 2623   2.675   5.579   7.845  1.1346  0.7823  2.7126
   36CHL1   C11 2624   2.774   5.529   7.655  0.2302  0.2717 -0.3991
   36CHL1  H11A 2625   2.881   5.530   7.626  0.8615  0.8444  1.8798
   36CHL1  H11B 2626   2.748   5.421   7.654 -0.3413  0.4123 -1.2536
   36CHL1    C9 2627   2.684   5.599   7.549 -0.7906 -0.0367  0.5248
   36CHL1    H9 2628   2.578   5.582   7.579 -1.0318  1.0180  0.2731
   36CHL1   C10 2629   2.695   5.536   7.407 -0.5696 -0.6578 -0.1886
   36CHL1   C19 2630   2.847   5.548   7.360  0.0175  0.0985 -0.6847
   36CHL1  H19A 2631   2.919   5.509   7.435 -1.0974  0.5053  0.6167
   36CHL1  H19B 2632   2.864   5.501   7.261  2.8256  0.0075 -0.1882
   36CHL1  H19C 2633   2.866   5.657   7.344 -0.5907  0.4093  0.6336
   36CHL1    C1 2634   2.664   5.383   7.408  0.0364  0.6664 -0.6750
   36CHL1   H1A 2635   2.752   5.333   7.454  0.6316  0.6664 -1.7727
   36CHL1   H1B 2636   2.573   5.365   7.469 -1.0220  1.6400 -1.9233
   36CHL1    C2 2637   2.655   5.327   7.266 -0.1436 -0.1132 -0.2173
   36CHL1   H2A 2638   2.612   5.224   7.271 -1.3301  0.4091  0.5927
   36CHL1   H2B 2639   2.752   5.306   7.217  0.0918  0.1750  0.1210
   36CHL1   C20 2640   2.826   5.830   8.035  0.3344  0.9622  0.0823
   36CHL1   H20 2641   2.924   5.876   8.009  0.3455  1.3905  0.8880
   36CHL1   C21 2642   2.826   5.689   8.099 -0.4547  0.1878 -0.0923
   36CHL1  H21A 2643   2.726   5.641   8.096  0.4155 -1.5889 -1.1074
   36CHL1  H21B 2644   2.865   5.696   8.202  2.0379  1.4236 -1.0636
   36CHL1  H21C 2645   2.896   5.620   8.047  0.1459  0.8370 -0.1637
   36CHL1   C22 2646   2.784   5.934   8.145  0.1215 -0.1793  0.4097
   36CHL1  H22A 2647   2.767   6.036   8.104 -0.9411 -0.2537  0.6494
   36CHL1  H22B 2648   2.694   5.892   8.196 -0.1566  0.0062  0.0734
   36CHL1   C23 2649   2.893   5.964   8.260 -0.1659 -0.3397  0.0740
   36CHL1  H23A 2650   2.922   5.879   8.326  1.0681  0.4505  0.5618
   36CHL1  H23B 2651   2.981   5.981   8.194 -1.2060  0.8780 -1.0530
   36CHL1   C24 2652   2.850   6.077   8.342  0.0226 -0.4033 -0.1114
   36CHL1  H24A 2653   2.824   6.161   8.275 -2.4495  0.0785  1.3909
   36CHL1  H24B 2654   2.754   6.060   8.395 -0.1324 -0.1329 -0.3092
   36CHL1   C25 2655   2.957   6.108   8.440 -0.1940 -0.1827 -0.2274
   36CHL1   H25 2656   3.002   6.010   8.468 -1.7857 -0.8731 -0.0376
   36CHL1   C26 2657   3.072   6.194   8.386 -0.4583  0.3903  0.2927
   36CHL1  H26A 2658   3.087   6.178   8.277  0.4740  2.1840  0.1463
   36CHL1  H26B 2659   3.042   6.300   8.398 -2.3933 -0.1647  0.6808
   36CHL1  H26C 2660   3.158   6.183   8.454  0.0251  2.7223  0.0763
   36CHL1   C27 2661   2.890   6.164   8.567  0.4552 -0.2365 -0.1353
   36CHL1  H27A 2662   2.836   6.081   8.618  0.3903 -0.4553 -0.5491
   36CHL1  H27B 2663   2.972   6.200   8.632  1.7813  0.4044 -2.1069
   36CHL1  H27C 2664   2.821   6.246   8.537  1.4969  0.2665 -1.2311
   37CHL1    C3 2665   6.626   0.293   6.971 -0.0875  0.4711  0.3929
   37CHL1    H3 2666   6.525   0.246   6.971 -0.1657  0.6410  0.3388
   37CHL1    O3 2667   6.682   0.286   6.841  0.0005 -0.4415  0.2645
   37CHL1   H3' 2668   6.662   0.197   6.810  0.6804  0.3862 -2.6652
   37CHL1    C4 2669   6.622   0.439   7.009 -0.4037  0.4972  0.4629
   37CHL1   H4A 2670   6.724   0.482   6.996  0.3349 -1.5707 -0.6760
   37CHL1   H4B 2671   6.557   0.495   6.939  0.2817 -1.0958 -1.4641
   37CHL1    C5 2672   6.583   0.457   7.157  0.3656  0.3514  0.0967
   37CHL1    C6 2673   6.478   0.543   7.190 -0.1603  0.9734  0.4048
   37CHL1    H6 2674   6.413   0.584   7.112 -0.2229  2.1593  1.0764
   37CHL1    C7 2675   6.434   0.551   7.334 -0.6539 -0.0890 -0.0281
   37CHL1   H7A 2676   6.415   0.656   7.362  3.6100  0.0652  2.7073
   37CHL1   H7B 2677   6.340   0.491   7.344 -0.2435 -0.6891  0.2522
   37CHL1    C8 2678   6.531   0.493   7.445 -0.1854  0.3551  0.7727
   37CHL1    H8 2679   6.603   0.577   7.457  0.1602  0.4167 -1.4670
   37CHL1   C14 2680   6.462   0.471   7.581 -0.1399  0.0486 -0.3437
   37CHL1   H14 2681   6.383   0.395   7.561 -1.8877  1.6152  0.4646
   37CHL1   C15 2682   6.380   0.590   7.635 -0.1288  0.0556  0.4019
   37CHL1  H15A 2683   6.446   0.679   7.627 -1.9095  1.3682  0.0261
   37CHL1  H15B 2684   6.285   0.609   7.582  0.8026  1.7206 -0.7060
   37CHL1   C16 2685   6.355   0.541   7.788  0.1960 -0.2046 -0.1396
   37CHL1  H16A 2686   6.377   0.627   7.853 -1.9189 -0.1324  0.5267
   37CHL1  H16B 2687   6.249   0.513   7.805 -0.2064  0.2597 -1.7895
   37CHL1   C17 2688   6.453   0.421   7.811  0.1417  0.2606  1.0835
   37CHL1   H17 2689   6.395   0.329   7.787 -1.8450  1.6838  0.2411
   37CHL1   C13 2690   6.551   0.427   7.693  0.2322  0.3614  0.2261
   37CHL1   C18 2691   6.652   0.542   7.723 -0.8001 -0.1486  0.3266
   37CHL1  H18A 2692   6.714   0.557   7.631 -1.2208 -1.5117 -0.1894
   37CHL1  H18B 2693   6.596   0.633   7.753 -2.1601 -1.1539  0.9207
   37CHL1  H18C 2694   6.729   0.520   7.799  0.4614 -0.6275 -1.0584
   37CHL1   C12 2695   6.611   0.297   7.641 -1.0245  1.1537  0.0872
   37CHL1  H12A 2696   6.675   0.250   7.719 -2.2493  1.6498  1.4073
   37CHL1  H12B 2697   6.529   0.223   7.628  0.5755 -0.2685 -2.6128
   37CHL1   C11 2698   6.693   0.306   7.514 -0.4870 -0.2687  0.4135
   37CHL1  H11A 2699   6.772   0.384   7.517  0.0867 -0.7960 -0.8561
   37CHL1  H11B 2700   6.738   0.209   7.483 -0.5479  0.8097 -3.3096
   37CHL1    C9 2701   6.605   0.369   7.397 -0.0452  0.0639 -0.2381
   37CHL1    H9 2702   6.519   0.299   7.392  0.4654 -0.8816  2.9792
   37CHL1   C10 2703   6.670   0.378   7.257  0.0920 -0.0576  0.6671
   37CHL1   C19 2704   6.813   0.453   7.264  0.6197 -0.3910  0.1734
   37CHL1  H19A 2705   6.794   0.560   7.287 -0.7169 -0.6933  0.5181
   37CHL1  H19B 2706   6.881   0.402   7.336  0.3340 -0.8161  0.1462
   37CHL1  H19C 2707   6.858   0.454   7.163 -1.4533 -0.6368 -0.7921
   37CHL1    C1 2708   6.692   0.237   7.214  0.1347  0.2384  0.2390
   37CHL1   H1A 2709   6.766   0.177   7.270  0.1852 -0.2314 -0.3323
   37CHL1   H1B 2710   6.599   0.184   7.244 -0.8740  2.2121  0.7058
   37CHL1    C2 2711   6.725   0.213   7.060  0.2713  0.1467  0.4181
   37CHL1   H2A 2712   6.714   0.108   7.025  0.9333  0.2812 -0.2218
   37CHL1   H2B 2713   6.830   0.249   7.049  0.1521  1.3438  2.8106
   37CHL1   C20 2714   6.507   0.401   7.961 -0.3023 -0.1929 -0.1870
   37CHL1   H20 2715   6.542   0.503   7.988  0.6258 -0.3716 -0.7098
   37CHL1   C21 2716   6.612   0.295   7.965 -0.0109  0.0523 -0.5518
   37CHL1  H21A 2717   6.573   0.199   7.923 -0.2242  0.8796 -2.2894
   37CHL1  H21B 2718   6.621   0.282   8.075  1.2699  2.3367 -0.3682
   37CHL1  H21C 2719   6.710   0.324   7.922  0.2186  1.3754  0.8561
   37CHL1   C22 2720   6.384   0.387   8.053  0.0896 -0.5917  0.0818
   37CHL1  H22A 2721   6.291   0.437   8.019 -1.3562 -2.5237  1.0831
   37CHL1  H22B 2722   6.358   0.279   8.056  1.8701 -0.9842  2.4538
   37CHL1   C23 2723   6.406   0.437   8.199 -0.2908  0.6081  0.4057
   37CHL1  H23A 2724   6.502   0.388   8.226 -1.0377 -0.6666  0.7688
   37CHL1  H23B 2725   6.415   0.548   8.201 -1.6507  0.7479 -0.6743
   37CHL1   C24 2726   6.299   0.393   8.299 -0.0792  0.7285 -0.0606
   37CHL1  H24A 2727   6.208   0.441   8.257 -0.7915  0.3903  1.0811
   37CHL1  H24B 2728   6.284   0.284   8.308  0.6489  0.7287  1.3722
   37CHL1   C25 2729   6.328   0.447   8.440 -0.4533 -0.4506  0.1160
   37CHL1   H25 2730   6.437   0.433   8.457 -0.6362 -1.0879  0.7700
   37CHL1   C26 2731   6.305   0.598   8.448  0.3800 -0.0001 -0.3811
   37CHL1  H26A 2732   6.210   0.626   8.398  0.2787  0.1478 -0.1097
   37CHL1  H26B 2733   6.305   0.632   8.554  3.0691  3.2584 -1.3362
   37CHL1  H26C 2734   6.380   0.661   8.397 -1.9994  3.5454  0.2742
   37CHL1   C27 2735   6.256   0.376   8.554 -0.2476  0.3041  0.1797
   37CHL1  H27A 2736   6.146   0.385   8.544 -0.4145  0.2393  1.9466
   37CHL1  H27B 2737   6.283   0.268   8.547 -2.5764 -0.1150 -3.4299
   37CHL1  H27C 2738   6.282   0.405   8.658  0.3087 -1.3177  0.5045
   38CHL1    C3 2739   2.714   1.999   6.802 -0.8154 -0.2049  0.7768
   38CHL1    H3 2740   2.782   2.084   6.824 -0.9063  0.0070  0.2565
   38CHL1    O3 2741   2.705   1.989   6.659 -0.2516  0.1463 -0.1955
   38CHL1   H3' 2742   2.623   1.939   6.649 -1.3821  1.9077  0.1086
   38CHL1    C4 2743   2.785   1.875   6.873  0.0172 -0.3745 -0.2560
   38CHL1   H4A 2744   2.716   1.789   6.862  0.1791 -0.4713 -0.5264
   38CHL1   H4B 2745   2.873   1.845   6.812 -0.5498  1.6170 -2.1056
   38CHL1    C5 2746   2.805   1.902   7.020  0.5911  0.3268 -0.0289
   38CHL1    C6 2747   2.930   1.907   7.069  0.0830 -0.4733  0.4799
   38CHL1    H6 2748   3.016   1.876   7.008 -2.1694  0.3209 -3.2297
   38CHL1    C7 2749   2.966   1.949   7.206  0.0322  0.9707 -0.4614
   38CHL1   H7A 2750   3.043   1.882   7.250 -0.9143  0.3526  0.3006
   38CHL1   H7B 2751   3.003   2.053   7.212 -3.6959  2.3645  0.1729
   38CHL1    C8 2752   2.841   1.943   7.300  0.3674  0.1405  0.4901
   38CHL1    H8 2753   2.817   1.838   7.326 -2.1415  0.3948 -0.6030
   38CHL1   C14 2754   2.857   2.018   7.428 -0.5457 -0.5872  0.1461
   38CHL1   H14 2755   2.857   2.125   7.400  0.0255  0.0611  2.5209
   38CHL1   C15 2756   2.997   1.998   7.497  0.3001 -0.4556 -0.2885
   38CHL1  H15A 2757   3.035   1.894   7.490  0.3398 -0.4601  0.0099
   38CHL1  H15B 2758   3.066   2.070   7.448 -1.2918 -0.0269 -1.9502
   38CHL1   C16 2759   2.978   2.047   7.640 -0.2613 -0.0724 -0.3262
   38CHL1  H16A 2760   2.991   1.955   7.701 -1.2206 -0.1358 -0.2153
   38CHL1  H16B 2761   3.036   2.129   7.686 -1.0658  0.2866  0.0575
   38CHL1   C17 2762   2.821   2.085   7.653 -0.0000  0.7916 -0.1305
   38CHL1   H17 2763   2.810   2.190   7.617 -1.7454  0.4376 -0.7016
   38CHL1   C13 2764   2.752   2.012   7.537 -0.4620  0.5942 -0.2957
   38CHL1   C18 2765   2.721   1.869   7.583  0.2637  0.1344 -0.4615
   38CHL1  H18A 2766   2.814   1.811   7.604  0.7199  0.3389 -1.8516
   38CHL1  H18B 2767   2.652   1.877   7.669 -1.0212 -1.3448 -1.3155
   38CHL1  H18C 2768   2.659   1.815   7.508  1.1772 -1.5605 -0.0204
   38CHL1   C12 2769   2.622   2.080   7.471  0.6250 -0.0168  0.5201
   38CHL1  H12A 2770   2.531   2.062   7.532 -1.1410  1.8784 -1.4531
   38CHL1  H12B 2771   2.646   2.188   7.460  1.3559  0.0397  2.5790
   38CHL1   C11 2772   2.593   2.010   7.332  0.5966  0.5174  0.9070
   38CHL1  H11A 2773   2.570   1.904   7.356  0.6901  0.6278  1.4943
   38CHL1  H11B 2774   2.503   2.048   7.280 -2.1533 -3.9116  2.1031
   38CHL1    C9 2775   2.715   2.008   7.231  0.2782  0.2235  0.7108
   38CHL1    H9 2776   2.740   2.114   7.213 -1.7914  0.6882  0.5007
   38CHL1   C10 2777   2.677   1.935   7.098  0.1073  0.2356 -0.2422
   38CHL1   C19 2778   2.600   1.807   7.127  0.3485 -0.2406 -0.2362
   38CHL1  H19A 2779   2.598   1.747   7.033 -1.6240  0.5036 -0.6933
   38CHL1  H19B 2780   2.649   1.746   7.206 -1.0315 -0.7612  0.2360
   38CHL1  H19C 2781   2.494   1.822   7.156 -0.2861 -0.7704 -2.1642
   38CHL1    C1 2782   2.588   2.051   7.021  0.1701  0.3369 -0.2276
   38CHL1   H1A 2783   2.492   2.057   7.077  1.9195  1.0991  2.7276
   38CHL1   H1B 2784   2.652   2.140   7.037  0.2257 -0.3622  3.9124
   38CHL1    C2 2785   2.575   2.029   6.871 -0.1587  1.0542  0.3397
   38CHL1   H2A 2786   2.531   2.120   6.825  1.1899 -0.0581 -3.2993
   38CHL1   H2B 2787   2.517   1.937   6.852  2.8504 -0.7063 -0.6391
   38CHL1   C20 2788   2.767   2.075   7.798 -0.3417 -0.1446  0.2454
   38CHL1   H20 2789   2.784   1.971   7.831 -2.2872 -0.8725 -0.9136
   38CHL1   C21 2790   2.619   2.108   7.811  0.5670 -0.0320  0.2805
   38CHL1  H21A 2791   2.562   2.044   7.741  0.5966 -0.7448  0.8968
   38CHL1  H21B 2792   2.615   2.215   7.780  1.4696 -0.0114  0.2098
   38CHL1  H21C 2793   2.584   2.099   7.916 -6.0842 -0.1365 -1.6962
   38CHL1   C22 2794   2.843   2.169   7.888  0.4267 -0.0345  0.2928
   38CHL1  H22A 2795   2.952   2.150   7.876  0.2371 -0.3387 -1.0875
   38CHL1  H22B 2796   2.824   2.269   7.842  1.2431 -0.1549 -0.3332
   38CHL1   C23 2797   2.810   2.150   8.036  0.3821  0.5732 -0.4083
   38CHL1  H23A 2798   2.701   2.172   8.049  0.2791  0.1718 -0.5897
   38CHL1  H23B 2799   2.816   2.041   8.053 -0.4256  0.8252  1.6425
   38CHL1   C24 2800   2.899   2.223   8.131  0.7584 -0.0606  0.1612
   38CHL1  H24A 2801   3.000   2.183   8.109  1.2483  0.5777  1.2135
   38CHL1  H24B 2802   2.919   2.330   8.105  1.0043 -0.3019 -0.6608
   38CHL1   C25 2803   2.861   2.222   8.281 -0.6223  0.6357  0.4188
   38CHL1   H25 2804   2.756   2.257   8.271 -0.2328  1.2137 -2.2537
   38CHL1   C26 2805   2.850   2.085   8.344 -1.3790 -0.5351  0.4416
   38CHL1  H26A 2806   2.953   2.047   8.363 -0.9883 -0.5219 -1.5222
   38CHL1  H26B 2807   2.794   2.096   8.439  0.0034  2.7771  0.9440
   38CHL1  H26C 2808   2.802   2.017   8.270  1.7890 -2.4617  0.0674
   38CHL1   C27 2809   2.954   2.313   8.357  0.3393  0.0447  0.5786
   38CHL1  H27A 2810   2.946   2.302   8.467  0.7457  1.0410  0.7134
   38CHL1  H27B 2811   3.060   2.303   8.326  0.8905 -1.5344  2.9021
   38CHL1  H27C 2812   2.913   2.414   8.333 -0.9128 -0.8915 -1.3486
   39CHL1    C3 2813   2.498   1.003   6.955  0.2360 -0.2530  0.1884
   39CHL1    H3 2814   2.425   0.927   6.922 -0.4912 -0.3152  1.9195
   39CHL1    O3 2815   2.530   1.077   6.837 -0.2799  0.3754  0.9768
   39CHL1   H3' 2816   2.446   1.093   6.793  0.3250 -0.9770 -0.6883
   39CHL1    C4 2817   2.413   1.097   7.045  0.9046 -0.0214  0.1814
   39CHL1   H4A 2818   2.476   1.188   7.053 -0.7235  1.4173 -2.4920
   39CHL1   H4B 2819   2.328   1.133   6.984  1.5203  1.1149 -0.0116
   39CHL1    C5 2820   2.370   1.039   7.179  0.2090 -0.0798 -0.4435
   39CHL1    C6 2821   2.242   1.046   7.225 -0.3079  0.2174 -0.5009
   39CHL1    H6 2822   2.168   1.097   7.161 -0.5729  1.1250  0.5318
   39CHL1    C7 2823   2.200   1.013   7.364  0.0657  0.2120 -0.1215
   39CHL1   H7A 2824   2.127   1.084   7.409 -0.8891 -0.3723 -0.7062
   39CHL1   H7B 2825   2.156   0.911   7.359 -0.5932  0.5530 -1.5061
   39CHL1    C8 2826   2.323   0.991   7.451 -0.4993  0.2317  0.5303
   39CHL1    H8 2827   2.357   1.092   7.484 -1.0016  0.6867 -0.3180
   39CHL1   C14 2828   2.284   0.929   7.579 -0.1757  0.3436  0.4699
   39CHL1   H14 2829   2.240   0.830   7.554  0.0018  0.0010  1.4887
   39CHL1   C15 2830   2.177   1.001   7.658  0.5745 -1.0559 -0.6598
   39CHL1  H15A 2831   2.203   1.109   7.660  0.6466 -0.9881 -3.6726
   39CHL1  H15B 2832   2.080   0.976   7.611  0.1950  1.4482 -1.2878
   39CHL1   C16 2833   2.196   0.948   7.800  0.1269  0.4987 -0.3226
   39CHL1  H16A 2834   2.215   1.029   7.874 -2.5908  1.3927 -0.5369
   39CHL1  H16B 2835   2.109   0.892   7.839 -1.1155  1.5549 -1.5023
   39CHL1   C17 2836   2.321   0.857   7.802 -0.1679  0.9432 -0.2787
   39CHL1   H17 2837   2.283   0.753   7.787 -0.3157  0.9225  0.2350
   39CHL1   C13 2838   2.398   0.893   7.672 -0.0985  0.4344 -0.2369
   39CHL1   C18 2839   2.488   1.021   7.707  0.7229  0.3565 -0.2529
   39CHL1  H18A 2840   2.537   1.060   7.615 -0.9321 -0.7176 -1.6129
   39CHL1  H18B 2841   2.425   1.099   7.754 -1.0380  0.6990 -3.0830
   39CHL1  H18C 2842   2.566   0.989   7.780 -2.7538 -2.6985  2.3005
   39CHL1   C12 2843   2.473   0.781   7.610  0.8507  0.4575  0.1769
   39CHL1  H12A 2844   2.564   0.752   7.666  1.1673  1.1172  0.0097
   39CHL1  H12B 2845   2.402   0.697   7.591 -0.6819  2.2152 -2.2427
   39CHL1   C11 2846   2.527   0.830   7.476 -0.7626 -0.3880 -0.2184
   39CHL1  H11A 2847   2.611   0.901   7.495 -0.4088 -1.7047  3.5581
   39CHL1  H11B 2848   2.569   0.749   7.412 -0.4642 -1.8188  1.7637
   39CHL1    C9 2849   2.430   0.909   7.380  0.0311  0.2585  0.2876
   39CHL1    H9 2850   2.366   0.825   7.347 -2.5898  1.4229  2.2273
   39CHL1   C10 2851   2.492   0.983   7.255  0.3775  0.1148 -0.4476
   39CHL1   C19 2852   2.596   1.086   7.301  0.2783  0.1279 -0.2538
   39CHL1  H19A 2853   2.551   1.147   7.383  3.5712  1.6226  0.5117
   39CHL1  H19B 2854   2.691   1.047   7.344 -0.1880  0.1430  0.8090
   39CHL1  H19C 2855   2.616   1.160   7.221  1.7231 -0.7654 -0.7364
   39CHL1    C1 2856   2.572   0.876   7.166  1.0763  0.4486  0.3664
   39CHL1   H1A 2857   2.657   0.843   7.228  0.5620 -0.3996  0.6293
   39CHL1   H1B 2858   2.498   0.795   7.144  0.2571  0.4822  2.9042
   39CHL1    C2 2859   2.620   0.951   7.031  0.2006  0.0463 -0.2116
   39CHL1   H2A 2860   2.671   0.872   6.973  2.9926  0.8983  1.0324
   39CHL1   H2B 2861   2.686   1.038   7.054 -0.1154  0.5096 -1.0256
   39CHL1   C20 2862   2.395   0.857   7.930  0.1863 -0.5080 -0.1589
   39CHL1   H20 2863   2.447   0.954   7.943  0.6586 -0.5716 -1.4390
   39CHL1   C21 2864   2.502   0.746   7.926 -0.8792 -0.3708  0.2778
   39CHL1  H21A 2865   2.554   0.748   8.025 -0.7978 -0.6818  0.2435
   39CHL1  H21B 2866   2.581   0.775   7.854  0.8999 -3.1440  1.0227
   39CHL1  H21C 2867   2.462   0.646   7.898 -0.7629  0.1101 -1.6696
   39CHL1   C22 2868   2.310   0.821   8.056 -0.3573  0.0075  0.4269
   39CHL1  H22A 2869   2.226   0.894   8.052 -0.5325 -0.1721  0.9110
   39CHL1  H22B 2870   2.276   0.717   8.039 -0.8548  0.1876  0.3234
   39CHL1   C23 2871   2.389   0.852   8.185 -0.2387  0.1333  0.1800
   39CHL1  H23A 2872   2.461   0.772   8.213  0.2595  0.6214  0.2854
   39CHL1  H23B 2873   2.443   0.945   8.157 -0.6464 -0.0977 -1.4268
   39CHL1   C24 2874   2.298   0.868   8.307 -0.2526  0.4678 -0.7832
   39CHL1  H24A 2875   2.202   0.923   8.292 -0.2351  0.0555 -2.4697
   39CHL1  H24B 2876   2.270   0.761   8.323  1.0153  0.3536  0.7946
   39CHL1   C25 2877   2.368   0.907   8.434  0.9561  0.8167 -0.4176
   39CHL1   H25 2878   2.386   1.016   8.430  2.4998  0.6027  0.3079
   39CHL1   C26 2879   2.284   0.897   8.558  0.2984  0.4513 -0.4155
   39CHL1  H26A 2880   2.202   0.972   8.559  0.1955  0.4173 -3.0497
   39CHL1  H26B 2881   2.237   0.796   8.560 -1.5991  1.2687 -2.2266
   39CHL1  H26C 2882   2.336   0.911   8.655 -3.2349 -0.6297  1.7547
   39CHL1   C27 2883   2.487   0.832   8.475 -0.2050 -0.1881  0.0322
   39CHL1  H27A 2884   2.544   0.867   8.564  0.6430 -1.1776 -0.1122
   39CHL1  H27B 2885   2.459   0.725   8.484 -0.6265 -0.0620  0.2546
   39CHL1  H27C 2886   2.567   0.833   8.398 -0.3573 -1.7853 -0.1662
   40CHL1    C3 2887   6.000   6.290   6.784 -0.1091 -0.4122 -0.3193
   40CHL1    H3 2888   6.104   6.325   6.767 -0.6948  2.2797  1.1933
   40CHL1    O3 2889   5.954   6.237   6.661  0.2393  0.3674  0.0352
   40CHL1   H3' 2890   6.013   6.166   6.633  0.7276  1.5654 -2.0423
   40CHL1    C4 2891   5.994   6.193   6.899  0.1916 -0.5771  0.7592
   40CHL1   H4A 2892   5.895   6.145   6.886 -1.0371  2.0858 -0.1772
   40CHL1   H4B 2893   6.070   6.115   6.879 -0.0988 -0.4933 -0.7720
   40CHL1    C5 2894   6.002   6.249   7.041 -0.0956  0.1951 -0.1347
   40CHL1    C6 2895   6.089   6.195   7.126 -0.0343  0.4178  0.4092
   40CHL1    H6 2896   6.141   6.102   7.100 -1.9277 -0.1247 -1.5731
   40CHL1    C7 2897   6.114   6.250   7.269  0.2488  0.1371 -0.1038
   40CHL1   H7A 2898   6.110   6.173   7.349 -0.6527  0.7259  0.4278
   40CHL1   H7B 2899   6.208   6.309   7.276  0.4788  0.0902 -2.3566
   40CHL1    C8 2900   5.995   6.340   7.312 -0.2585  0.2014  0.3718
   40CHL1    H8 2901   5.904   6.278   7.308 -0.1845  0.0342  1.2054
   40CHL1   C14 2902   6.021   6.392   7.450 -0.4748  0.6791 -0.3945
   40CHL1   H14 2903   6.111   6.457   7.443  1.6887 -2.2390 -0.8496
   40CHL1   C15 2904   6.067   6.288   7.562 -0.2501 -0.9444 -0.0639
   40CHL1  H15A 2905   6.019   6.189   7.548 -1.6169  0.0257 -2.6749
   40CHL1  H15B 2906   6.171   6.250   7.559  0.0441 -0.0596 -2.7369
   40CHL1   C16 2907   6.028   6.355   7.686 -0.2199 -0.0907  0.5662
   40CHL1  H16A 2908   5.962   6.298   7.754  0.3014  0.2311  1.3610
   40CHL1  H16B 2909   6.126   6.382   7.732 -0.1146 -1.1055  0.9358
   40CHL1   C17 2910   5.959   6.490   7.652 -0.4486 -0.7377  0.2603
   40CHL1   H17 2911   6.040   6.566   7.655 -1.0455  0.0192 -1.6364
   40CHL1   C13 2912   5.912   6.473   7.510 -0.3461 -0.1252 -0.2818
   40CHL1   C18 2913   5.779   6.401   7.503 -0.4847  0.1446  0.1753
   40CHL1  H18A 2914   5.786   6.305   7.558 -2.0683  0.5835  1.1944
   40CHL1  H18B 2915   5.709   6.466   7.561 -0.8758  0.1253 -0.2659
   40CHL1  H18C 2916   5.729   6.384   7.405 -0.0784 -0.5889  0.0909
   40CHL1   C12 2917   5.911   6.599   7.414  0.7276 -0.9184  0.4650
   40CHL1  H12A 2918   5.829   6.671   7.437  0.3814 -0.8485 -0.9530
   40CHL1  H12B 2919   6.008   6.648   7.434  1.0588 -1.5042  0.2979
   40CHL1   C11 2920   5.889   6.556   7.271 -0.3629  0.4361 -0.6055
   40CHL1  H11A 2921   5.782   6.527   7.267 -0.2160 -0.0157 -1.3607
   40CHL1  H11B 2922   5.894   6.650   7.211  0.0422  2.7568  2.8980
   40CHL1    C9 2923   5.979   6.445   7.216 -0.1074 -0.7355 -0.9596
   40CHL1    H9 2924   6.079   6.492   7.202 -0.7168  1.3432  1.2771
   40CHL1   C10 2925   5.931   6.380   7.077 -1.0433  0.3009  0.8215
   40CHL1   C19 2926   5.776   6.348   7.069  0.3681 -0.2091 -0.2969
   40CHL1  H19A 2927   5.726   6.447   7.079  2.0123  0.4506  1.9341
   40CHL1  H19B 2928   5.759   6.307   6.967 -0.1887 -2.0179  0.5138
   40CHL1  H19C 2929   5.739   6.278   7.146  0.8420 -0.1433 -0.0092
   40CHL1    C1 2930   5.967   6.477   6.949 -0.4189 -0.8768 -0.0803
   40CHL1   H1A 2931   5.916   6.573   6.975 -0.4188 -1.3859  1.8712
   40CHL1   H1B 2932   6.077   6.494   6.956 -0.4519 -0.6836 -0.0216
   40CHL1    C2 2933   5.923   6.420   6.810 -0.1609 -0.0248 -0.9278
   40CHL1   H2A 2934   5.937   6.494   6.729 -0.1199 -1.1128 -1.9232
   40CHL1   H2B 2935   5.814   6.400   6.806 -0.0704 -0.6756 -0.1811
   40CHL1   C20 2936   5.866   6.545   7.759 -0.1039 -0.1455 -0.0514
   40CHL1   H20 2937   5.793   6.464   7.780 -0.3929 -0.3660 -1.8062
   40CHL1   C21 2938   5.806   6.678   7.725  0.2115  0.0782 -0.1479
   40CHL1  H21A 2939   5.730   6.721   7.794 -1.4921 -0.3641 -1.7010
   40CHL1  H21B 2940   5.756   6.667   7.626  0.0687  1.7217 -0.2853
   40CHL1  H21C 2941   5.884   6.755   7.709 -0.4149  0.8393  0.3963
   40CHL1   C22 2942   5.933   6.559   7.895 -0.7583  0.7142 -0.7492
   40CHL1  H22A 2943   5.966   6.455   7.918 -1.0298  0.2918 -2.1852
   40CHL1  H22B 2944   6.026   6.618   7.888  0.4580 -1.1093 -0.3278
   40CHL1   C23 2945   5.830   6.592   8.008 -0.1638 -0.3885 -0.7398
   40CHL1  H23A 2946   5.821   6.702   7.999  2.4395 -0.1272 -0.5685
   40CHL1  H23B 2947   5.733   6.546   7.979 -0.7828 -0.1886  0.9424
   40CHL1   C24 2948   5.869   6.563   8.153 -0.8303 -0.7598 -0.5661
   40CHL1  H24A 2949   5.876   6.453   8.162 -1.1964 -0.8587 -1.3937
   40CHL1  H24B 2950   5.973   6.592   8.178 -1.2029  0.2001 -0.0889
   40CHL1   C25 2951   5.781   6.612   8.263  0.4279 -0.3640 -0.1849
   40CHL1   H25 2952   5.682   6.601   8.213  0.2718 -0.6340  0.1852
   40CHL1   C26 2953   5.801   6.519   8.384 -0.1543  0.0285  0.9464
   40CHL1  H26A 2954   5.757   6.562   8.476 -1.2249  1.9868 -0.4295
   40CHL1  H26B 2955   5.758   6.419   8.365  0.2097  0.3010 -1.5658
   40CHL1  H26C 2956   5.911   6.506   8.401 -0.1763  0.9000  1.8064
   40CHL1   C27 2957   5.798   6.755   8.304  0.0033  0.0763  0.1099
   40CHL1  H27A 2958   5.895   6.785   8.349  0.3386  1.0806 -1.2571
   40CHL1  H27B 2959   5.792   6.815   8.211  1.2765  0.5408  0.3132
   40CHL1  H27C 2960   5.716   6.796   8.368  1.7156  1.4761  1.4759
   41CHL1    C3 2961   5.976   5.730   7.037  0.4411  0.3702  0.8386
   41CHL1    H3 2962   6.081   5.730   7.072  1.4242 -2.9041 -1.9286
   41CHL1    O3 2963   5.985   5.699   6.899  0.2991 -0.3178 -0.0241
   41CHL1   H3' 2964   5.937   5.617   6.884  2.6654 -1.3990 -2.2166
   41CHL1    C4 2965   5.907   5.621   7.121  0.0609 -1.0702 -0.2472
   41CHL1   H4A 2966   5.803   5.595   7.091 -0.5692 -0.3580  1.2595
   41CHL1   H4B 2967   5.972   5.531   7.118  0.5299 -0.7038 -1.0446
   41CHL1    C5 2968   5.907   5.661   7.269  0.3812 -0.1421  0.8992
   41CHL1    C6 2969   5.971   5.583   7.354 -0.0786 -0.4994  0.4783
   41CHL1    H6 2970   6.026   5.496   7.315  0.0784 -1.1020  1.9986
   41CHL1    C7 2971   5.973   5.610   7.504 -0.0237  0.3931 -0.3245
   41CHL1   H7A 2972   5.951   5.518   7.563 -1.1497  0.4375 -0.6544
   41CHL1   H7B 2973   6.074   5.646   7.529  0.0793 -0.2564  0.2160
   41CHL1    C8 2974   5.868   5.716   7.546 -0.3769 -0.1421 -0.6468
   41CHL1    H8 2975   5.767   5.670   7.551 -0.3907 -0.0069  0.7012
   41CHL1   C14 2976   5.902   5.768   7.684  0.1528 -0.3872 -0.5917
   41CHL1   H14 2977   6.009   5.795   7.687 -0.1972  0.9124  0.9230
   41CHL1   C15 2978   5.897   5.664   7.806  0.0943 -0.2456  0.0590
   41CHL1  H15A 2979   5.812   5.592   7.798  0.1065  0.1300 -4.6203
   41CHL1  H15B 2980   5.984   5.594   7.805 -0.6586 -1.2054  0.3175
   41CHL1   C16 2981   5.894   5.748   7.926 -0.4214  0.0447 -0.3570
   41CHL1  H16A 2982   5.801   5.729   7.983 -1.3971 -1.1583 -2.3030
   41CHL1  H16B 2983   5.981   5.738   7.995 -0.0081  0.7735 -0.7649
   41CHL1   C17 2984   5.869   5.900   7.887 -0.2883 -0.2492  0.3121
   41CHL1   H17 2985   5.970   5.945   7.886 -0.2955 -0.1219  2.7726
   41CHL1   C13 2986   5.816   5.886   7.737 -0.6356 -0.3849  0.0733
   41CHL1   C18 2987   5.671   5.834   7.736 -0.7888  0.3882 -0.3906
   41CHL1  H18A 2988   5.661   5.734   7.784  1.2264 -0.0291 -0.7878
   41CHL1  H18B 2989   5.598   5.898   7.791 -2.5600 -0.6717 -1.4532
   41CHL1  H18C 2990   5.627   5.821   7.635  0.1452 -1.2618 -0.6022
   41CHL1   C12 2991   5.824   6.004   7.639  0.4351  0.2543  0.0803
   41CHL1  H12A 2992   5.753   6.083   7.673 -2.4976 -2.5392  0.6497
   41CHL1  H12B 2993   5.928   6.040   7.650  0.3690  0.5763 -0.3600
   41CHL1   C11 2994   5.802   5.964   7.494 -0.5705  0.5947  0.1545
   41CHL1  H11A 2995   5.691   5.952   7.489 -0.4158 -1.8283  1.9818
   41CHL1  H11B 2996   5.834   6.049   7.429 -0.7645 -0.2727 -1.0805
   41CHL1    C9 2997   5.876   5.833   7.454 -0.2793 -0.5367 -0.2465
   41CHL1    H9 2998   5.983   5.862   7.453 -0.6552  0.9301  0.6535
   41CHL1   C10 2999   5.840   5.789   7.307  0.1583  0.4431  0.7550
   41CHL1   C19 3000   5.687   5.781   7.292  0.1640 -0.8224 -0.0483
   41CHL1  H19A 3001   5.660   5.738   7.194 -0.0543  0.6991 -0.6629
   41CHL1  H19B 3002   5.632   5.735   7.377 -0.2023 -0.1390  0.0844
   41CHL1  H19C 3003   5.646   5.884   7.281 -0.2262 -0.5071  3.4969
   41CHL1    C1 3004   5.893   5.902   7.203 -1.2459 -0.2153  0.5545
   41CHL1   H1A 3005   5.829   5.992   7.204 -1.4869 -0.3799  0.2255
   41CHL1   H1B 3006   5.995   5.924   7.242 -0.3176 -0.5578 -1.6256
   41CHL1    C2 3007   5.896   5.863   7.055  0.1208 -0.1782 -0.7890
   41CHL1   H2A 3008   5.937   5.949   6.999  1.5392 -1.5221 -1.8633
   41CHL1   H2B 3009   5.791   5.840   7.028 -0.7443 -2.9910  4.3572
   41CHL1   C20 3010   5.789   5.977   7.994 -0.4653 -0.2818  0.0555
   41CHL1   H20 3011   5.686   5.937   7.989 -1.0730  1.4862 -2.5016
   41CHL1   C21 3012   5.776   6.127   7.961 -0.2769 -0.7405 -0.8414
   41CHL1  H21A 3013   5.715   6.174   8.041  0.7594  0.6992 -0.8641
   41CHL1  H21B 3014   5.743   6.160   7.860 -2.4904 -1.6903 -0.4562
   41CHL1  H21C 3015   5.877   6.173   7.972 -0.7582 -0.3540  2.4174
   41CHL1   C22 3016   5.853   5.953   8.138  0.4021  0.8351  0.7692
   41CHL1  H22A 3017   5.847   5.846   8.166  0.8064  0.2971 -1.1358
   41CHL1  H22B 3018   5.958   5.984   8.119 -0.2455  1.6467 -1.5985
   41CHL1   C23 3019   5.785   6.039   8.249  0.0585 -0.3955 -0.4132
   41CHL1  H23A 3020   5.784   6.147   8.223  0.3784 -0.1754  0.4723
   41CHL1  H23B 3021   5.680   6.004   8.252 -0.4002  0.9205 -0.9293
   41CHL1   C24 3022   5.856   6.023   8.388 -0.1149 -0.3785  0.1178
   41CHL1  H24A 3023   5.855   5.915   8.415 -1.1633 -0.8660 -1.6873
   41CHL1  H24B 3024   5.964   6.046   8.395  0.0250 -1.3162  1.2110
   41CHL1   C25 3025   5.779   6.091   8.506 -0.4413  1.3100  0.9895
   41CHL1   H25 3026   5.778   6.200   8.485 -0.7576  1.3278  1.0885
   41CHL1   C26 3027   5.632   6.052   8.518 -0.5251 -0.1672  0.3829
   41CHL1  H26A 3028   5.585   6.113   8.598  0.7125  1.5334 -0.1497
   41CHL1  H26B 3029   5.580   6.064   8.420  0.5287 -1.6191 -0.3723
   41CHL1  H26C 3030   5.635   5.946   8.551 -1.7748 -0.3490 -0.0705
   41CHL1   C27 3031   5.846   6.060   8.639  0.2044  0.6255 -0.2026
   41CHL1  H27A 3032   5.804   5.972   8.693  2.9793 -0.9808 -0.5921
   41CHL1  H27B 3033   5.954   6.055   8.617  0.5680 -0.9946  1.8204
   41CHL1  H27C 3034   5.824   6.148   8.702 -0.3833  0.3008  0.0514
   42CHL1    C3 3035   0.136   3.088   6.957  0.2914 -0.5614 -1.1795
   42CHL1    H3 3036   0.241   3.122   6.952  1.0053 -2.2234  1.4593
   42CHL1    O3 3037   0.099   3.037   6.834  0.1529 -0.3092 -0.2378
   42CHL1   H3' 3038   0.004   3.031   6.823  0.2536 -0.7269 -0.9417
   42CHL1    C4 3039   0.128   2.985   7.073  0.0152 -0.7378  0.5325
   42CHL1   H4A 3040   0.037   2.924   7.057 -1.2331  0.5842  2.4090
   42CHL1   H4B 3041   0.205   2.910   7.046 -0.9022 -1.5609  0.1836
   42CHL1    C5 3042   0.146   3.046   7.213  0.2832  0.3076 -0.9542
   42CHL1    C6 3043   0.229   2.985   7.300 -0.4891 -0.1767  0.5127
   42CHL1    H6 3044   0.289   2.897   7.274 -0.4596  0.0377 -0.1605
   42CHL1    C7 3045   0.243   3.026   7.447  0.0427  0.4908 -0.1639
   42CHL1   H7A 3046   0.225   2.940   7.516 -1.3319  1.1865  0.3652
   42CHL1   H7B 3047   0.348   3.056   7.461  1.1437 -2.4292 -1.7510
   42CHL1    C8 3048   0.137   3.135   7.490 -0.7809  0.3484 -0.7785
   42CHL1    H8 3049   0.044   3.080   7.513 -2.9842  3.4032 -2.0878
   42CHL1   C14 3050   0.180   3.203   7.618  0.7097 -0.7180  1.4473
   42CHL1   H14 3051   0.266   3.269   7.596 -0.8264  1.1955  0.9798
   42CHL1   C15 3052   0.226   3.121   7.734 -0.4118  0.3571 -0.8623
   42CHL1  H15A 3053   0.161   3.036   7.764 -0.5712  1.3835  1.7765
   42CHL1  H15B 3054   0.330   3.089   7.713  0.5248  1.2817  2.2199
   42CHL1   C16 3055   0.227   3.220   7.849  0.0732 -0.3909  0.3284
   42CHL1  H16A 3056   0.186   3.171   7.940 -1.1400 -1.8408 -0.9687
   42CHL1  H16B 3057   0.332   3.244   7.874  0.4458 -0.8736 -0.7809
   42CHL1   C17 3058   0.149   3.349   7.800  0.3033 -0.0072 -1.0127
   42CHL1   H17 3059   0.233   3.413   7.766  0.6294 -1.6204 -3.3027
   42CHL1   C13 3060   0.077   3.312   7.671  0.7971  0.8557  0.1085
   42CHL1   C18 3061  -0.056   3.250   7.714 -0.0681  0.0286  0.1958
   42CHL1  H18A 3062  -0.111   3.210   7.626  0.9984  1.0105 -0.9362
   42CHL1  H18B 3063  -0.047   3.175   7.796  0.6863  1.6106  1.5813
   42CHL1  H18C 3064  -0.128   3.326   7.752 -1.7833 -0.2564 -2.3778
   42CHL1   C12 3065   0.080   3.421   7.564 -0.1340  1.1460 -1.3154
   42CHL1  H12A 3066   0.011   3.507   7.580 -1.6605 -0.1705 -0.8306
   42CHL1  H12B 3067   0.186   3.456   7.568  0.9473 -2.0631 -1.0480
   42CHL1   C11 3068   0.045   3.368   7.420 -0.3547 -0.3357  0.2620
   42CHL1  H11A 3069  -0.064   3.350   7.420 -0.2304 -1.3855 -2.7334
   42CHL1  H11B 3070   0.064   3.450   7.348  3.2612  0.6638  2.2162
   42CHL1    C9 3071   0.120   3.241   7.378  0.5003  0.0688  0.6388
   42CHL1    H9 3072   0.226   3.276   7.375  0.9521 -0.9915  2.9500
   42CHL1   C10 3073   0.069   3.181   7.240  0.2114  0.1277  0.3034
   42CHL1   C19 3074  -0.083   3.144   7.263  0.1984 -0.5039  0.2245
   42CHL1  H19A 3075  -0.141   3.079   7.194  0.6983  1.2965 -1.9348
   42CHL1  H19B 3076  -0.107   3.103   7.364 -1.8336 -0.8120 -0.3722
   42CHL1  H19C 3077  -0.137   3.240   7.261  2.3483  0.7306 -0.8987
   42CHL1    C1 3078   0.087   3.279   7.124  0.2456  0.4787  0.3533
   42CHL1   H1A 3079   0.026   3.370   7.143 -1.2756 -1.0139  2.9461
   42CHL1   H1B 3080   0.192   3.317   7.122 -0.0477  1.3344  0.9207
   42CHL1    C2 3081   0.058   3.219   6.987  0.3939  0.6073 -0.0300
   42CHL1   H2A 3082   0.073   3.291   6.904 -3.0032  2.3711  0.7690
   42CHL1   H2B 3083  -0.051   3.195   6.980  0.3413  0.1002  2.0716
   42CHL1   C20 3084   0.089   3.431   7.913 -0.2716  0.1225 -0.2974
   42CHL1   H20 3085   0.006   3.380   7.966 -1.8524  0.3055 -2.5448
   42CHL1   C21 3086   0.039   3.561   7.849  0.3877 -0.4453  0.4444
   42CHL1  H21A 3087  -0.033   3.533   7.769  1.4796 -0.0195 -0.6913
   42CHL1  H21B 3088   0.118   3.618   7.797 -0.2106  0.5046  0.5742
   42CHL1  H21C 3089  -0.012   3.635   7.915  0.6232  1.4352 -1.4509
   42CHL1   C22 3090   0.190   3.469   8.023 -0.2471  0.5798  0.0933
   42CHL1  H22A 3091   0.262   3.388   8.049 -1.3853  0.0979  1.8006
   42CHL1  H22B 3092   0.255   3.553   7.988 -0.9071 -0.7239 -4.6372
   42CHL1   C23 3093   0.111   3.505   8.150 -0.1209  0.8866 -0.3781
   42CHL1  H23A 3094   0.054   3.596   8.123 -3.1567 -1.0174 -0.6938
   42CHL1  H23B 3095   0.044   3.423   8.184 -0.7890  3.1571  4.1042
   42CHL1   C24 3096   0.209   3.535   8.268  0.5678 -0.3903 -0.4414
   42CHL1  H24A 3097   0.257   3.440   8.301 -0.2613 -0.6032  0.1644
   42CHL1  H24B 3098   0.285   3.600   8.221  1.5695 -1.9598 -1.0359
   42CHL1   C25 3099   0.156   3.609   8.387  0.0967  0.2193  0.4299
   42CHL1   H25 3100   0.104   3.703   8.357 -0.9930 -0.3524  0.4760
   42CHL1   C26 3101   0.061   3.521   8.470 -0.3468  0.5901 -0.0083
   42CHL1  H26A 3102   0.023   3.569   8.564  1.0281  2.7262 -0.5196
   42CHL1  H26B 3103  -0.036   3.500   8.421 -0.0118  2.2760 -1.4165
   42CHL1  H26C 3104   0.105   3.421   8.492 -1.1544 -0.3874 -2.6856
   42CHL1   C27 3105   0.277   3.654   8.473 -0.1075 -0.1238  0.0509
   42CHL1  H27A 3106   0.246   3.710   8.563 -1.8245  0.3965 -0.8408
   42CHL1  H27B 3107   0.334   3.719   8.402  0.2399  1.6333  1.8792
   42CHL1  H27C 3108   0.334   3.565   8.505 -0.7592 -0.4778  0.2302
   43CHL1    C3 3109   0.508   0.747   6.776  0.5780 -0.3458  0.1206
   43CHL1    H3 3110   0.608   0.785   6.807  1.1367 -1.0613 -0.7630
   43CHL1    O3 3111   0.505   0.748   6.632  0.0870  0.0212 -0.2534
   43CHL1   H3' 3112   0.588   0.705   6.608  0.5481  0.4180  0.6063
   43CHL1    C4 3113   0.496   0.603   6.828  0.4764  0.3206  0.6802
   43CHL1   H4A 3114   0.391   0.575   6.805  0.4837  0.7558  0.0908
   43CHL1   H4B 3115   0.561   0.525   6.785 -1.8403 -2.1502  1.5019
   43CHL1    C5 3116   0.506   0.610   6.980  0.1654 -0.7033 -0.0769
   43CHL1    C6 3117   0.614   0.568   7.039  0.0078 -0.3344  0.3686
   43CHL1    H6 3118   0.700   0.527   6.984  0.0035 -0.8987  0.7721
   43CHL1    C7 3119   0.637   0.568   7.190  0.0050 -0.2485  0.0977
   43CHL1   H7A 3120   0.668   0.469   7.229 -2.2356 -1.1772 -0.4566
   43CHL1   H7B 3121   0.719   0.636   7.222 -0.5114  1.3610 -1.9123
   43CHL1    C8 3122   0.504   0.601   7.264 -0.8187 -1.0476  0.4591
   43CHL1    H8 3123   0.443   0.513   7.237  1.3761 -2.7322  0.8758
   43CHL1   C14 3124   0.530   0.635   7.413  0.4995 -0.1458 -0.6685
   43CHL1   H14 3125   0.582   0.733   7.415 -1.6364  1.0224 -0.0009
   43CHL1   C15 3126   0.612   0.537   7.495  0.8751 -0.3187 -0.4647
   43CHL1  H15A 3127   0.563   0.440   7.472  0.3688 -0.5620  1.5253
   43CHL1  H15B 3128   0.721   0.543   7.477  1.1743  1.7145  1.7536
   43CHL1   C16 3129   0.575   0.568   7.646 -0.1769  0.2783 -0.8395
   43CHL1  H16A 3130   0.536   0.476   7.696  0.5291  1.9892  3.0460
   43CHL1  H16B 3131   0.663   0.605   7.703  0.8240 -2.4815 -0.5133
   43CHL1   C17 3132   0.465   0.676   7.639 -0.7354  0.3220 -0.2438
   43CHL1   H17 3133   0.518   0.773   7.631 -1.0849  0.6429  1.2563
   43CHL1   C13 3134   0.403   0.666   7.495  0.2318 -0.2196  0.2729
   43CHL1   C18 3135   0.305   0.545   7.503 -0.3975 -0.3213 -0.0307
   43CHL1  H18A 3136   0.204   0.581   7.534  0.3519  1.1211  0.7684
   43CHL1  H18B 3137   0.304   0.506   7.399  1.6479  0.0953 -0.2308
   43CHL1  H18C 3138   0.342   0.456   7.558  2.8345  0.6774 -0.4647
   43CHL1   C12 3139   0.348   0.787   7.429 -0.1545 -0.2488  1.0800
   43CHL1  H12A 3140   0.261   0.825   7.487 -1.1900  1.2967 -1.4333
   43CHL1  H12B 3141   0.406   0.881   7.432 -1.7412  0.7822  0.2333
   43CHL1   C11 3142   0.309   0.766   7.279 -0.0410 -0.4986 -0.6512
   43CHL1  H11A 3143   0.224   0.696   7.291 -0.6745  0.5179  0.8972
   43CHL1  H11B 3144   0.277   0.864   7.239  0.8595  0.6406  1.3370
   43CHL1    C9 3145   0.428   0.710   7.196  1.2166  0.5702 -0.5400
   43CHL1    H9 3146   0.499   0.796   7.200  0.6101  1.0104  1.2798
   43CHL1   C10 3147   0.399   0.699   7.048 -0.0856  0.2336 -0.4504
   43CHL1   C19 3148   0.265   0.622   7.028  0.4554  0.0706  0.0159
   43CHL1  H19A 3149   0.174   0.666   7.074 -1.1900  0.3973 -3.3601
   43CHL1  H19B 3150   0.244   0.621   6.919  0.1324 -1.4353  0.0810
   43CHL1  H19C 3151   0.274   0.515   7.057 -4.9233 -0.4525  0.1994
   43CHL1    C1 3152   0.404   0.832   6.988  0.4590  0.4358  0.3780
   43CHL1   H1A 3153   0.312   0.878   7.031 -0.6343  1.2116 -2.6177
   43CHL1   H1B 3154   0.486   0.895   7.028 -0.5391  0.4965  2.3923
   43CHL1    C2 3155   0.402   0.835   6.828  0.0083 -0.0117 -0.4245
   43CHL1   H2A 3156   0.434   0.940   6.811  0.5606 -0.0005  0.6023
   43CHL1   H2B 3157   0.303   0.830   6.778 -0.4334  2.3007  0.1254
   43CHL1   C20 3158   0.371   0.692   7.761 -0.6774  0.0602  0.4428
   43CHL1   H20 3159   0.279   0.743   7.725 -0.7710  0.3992  1.1445
   43CHL1   C21 3160   0.445   0.792   7.853 -0.5665 -0.2165 -0.1717
   43CHL1  H21A 3161   0.395   0.784   7.951  0.6083  4.0983  0.8580
   43CHL1  H21B 3162   0.440   0.892   7.806 -1.2510  0.6660  1.7601
   43CHL1  H21C 3163   0.555   0.777   7.858 -0.1468  2.5520 -0.2559
   43CHL1   C22 3164   0.335   0.559   7.833  0.3016  0.3436 -0.5641
   43CHL1  H22A 3165   0.319   0.474   7.763 -0.6989  0.1585 -0.1199
   43CHL1  H22B 3166   0.416   0.527   7.903 -1.0199 -1.6846  0.1057
   43CHL1   C23 3167   0.200   0.574   7.908  0.0406  0.0299 -0.0940
   43CHL1  H23A 3168   0.200   0.658   7.981  0.3577  1.0703 -1.2621
   43CHL1  H23B 3169   0.114   0.603   7.844  0.1002  1.8417  0.6080
   43CHL1   C24 3170   0.162   0.447   7.983  0.1612  0.1097  0.2469
   43CHL1  H24A 3171   0.059   0.459   8.025  0.2056  1.9039 -0.1102
   43CHL1  H24B 3172   0.172   0.360   7.915  2.4681 -1.6767  2.7644
   43CHL1   C25 3173   0.255   0.413   8.102 -0.7539  0.0193  0.5177
   43CHL1   H25 3174   0.355   0.389   8.061 -0.3047  3.8645 -0.8752
   43CHL1   C26 3175   0.256   0.528   8.200  0.5769  0.4820 -1.1775
   43CHL1  H26A 3176   0.301   0.487   8.293 -0.6870 -0.4029 -0.9388
   43CHL1  H26B 3177   0.307   0.619   8.164 -0.0380  1.2969 -0.0442
   43CHL1  H26C 3178   0.148   0.550   8.219  0.2421 -1.1496 -1.0827
   43CHL1   C27 3179   0.219   0.281   8.169 -0.7254  0.0449 -0.2524
   43CHL1  H27A 3180   0.191   0.202   8.097  0.6645 -0.1956 -0.5474
   43CHL1  H27B 3181   0.303   0.258   8.237 -1.4206  1.5441  1.1522
   43CHL1  H27C 3182   0.128   0.300   8.230 -0.5270  1.7430 -0.4490
   44CHL1    C3 3183   0.525   6.139   6.680 -0.3553 -0.6131 -0.3856
   44CHL1    H3 3184   0.448   6.218   6.669 -0.0143 -0.2195  0.0389
   44CHL1    O3 3185   0.570   6.084   6.560  0.3152 -0.0553  0.3984
   44CHL1   H3' 3186   0.489   6.084   6.509  0.4177 -1.6389  0.2287
   44CHL1    C4 3187   0.647   6.211   6.747  0.0609 -0.4316 -0.8521
   44CHL1   H4A 3188   0.728   6.134   6.744  0.0645 -0.4764  0.2410
   44CHL1   H4B 3189   0.678   6.293   6.678 -0.6548  1.5431  1.1304
   44CHL1    C5 3190   0.622   6.262   6.885  0.3032  0.5269 -0.0210
   44CHL1    C6 3191   0.650   6.391   6.926 -1.2011  0.3311  0.4529
   44CHL1    H6 3192   0.696   6.464   6.857 -0.5446  1.6883  2.3111
   44CHL1    C7 3193   0.646   6.433   7.069 -0.3343 -0.2234 -0.1564
   44CHL1   H7A 3194   0.744   6.474   7.100 -0.6856  0.4243  0.1054
   44CHL1   H7B 3195   0.566   6.507   7.093 -0.9114 -0.5505 -1.0232
   44CHL1    C8 3196   0.633   6.314   7.174 -0.0633  0.1828 -0.3164
   44CHL1    H8 3197   0.736   6.274   7.189  0.0068  0.0645 -1.1276
   44CHL1   C14 3198   0.572   6.368   7.307  0.0622  0.3289  0.3680
   44CHL1   H14 3199   0.465   6.392   7.286  0.1689  1.7206  1.3995
   44CHL1   C15 3200   0.628   6.493   7.378  0.1362 -0.5185 -0.5784
   44CHL1  H15A 3201   0.733   6.464   7.400  0.0810  1.6849  3.0190
   44CHL1  H15B 3202   0.620   6.586   7.317 -0.0622 -1.4895 -2.0458
   44CHL1   C16 3203   0.546   6.492   7.508  0.1657  0.8302  0.6896
   44CHL1  H16A 3204   0.624   6.533   7.575  2.7871 -1.0178 -1.1268
   44CHL1  H16B 3205   0.453   6.552   7.498  0.6109  1.4197  0.0433
   44CHL1   C17 3206   0.498   6.346   7.532 -0.2304  0.4137  0.3285
   44CHL1   H17 3207   0.389   6.344   7.511 -0.5676  1.8639  1.8340
   44CHL1   C13 3208   0.558   6.260   7.417  0.4703  0.3515 -0.1008
   44CHL1   C18 3209   0.692   6.207   7.467  0.5390  0.3754 -0.9090
   44CHL1  H18A 3210   0.747   6.279   7.530  0.9354 -0.5148 -0.2238
   44CHL1  H18B 3211   0.680   6.118   7.533 -1.3179  1.1246 -0.2094
   44CHL1  H18C 3212   0.757   6.173   7.384 -0.5257 -4.0167 -0.0656
   44CHL1   C12 3213   0.463   6.155   7.367 -0.3299  0.1916 -0.0150
   44CHL1  H12A 3214   0.455   6.066   7.433  1.2427 -0.7079 -0.9978
   44CHL1  H12B 3215   0.361   6.195   7.349 -0.2127 -0.1917 -1.5693
   44CHL1   C11 3216   0.505   6.096   7.228 -0.4977 -0.1848 -0.3392
   44CHL1  H11A 3217   0.597   6.034   7.227 -0.5756 -0.2976 -0.7193
   44CHL1  H11B 3218   0.426   6.031   7.185 -0.2275 -2.0454  1.8464
   44CHL1    C9 3219   0.536   6.207   7.123  0.0852  0.0169  0.3841
   44CHL1    H9 3220   0.444   6.269   7.123  1.1793  1.6967  1.6344
   44CHL1   C10 3221   0.557   6.154   6.979 -0.5465  0.6393  0.3893
   44CHL1   C19 3222   0.668   6.057   6.991 -0.9663 -0.0399  0.5072
   44CHL1  H19A 3223   0.639   5.971   7.057  1.4718 -0.9175  0.5015
   44CHL1  H19B 3224   0.695   5.997   6.902 -2.0706  0.8468 -0.4432
   44CHL1  H19C 3225   0.761   6.105   7.027 -0.9737  1.2448 -1.1478
   44CHL1    C1 3226   0.430   6.103   6.904  0.4788 -0.0348 -0.1709
   44CHL1   H1A 3227   0.373   6.033   6.970 -0.6629  0.0884 -1.0052
   44CHL1   H1B 3228   0.371   6.195   6.887  2.5117  1.0397 -1.5480
   44CHL1    C2 3229   0.461   6.034   6.768  0.4854 -0.2397 -0.0108
   44CHL1   H2A 3230   0.361   5.996   6.738  0.6906  0.6795 -1.9612
   44CHL1   H2B 3231   0.527   5.945   6.779 -1.8179 -1.7437  1.9841
   44CHL1   C20 3232   0.511   6.301   7.684  0.5895 -0.2861 -0.1636
   44CHL1   H20 3233   0.617   6.281   7.709  0.7042  0.2388 -0.2058
   44CHL1   C21 3234   0.434   6.164   7.683 -0.8338  0.7160  0.4881
   44CHL1  H21A 3235   0.387   6.154   7.783  0.9441 -0.5191  1.2366
   44CHL1  H21B 3236   0.487   6.069   7.659  1.1499  1.1912  2.7953
   44CHL1  H21C 3237   0.356   6.170   7.605 -2.4260  1.9669  2.1454
   44CHL1   C22 3238   0.451   6.403   7.783 -0.5486 -0.3782 -0.0820
   44CHL1  H22A 3239   0.468   6.509   7.755  0.4233 -0.0561  1.6371
   44CHL1  H22B 3240   0.345   6.376   7.801 -0.4857 -0.1259  0.6799
   44CHL1   C23 3241   0.517   6.401   7.922  0.7665  0.7579  0.3707
   44CHL1  H23A 3242   0.540   6.296   7.950  1.8931  1.0154  0.3928
   44CHL1  H23B 3243   0.611   6.458   7.908  0.6900  0.6457 -0.6980
   44CHL1   C24 3244   0.415   6.465   8.031  0.1198  0.2145  0.3837
   44CHL1  H24A 3245   0.404   6.574   8.009 -1.3137  0.0658  0.3255
   44CHL1  H24B 3246   0.318   6.415   8.015  0.3249 -0.2239  0.5048
   44CHL1   C25 3247   0.465   6.460   8.173  0.3828 -0.4575 -0.4366
   44CHL1   H25 3248   0.551   6.526   8.197  0.1511 -0.9139  1.7349
   44CHL1   C26 3249   0.357   6.505   8.270 -0.4134  0.1844 -0.0942
   44CHL1  H26A 3250   0.395   6.507   8.374  1.8042 -1.7646 -0.8090
   44CHL1  H26B 3251   0.323   6.607   8.242 -2.0516  0.4907  2.8427
   44CHL1  H26C 3252   0.267   6.440   8.265  0.6146 -1.2323 -0.5598
   44CHL1   C27 3253   0.517   6.320   8.217 -0.3541  0.3404 -0.0050
   44CHL1  H27A 3254   0.555   6.326   8.322  1.8992 -3.2091 -0.5354
   44CHL1  H27B 3255   0.437   6.244   8.201 -0.1961  0.0334  0.6478
   44CHL1  H27C 3256   0.593   6.280   8.147  1.8707  0.2986  2.3677
   45CHL1    C3 3257   0.880   4.180   6.826  0.4513 -1.2366 -0.1077
   45CHL1    H3 3258   0.886   4.084   6.881 -3.3690 -0.1176  2.4528
   45CHL1    O3 3259   0.906   4.155   6.694 -0.3374  0.1840  0.6078
   45CHL1   H3' 3260   0.853   4.220   6.648 -0.2107 -0.4869 -0.4939
   45CHL1    C4 3261   0.738   4.240   6.850 -0.1193 -0.4510 -0.2001
   45CHL1   H4A 3262   0.711   4.333   6.795 -2.5303 -2.1861 -2.0500
   45CHL1   H4B 3263   0.659   4.173   6.811  0.4287 -1.1808 -0.0546
   45CHL1    C5 3264   0.710   4.252   7.003  0.5155  0.1776 -0.3037
   45CHL1    C6 3265   0.620   4.178   7.065 -0.6389  0.1519  0.6360
   45CHL1    H6 3266   0.550   4.119   7.004  0.7486 -2.3572  1.3946
   45CHL1    C7 3267   0.591   4.161   7.213 -0.0684 -1.1408  0.4498
   45CHL1   H7A 3268   0.481   4.162   7.224 -0.2173 -0.3805 -0.9316
   45CHL1   H7B 3269   0.643   4.076   7.263  0.2196 -1.0006  0.3892
   45CHL1    C8 3270   0.643   4.295   7.280  0.1951  1.1753  0.1493
   45CHL1    H8 3271   0.579   4.378   7.242 -1.9359  0.1810  1.4742
   45CHL1   C14 3272   0.656   4.286   7.430 -0.0967  0.2751 -0.3313
   45CHL1   H14 3273   0.729   4.206   7.457 -0.1478  0.8967  1.7384
   45CHL1   C15 3274   0.529   4.239   7.500  0.6015 -0.1468  0.0641
   45CHL1  H15A 3275   0.446   4.296   7.453 -0.3669 -0.5827  1.2167
   45CHL1  H15B 3276   0.506   4.133   7.475  0.6791  0.1763 -1.4123
   45CHL1   C16 3277   0.546   4.280   7.648 -0.3021  0.3747  0.1053
   45CHL1  H16A 3278   0.455   4.324   7.695  0.3523  0.0029  1.7660
   45CHL1  H16B 3279   0.575   4.194   7.712 -0.8529 -0.3042 -0.5503
   45CHL1   C17 3280   0.682   4.364   7.651 -0.2457 -0.8353  0.5822
   45CHL1   H17 3281   0.758   4.287   7.675 -0.4500 -1.5035 -0.7943
   45CHL1   C13 3282   0.703   4.408   7.501  0.1200  0.2386  0.0995
   45CHL1   C18 3283   0.589   4.514   7.483 -0.3597 -0.2679  0.1281
   45CHL1  H18A 3284   0.632   4.610   7.520  0.0007 -0.2664 -0.2933
   45CHL1  H18B 3285   0.570   4.538   7.377  1.6014  1.3782  0.1246
   45CHL1  H18C 3286   0.499   4.497   7.547 -2.1141  1.1265 -1.8987
   45CHL1   C12 3287   0.847   4.449   7.458  0.5677 -0.0532 -0.5669
   45CHL1  H12A 3288   0.878   4.546   7.502  2.3307 -1.0150  0.3856
   45CHL1  H12B 3289   0.928   4.375   7.478  0.5213  0.2876  0.9307
   45CHL1   C11 3290   0.860   4.448   7.307  0.0572  0.0379  0.5626
   45CHL1  H11A 3291   0.806   4.542   7.281 -1.2115 -0.4979  1.2197
   45CHL1  H11B 3292   0.965   4.463   7.275 -0.3024 -0.1307 -0.7100
   45CHL1    C9 3293   0.787   4.326   7.232 -0.0282  0.0649 -0.0607
   45CHL1    H9 3294   0.848   4.236   7.258  1.3966 -0.0146 -3.4714
   45CHL1   C10 3295   0.814   4.335   7.077 -0.7575  0.1986 -0.6895
   45CHL1   C19 3296   0.787   4.486   7.018  0.7500 -0.3194  0.1261
   45CHL1  H19A 3297   0.864   4.556   7.056  0.3666  0.2343 -0.0985
   45CHL1  H19B 3298   0.812   4.483   6.910  0.5534  1.2685  0.0270
   45CHL1  H19C 3299   0.686   4.525   7.045 -0.0008 -4.2817  3.5771
   45CHL1    C1 3300   0.963   4.296   7.039  0.0478  0.4004 -0.0519
   45CHL1   H1A 3301   1.032   4.373   7.081  0.6429  1.2870 -2.5883
   45CHL1   H1B 3302   0.979   4.196   7.084  0.2472 -0.0162 -1.0277
   45CHL1    C2 3303   0.989   4.268   6.890 -0.6873  0.4735  0.3878
   45CHL1   H2A 3304   1.080   4.226   6.844 -0.6731  2.1679 -1.1839
   45CHL1   H2B 3305   0.970   4.365   6.838 -0.7409 -0.4743 -1.3721
   45CHL1   C20 3306   0.693   4.470   7.764  0.1944 -0.1200  0.1415
   45CHL1   H20 3307   0.647   4.561   7.720  0.3080 -0.4325 -0.6352
   45CHL1   C21 3308   0.843   4.494   7.796 -0.4575  0.2204  0.2611
   45CHL1  H21A 3309   0.889   4.400   7.835  0.3837 -1.1940 -3.8671
   45CHL1  H21B 3310   0.862   4.576   7.869 -4.0861 -0.5149  2.1616
   45CHL1  H21C 3311   0.887   4.530   7.701 -0.2782  0.6801  0.5154
   45CHL1   C22 3312   0.619   4.430   7.889  0.2473  0.4776 -0.2059
   45CHL1  H22A 3313   0.510   4.434   7.865  0.0044 -2.8201  0.1811
   45CHL1  H22B 3314   0.649   4.332   7.931  2.8215  0.9900 -0.7580
   45CHL1   C23 3315   0.618   4.537   7.999  0.1043  0.7304  0.3076
   45CHL1  H23A 3316   0.720   4.560   8.037  0.7569 -0.1803 -0.8481
   45CHL1  H23B 3317   0.590   4.632   7.949  0.1425  0.7586  0.3393
   45CHL1   C24 3318   0.531   4.499   8.118 -0.6311 -0.3879 -0.9055
   45CHL1  H24A 3319   0.428   4.484   8.078 -1.5025  0.5157  0.9065
   45CHL1  H24B 3320   0.554   4.404   8.171  3.7890  2.3006  2.3960
   45CHL1   C25 3321   0.522   4.601   8.236  0.5339 -0.1625 -0.0924
   45CHL1   H25 3322   0.452   4.562   8.314  0.6596 -1.0128 -0.4016
   45CHL1   C26 3323   0.657   4.624   8.307  0.2795 -0.3142  0.9887
   45CHL1  H26A 3324   0.736   4.668   8.242  1.9780  1.9152  4.4141
   45CHL1  H26B 3325   0.629   4.686   8.395 -0.5514  1.8016 -0.7119
   45CHL1  H26C 3326   0.695   4.525   8.340 -2.0274 -1.2426  0.9702
   45CHL1   C27 3327   0.462   4.734   8.187 -0.0080 -0.1218  0.0335
   45CHL1  H27A 3328   0.359   4.723   8.146 -1.1036 -0.1243  2.6432
   45CHL1  H27B 3329   0.459   4.813   8.266  1.0074 -1.6335  1.6111
   45CHL1  H27C 3330   0.523   4.771   8.102 -0.7008 -0.3795 -0.5843
   46CHL1    C3 3331   1.824   6.039   7.096  0.5832  0.1930 -0.3098
   46CHL1    H3 3332   1.884   6.124   7.134  1.1716  0.5231 -1.9247
   46CHL1    O3 3333   1.893   5.998   6.976  0.6053 -0.1505 -0.1355
   46CHL1   H3' 3334   1.888   5.902   6.984 -0.4108 -0.1635 -0.9078
   46CHL1    C4 3335   1.843   5.936   7.208  0.1523 -0.0325  0.0316
   46CHL1   H4A 3336   1.801   5.840   7.171 -1.5198  1.0104 -0.8397
   46CHL1   H4B 3337   1.949   5.904   7.223 -0.4522 -1.9913  0.2648
   46CHL1    C5 3338   1.773   5.982   7.341 -0.1467  0.7026  0.4085
   46CHL1    C6 3339   1.842   5.991   7.454 -0.0383 -0.6784  0.4898
   46CHL1    H6 3340   1.944   5.950   7.452  0.8340  0.9550  5.6328
   46CHL1    C7 3341   1.773   6.025   7.580 -0.2610 -0.2482 -0.2500
   46CHL1   H7A 3342   1.798   5.948   7.657 -0.7077  1.5855  1.7843
   46CHL1   H7B 3343   1.806   6.125   7.616 -2.1641  0.1738  0.3794
   46CHL1    C8 3344   1.614   6.020   7.574 -0.2775 -0.5416 -1.1007
   46CHL1    H8 3345   1.577   5.915   7.567 -2.0089 -0.2520  2.3211
   46CHL1   C14 3346   1.548   6.074   7.704 -0.4199 -0.0799 -0.8263
   46CHL1   H14 3347   1.579   6.181   7.703  0.6487 -0.3802 -2.2198
   46CHL1   C15 3348   1.602   6.022   7.836  0.2938 -0.0481 -0.4767
   46CHL1  H15A 3349   1.613   5.911   7.834 -0.8021 -0.1727  0.2528
   46CHL1  H15B 3350   1.705   6.061   7.853 -0.0975  1.1509 -0.7929
   46CHL1   C16 3351   1.490   6.058   7.933 -0.0990 -0.3329 -0.9494
   46CHL1  H16A 3352   1.452   5.967   7.983  0.4276  0.4662  0.9654
   46CHL1  H16B 3353   1.533   6.112   8.020 -0.6569 -1.7563  0.2354
   46CHL1   C17 3354   1.380   6.126   7.849 -0.1796 -0.1978 -0.6415
   46CHL1   H17 3355   1.399   6.235   7.858 -0.2151 -0.3080  0.8875
   46CHL1   C13 3356   1.400   6.074   7.707  0.4525  1.0141 -0.6180
   46CHL1   C18 3357   1.334   5.934   7.698  0.6238  0.7920  0.2507
   46CHL1  H18A 3358   1.223   5.937   7.693  0.5781  0.1660  0.8998
   46CHL1  H18B 3359   1.365   5.879   7.607  0.8169  1.2708  0.0234
   46CHL1  H18C 3360   1.346   5.868   7.786 -0.8001  1.9999  1.3884
   46CHL1   C12 3361   1.353   6.162   7.589  0.5116 -0.9143  0.0688
   46CHL1  H12A 3362   1.245   6.178   7.573  1.3149  1.1665 -3.7265
   46CHL1  H12B 3363   1.384   6.267   7.611  0.6875 -0.8439 -0.5086
   46CHL1   C11 3364   1.410   6.124   7.451  0.7012 -0.0456  0.2884
   46CHL1  H11A 3365   1.358   6.031   7.420  0.8925 -0.1847  0.3829
   46CHL1  H11B 3366   1.383   6.197   7.372  0.0750  0.8409  1.3283
   46CHL1    C9 3367   1.568   6.099   7.461 -1.1745 -0.2330  0.0340
   46CHL1    H9 3368   1.623   6.195   7.469 -0.1132 -0.6763 -1.6586
   46CHL1   C10 3369   1.619   6.030   7.326  0.0932 -0.6171 -0.3777
   46CHL1   C19 3370   1.540   5.899   7.293 -0.2206  0.0242 -0.3726
   46CHL1  H19A 3371   1.431   5.918   7.290 -0.0741  0.8944 -0.3276
   46CHL1  H19B 3372   1.565   5.863   7.191 -1.4571  0.1475 -0.7224
   46CHL1  H19C 3373   1.566   5.819   7.366  1.2490  0.2659 -0.6152
   46CHL1    C1 3374   1.598   6.120   7.202  0.5542  0.2291 -0.3482
   46CHL1   H1A 3375   1.491   6.125   7.171  0.5953  3.4270 -0.1012
   46CHL1   H1B 3376   1.638   6.221   7.224  0.5167  0.0524  0.5536
   46CHL1    C2 3377   1.678   6.076   7.076  0.3243 -0.1289  0.1796
   46CHL1   H2A 3378   1.673   6.163   7.007 -1.3524  1.8049  2.6553
   46CHL1   H2B 3379   1.623   5.988   7.036  1.1057 -1.6201  2.3061
   46CHL1   C20 3380   1.244   6.103   7.924 -0.1023 -0.0186  0.3964
   46CHL1   H20 3381   1.223   5.995   7.912 -0.5028  0.1010 -0.0130
   46CHL1   C21 3382   1.142   6.200   7.852 -0.0579  0.3995 -0.1706
   46CHL1  H21A 3383   1.043   6.195   7.901  0.6548 -1.7866  1.1294
   46CHL1  H21B 3384   1.140   6.174   7.744  0.7963  0.0093 -0.1029
   46CHL1  H21C 3385   1.180   6.304   7.866  2.9239 -1.0191  3.1800
   46CHL1   C22 3386   1.248   6.105   8.074  0.2633 -0.1910 -0.6645
   46CHL1  H22A 3387   1.321   6.034   8.118 -1.8823 -1.9552  0.1777
   46CHL1  H22B 3388   1.269   6.203   8.122  0.4072 -1.1662  1.3479
   46CHL1   C23 3389   1.111   6.053   8.139 -1.2728 -0.0864 -0.2094
   46CHL1  H23A 3390   1.044   6.140   8.126 -0.3357  0.4575 -1.5251
   46CHL1  H23B 3391   1.078   5.967   8.077  1.4305 -2.0223  0.9108
   46CHL1   C24 3392   1.117   6.007   8.285 -0.0777  1.0135  0.5580
   46CHL1  H24A 3393   1.200   5.933   8.278 -0.1653  1.1707 -4.1045
   46CHL1  H24B 3394   1.150   6.094   8.345  0.5880 -0.9300  3.0457
   46CHL1   C25 3395   0.995   5.938   8.355 -0.5595 -0.1552 -0.3337
   46CHL1   H25 3396   1.023   5.930   8.462  0.0389 -2.6279 -0.6379
   46CHL1   C26 3397   0.876   6.033   8.334  0.1544  0.0106 -0.4425
   46CHL1  H26A 3398   0.857   6.042   8.225 -1.0131  2.1430 -0.0896
   46CHL1  H26B 3399   0.785   6.000   8.389  0.2422 -0.8187 -0.7760
   46CHL1  H26C 3400   0.907   6.135   8.364  1.2590  0.1381 -1.9672
   46CHL1   C27 3401   0.964   5.800   8.305  0.1301 -0.0830 -0.3698
   46CHL1  H27A 3402   0.954   5.795   8.194 -1.0538  0.8648 -0.3199
   46CHL1  H27B 3403   1.037   5.726   8.344 -1.3221 -0.5454  1.5320
   46CHL1  H27C 3404   0.865   5.778   8.350  0.4840 -0.5472  0.1848
   47CHL1    C3 3405   0.616   5.502   6.734  0.1287  0.3778 -0.1897
   47CHL1    H3 3406   0.670   5.407   6.753  0.4461  0.2892 -1.4782
   47CHL1    O3 3407   0.610   5.506   6.589 -0.2941 -0.0140 -0.3241
   47CHL1   H3' 3408   0.571   5.419   6.578 -2.7435  1.1716 -1.3216
   47CHL1    C4 3409   0.469   5.481   6.784  1.2275 -0.4745  0.0395
   47CHL1   H4A 3410   0.405   5.558   6.737 -1.6981 -3.1108 -0.4860
   47CHL1   H4B 3411   0.445   5.383   6.738  2.4139 -0.1228 -1.3414
   47CHL1    C5 3412   0.463   5.485   6.931 -0.8213 -0.2678 -0.1377
   47CHL1    C6 3413   0.416   5.377   6.990  0.2272  0.1724 -0.1762
   47CHL1    H6 3414   0.386   5.294   6.924 -1.0526  1.5703 -1.3820
   47CHL1    C7 3415   0.407   5.363   7.140  0.1883 -0.3309  0.5054
   47CHL1   H7A 3416   0.316   5.307   7.170  1.3028 -1.1515  2.4764
   47CHL1   H7B 3417   0.491   5.301   7.178 -0.5214 -2.6086 -1.5460
   47CHL1    C8 3418   0.421   5.505   7.204 -0.1775  0.7165 -0.3679
   47CHL1    H8 3419   0.324   5.555   7.184 -2.4292 -3.6297 -0.9590
   47CHL1   C14 3420   0.452   5.493   7.358  0.1882  0.6132 -0.2089
   47CHL1   H14 3421   0.553   5.448   7.369 -1.1151 -1.6870  3.0332
   47CHL1   C15 3422   0.361   5.395   7.441  0.1647  0.3789 -0.0990
   47CHL1  H15A 3423   0.257   5.409   7.405  0.4392 -1.9807 -1.8936
   47CHL1  H15B 3424   0.382   5.286   7.437  0.6935  0.4735  0.0447
   47CHL1   C16 3425   0.378   5.452   7.581  0.5827  0.2219  0.8243
   47CHL1  H16A 3426   0.280   5.484   7.623 -0.1737 -0.7704 -0.1534
   47CHL1  H16B 3427   0.415   5.368   7.644 -0.6225 -1.0041 -0.0701
   47CHL1   C17 3428   0.463   5.581   7.581 -0.1238  0.3710 -1.0246
   47CHL1   H17 3429   0.562   5.540   7.610 -1.0779 -0.8440  0.6064
   47CHL1   C13 3430   0.451   5.631   7.432 -0.0514 -0.3231  0.1081
   47CHL1   C18 3431   0.305   5.697   7.416 -0.8018  0.0706 -0.5031
   47CHL1  H18A 3432   0.271   5.706   7.310  0.8009 -0.3801 -1.0822
   47CHL1  H18B 3433   0.237   5.633   7.475  1.1714 -0.3066  1.4212
   47CHL1  H18C 3434   0.306   5.800   7.457  0.7937  0.3803 -1.2755
   47CHL1   C12 3435   0.558   5.724   7.371 -0.0393  0.2286  0.1001
   47CHL1  H12A 3436   0.545   5.824   7.418  1.8065 -0.6334  2.6041
   47CHL1  H12B 3437   0.666   5.698   7.374 -0.3092 -1.0980 -1.0461
   47CHL1   C11 3438   0.529   5.735   7.218 -0.4683  0.0078 -0.1797
   47CHL1  H11A 3439   0.436   5.794   7.205 -0.1872  0.2435 -1.1642
   47CHL1  H11B 3440   0.609   5.802   7.178  0.4109 -0.1055  1.3719
   47CHL1    C9 3441   0.527   5.598   7.146 -0.1303 -0.7529 -0.0433
   47CHL1    H9 3442   0.622   5.547   7.172  0.2625  0.0450  0.1094
   47CHL1   C10 3443   0.516   5.616   6.993 -0.2584 -0.4143  0.4339
   47CHL1   C19 3444   0.416   5.726   6.958 -0.2488 -0.2050 -0.2640
   47CHL1  H19A 3445   0.396   5.735   6.850  0.9186  0.8950 -0.4011
   47CHL1  H19B 3446   0.319   5.710   7.009  1.4827 -1.6515  2.7715
   47CHL1  H19C 3447   0.450   5.828   6.985 -1.5659 -0.2543  1.7156
   47CHL1    C1 3448   0.658   5.644   6.936 -0.0790 -0.5611 -0.1614
   47CHL1   H1A 3449   0.698   5.737   6.981 -0.5510 -0.7387  0.6276
   47CHL1   H1B 3450   0.717   5.563   6.983  0.2048 -0.6814 -0.7156
   47CHL1    C2 3451   0.678   5.636   6.778 -0.2427 -0.2695  0.3894
   47CHL1   H2A 3452   0.786   5.633   6.751  0.4687  2.6140  2.6209
   47CHL1   H2B 3453   0.620   5.718   6.731 -0.7704 -0.6208  0.4221
   47CHL1   C20 3454   0.429   5.682   7.699  0.1259  0.4909 -0.0765
   47CHL1   H20 3455   0.331   5.727   7.674 -1.5850 -1.8398  2.2451
   47CHL1   C21 3456   0.533   5.800   7.702  0.2606  0.3176 -0.3717
   47CHL1  H21A 3457   0.521   5.863   7.793 -2.5091  1.3790 -1.4096
   47CHL1  H21B 3458   0.515   5.863   7.612 -0.6185 -0.6616 -0.8933
   47CHL1  H21C 3459   0.635   5.758   7.706 -0.0771 -0.4838 -0.0159
   47CHL1   C22 3460   0.430   5.610   7.839  0.3797  0.1415  0.7306
   47CHL1  H22A 3461   0.415   5.687   7.919 -0.4264  2.0689 -1.2225
   47CHL1  H22B 3462   0.337   5.549   7.837  1.2534 -1.3318  2.8767
   47CHL1   C23 3463   0.559   5.529   7.872 -0.7807  0.0318 -0.2736
   47CHL1  H23A 3464   0.588   5.446   7.803  0.9869 -0.3874  0.9402
   47CHL1  H23B 3465   0.645   5.599   7.865 -0.6720 -0.1877 -1.2611
   47CHL1   C24 3466   0.566   5.489   8.016  0.3299 -0.4180 -0.3553
   47CHL1  H24A 3467   0.535   5.575   8.079 -2.5642 -2.7578  1.5832
   47CHL1  H24B 3468   0.487   5.413   8.034 -0.1061 -0.0023 -0.5135
   47CHL1   C25 3469   0.699   5.430   8.070 -1.1280 -0.3536  0.0229
   47CHL1   H25 3470   0.750   5.363   7.998  0.5696 -0.6404  1.4716
   47CHL1   C26 3471   0.807   5.521   8.120  0.1265  0.5644 -0.6920
   47CHL1  H26A 3472   0.778   5.584   8.207  1.9111 -1.3150  1.3584
   47CHL1  H26B 3473   0.892   5.467   8.168 -1.7481 -0.2147  1.9173
   47CHL1  H26C 3474   0.848   5.582   8.037 -1.3435  0.3598 -1.5883
   47CHL1   C27 3475   0.669   5.334   8.194  0.1672 -0.2650  0.0018
   47CHL1  H27A 3476   0.652   5.390   8.288 -0.4571 -0.1584 -0.1646
   47CHL1  H27B 3477   0.585   5.264   8.171 -0.5330  1.2667 -2.3214
   47CHL1  H27C 3478   0.754   5.265   8.209 -0.5768 -0.8520  1.6430
   48CHL1    C3 3479   4.064   1.844   6.251  0.3075  0.6145  0.5642
   48CHL1    H3 3480   4.100   1.945   6.221 -0.7543 -0.2429 -4.0600
   48CHL1    O3 3481   4.023   1.786   6.130 -0.2878 -0.2774  0.1514
   48CHL1   H3' 3482   4.103   1.751   6.090 -0.9434 -2.0692  0.3218
   48CHL1    C4 3483   4.169   1.753   6.326  0.2921 -0.2544  0.3139
   48CHL1   H4A 3484   4.161   1.646   6.297  0.5824 -0.0108 -0.6993
   48CHL1   H4B 3485   4.271   1.776   6.289  0.5432 -1.2243  0.3834
   48CHL1    C5 3486   4.174   1.763   6.479  0.2301 -0.2000 -0.0832
   48CHL1    C6 3487   4.288   1.780   6.547 -0.9463  0.3606 -0.3989
   48CHL1    H6 3488   4.380   1.773   6.488 -0.3665  0.0245  0.5465
   48CHL1    C7 3489   4.298   1.779   6.693 -0.2302  0.2134 -0.2546
   48CHL1   H7A 3490   4.395   1.732   6.719 -0.8411 -0.1867  1.3756
   48CHL1   H7B 3491   4.315   1.884   6.724 -0.0089 -0.3778  1.7483
   48CHL1    C8 3492   4.180   1.722   6.767 -0.0933 -0.5409 -0.9898
   48CHL1    H8 3493   4.188   1.611   6.776  1.8442 -0.3417 -0.0509
   48CHL1   C14 3494   4.190   1.779   6.912  0.5467 -0.4077 -0.2526
   48CHL1   H14 3495   4.175   1.887   6.893 -2.0112 -0.8997 -1.2714
   48CHL1   C15 3496   4.316   1.744   6.985  0.4430  1.0398 -0.1491
   48CHL1  H15A 3497   4.332   1.635   6.973 -0.7228  0.9653 -1.1490
   48CHL1  H15B 3498   4.402   1.804   6.947  1.1737 -0.2358 -0.5324
   48CHL1   C16 3499   4.279   1.778   7.132  0.2464 -0.3467  0.8611
   48CHL1  H16A 3500   4.296   1.680   7.182  2.2821 -1.7435 -2.4091
   48CHL1  H16B 3501   4.352   1.850   7.175 -0.5708 -0.9045  3.2619
   48CHL1   C17 3502   4.134   1.814   7.139 -0.4036  0.2924 -0.0059
   48CHL1   H17 3503   4.134   1.924   7.124  0.0230  0.2142 -0.5999
   48CHL1   C13 3504   4.078   1.745   7.011 -0.4678  0.3217 -0.1871
   48CHL1   C18 3505   4.054   1.594   7.045  0.2518 -0.1628 -0.1269
   48CHL1  H18A 3506   4.146   1.548   7.087  0.8486 -0.7925 -2.0757
   48CHL1  H18B 3507   3.973   1.579   7.118  0.0081 -1.6824 -0.7022
   48CHL1  H18C 3508   4.027   1.540   6.952  0.7893 -0.7179  0.0392
   48CHL1   C12 3509   3.951   1.808   6.940  0.3259  0.3614  0.3551
   48CHL1  H12A 3510   3.863   1.776   7.001 -0.3436 -0.9746 -1.2807
   48CHL1  H12B 3511   3.961   1.918   6.926 -0.6115  0.2924 -0.9279
   48CHL1   C11 3512   3.932   1.757   6.794  0.1054 -0.5474 -0.3275
   48CHL1  H11A 3513   3.918   1.648   6.806  0.5024 -0.4277  1.2955
   48CHL1  H11B 3514   3.846   1.820   6.761  1.6354  2.2257  0.7698
   48CHL1    C9 3515   4.058   1.775   6.707  0.0164 -0.3007  0.2946
   48CHL1    H9 3516   4.080   1.883   6.709 -0.0430 -0.2759 -0.3583
   48CHL1   C10 3517   4.043   1.749   6.551 -0.3291  0.1709  0.0714
   48CHL1   C19 3518   3.999   1.610   6.527 -0.6014 -0.6589 -0.2069
   48CHL1  H19A 3519   3.903   1.603   6.583  0.4647 -2.1818  1.5304
   48CHL1  H19B 3520   3.994   1.578   6.421 -2.5732 -2.3370  0.3690
   48CHL1  H19C 3521   4.066   1.548   6.591  0.9381  0.7848 -0.3962
   48CHL1    C1 3522   3.952   1.857   6.486 -0.2911 -0.3875 -0.4500
   48CHL1   H1A 3523   3.864   1.841   6.552  1.9760 -1.8561  2.3194
   48CHL1   H1B 3524   3.989   1.956   6.518 -2.1164 -0.1447  1.0178
   48CHL1    C2 3525   3.938   1.847   6.332  0.4523 -0.4349  0.0719
   48CHL1   H2A 3526   3.868   1.929   6.308 -0.7487 -1.4472  0.0578
   48CHL1   H2B 3527   3.884   1.751   6.315  0.0519 -0.0670 -0.7431
   48CHL1   C20 3528   4.069   1.797   7.279  0.2913 -0.2598  0.0943
   48CHL1   H20 3529   4.076   1.689   7.304 -0.1691 -0.3529 -0.1685
   48CHL1   C21 3530   3.920   1.836   7.276 -0.0817  0.1167 -0.7980
   48CHL1  H21A 3531   3.911   1.939   7.237 -0.6654  0.6420  0.6818
   48CHL1  H21B 3532   3.869   1.837   7.375  0.1194  0.5053 -0.6985
   48CHL1  H21C 3533   3.858   1.774   7.207  0.3775  1.3285 -2.3314
   48CHL1   C22 3534   4.146   1.873   7.390  0.3256 -0.2632 -0.5727
   48CHL1  H22A 3535   4.255   1.863   7.376  0.7315  1.6885  0.9503
   48CHL1  H22B 3536   4.127   1.982   7.383  0.2017 -0.1761  0.9790
   48CHL1   C23 3537   4.099   1.835   7.532  0.0916  0.7073  0.8889
   48CHL1  H23A 3538   3.995   1.876   7.532 -0.2926 -0.2152 -1.3512
   48CHL1  H23B 3539   4.085   1.726   7.548  0.4281  0.8873  2.5889
   48CHL1   C24 3540   4.204   1.892   7.628  0.3838 -0.8999 -0.3700
   48CHL1  H24A 3541   4.305   1.864   7.591  1.1655  0.4082  0.6968
   48CHL1  H24B 3542   4.200   2.003   7.623  3.1097 -0.6430  1.7023
   48CHL1   C25 3543   4.182   1.855   7.785 -0.5472  0.1620 -1.1035
   48CHL1   H25 3544   4.262   1.903   7.845 -0.9187  0.9389 -1.2265
   48CHL1   C26 3545   4.049   1.908   7.836 -0.5205  0.1896 -0.9085
   48CHL1  H26A 3546   4.050   1.908   7.947 -5.1742 -0.3409 -0.7479
   48CHL1  H26B 3547   4.034   2.013   7.801 -0.3340  0.9306  1.1905
   48CHL1  H26C 3548   3.972   1.846   7.784  0.5060 -2.7470  0.9851
   48CHL1   C27 3549   4.207   1.710   7.809 -1.0685 -0.3958 -0.5832
   48CHL1  H27A 3550   4.294   1.672   7.752 -1.4777 -1.1488 -0.7100
   48CHL1  H27B 3551   4.227   1.698   7.918  0.7027  0.0433 -0.8535
   48CHL1  H27C 3552   4.114   1.651   7.793 -1.8190  0.2363  1.2652
   49CHL1    C3 3553   2.396   2.904   6.714 -0.9070 -0.4458  0.4846
   49CHL1    H3 3554   2.308   2.972   6.711 -1.4180 -1.0665  1.2733
   49CHL1    O3 3555   2.410   2.851   6.586  0.2055  0.0552 -0.0432
   49CHL1   H3' 3556   2.448   2.763   6.594  0.3618  0.0206 -1.0512
   49CHL1    C4 3557   2.531   2.972   6.750  0.1553  0.0266 -0.3363
   49CHL1   H4A 3558   2.621   2.910   6.729 -1.9954 -2.7634 -1.5729
   49CHL1   H4B 3559   2.540   3.063   6.686 -1.0086  0.2534 -0.1885
   49CHL1    C5 3560   2.535   3.013   6.899  0.1555 -0.2582 -0.5481
   49CHL1    C6 3561   2.572   3.133   6.938  0.0465  0.5622  0.7647
   49CHL1    H6 3562   2.598   3.204   6.858 -2.6922 -1.0697 -1.6702
   49CHL1    C7 3563   2.581   3.172   7.082  0.6015 -0.3802  0.0096
   49CHL1   H7A 3564   2.667   3.242   7.092 -1.6018  2.4215 -0.1539
   49CHL1   H7B 3565   2.492   3.235   7.101  2.2212  1.9471  0.0879
   49CHL1    C8 3566   2.598   3.054   7.181 -0.2866 -0.6042  0.8370
   49CHL1    H8 3567   2.703   3.018   7.179  0.3113  1.1596 -1.4932
   49CHL1   C14 3568   2.564   3.097   7.318  0.6583  0.2368 -0.5820
   49CHL1   H14 3569   2.458   3.127   7.319  0.2636 -1.0999 -0.6620
   49CHL1   C15 3570   2.644   3.219   7.366  0.1960  0.8462  0.4823
   49CHL1  H15A 3571   2.751   3.213   7.337  0.2613 -2.9473  1.3633
   49CHL1  H15B 3572   2.601   3.321   7.348  0.2246  0.2203 -3.7358
   49CHL1   C16 3573   2.647   3.207   7.522  0.4495 -0.9148 -0.9236
   49CHL1  H16A 3574   2.751   3.198   7.560  0.2965  1.6882  0.2679
   49CHL1  H16B 3575   2.594   3.296   7.562 -0.1982 -1.3202 -0.8773
   49CHL1   C17 3576   2.573   3.074   7.560 -0.6444  0.0897  0.2149
   49CHL1   H17 3577   2.466   3.102   7.570  0.3784  3.9384  1.1751
   49CHL1   C13 3578   2.582   2.991   7.433  0.1698 -0.0903  0.1872
   49CHL1   C18 3579   2.733   2.933   7.426 -0.0276  0.1947 -0.1548
   49CHL1  H18A 3580   2.755   2.850   7.496 -0.3801  0.6755  0.5329
   49CHL1  H18B 3581   2.746   2.889   7.325  1.1223 -2.8885  1.2791
   49CHL1  H18C 3582   2.806   3.014   7.446 -0.3571 -0.0203  2.1103
   49CHL1   C12 3583   2.470   2.886   7.408  0.7175  1.3008 -0.5116
   49CHL1  H12A 3584   2.489   2.800   7.476  0.8428  0.9158 -1.0309
   49CHL1  H12B 3585   2.381   2.942   7.444  0.3713  0.2229  0.3557
   49CHL1   C11 3586   2.480   2.840   7.256  0.0843  0.7548 -0.3350
   49CHL1  H11A 3587   2.568   2.772   7.248 -0.0118  0.4528  1.0008
   49CHL1  H11B 3588   2.386   2.783   7.237 -1.7176  2.9110  1.6915
   49CHL1    C9 3589   2.489   2.952   7.149  0.0135 -0.2024 -0.1111
   49CHL1    H9 3590   2.395   3.011   7.153 -0.5464 -1.1849  1.4056
   49CHL1   C10 3591   2.506   2.897   7.005 -0.4832 -0.4904 -0.2257
   49CHL1   C19 3592   2.618   2.792   7.010 -0.0663  0.4616  0.5257
   49CHL1  H19A 3593   2.648   2.753   6.910  0.7691  1.5691  0.3299
   49CHL1  H19B 3594   2.702   2.859   7.041 -0.4716  1.3232 -0.1982
   49CHL1  H19C 3595   2.589   2.707   7.075 -1.0292  0.4366  0.0706
   49CHL1    C1 3596   2.374   2.834   6.952  0.4095  0.2482  0.6305
   49CHL1   H1A 3597   2.346   2.744   7.011 -0.5171  0.3604  0.3623
   49CHL1   H1B 3598   2.302   2.917   6.963 -0.3015  0.0587 -2.1148
   49CHL1    C2 3599   2.372   2.781   6.809  0.4271  0.2548  0.1888
   49CHL1   H2A 3600   2.276   2.730   6.785 -0.4033  1.2872  1.2246
   49CHL1   H2B 3601   2.461   2.718   6.789  0.5554  0.4426  0.1713
   49CHL1   C20 3602   2.599   3.013   7.697 -0.0939 -0.4692  0.0643
   49CHL1   H20 3603   2.697   2.960   7.697 -0.3726 -0.9997 -2.0626
   49CHL1   C21 3604   2.505   2.896   7.726  0.1097 -0.4720  0.0944
   49CHL1  H21A 3605   2.499   2.873   7.834 -2.1011 -0.9949 -0.1094
   49CHL1  H21B 3606   2.536   2.810   7.664  1.6177  0.4406 -0.4470
   49CHL1  H21C 3607   2.400   2.920   7.698 -0.0431 -1.0790  0.1549
   49CHL1   C22 3608   2.601   3.115   7.815  0.7360 -0.3331  0.2190
   49CHL1  H22A 3609   2.639   3.214   7.782  0.0214 -0.1670 -0.1179
   49CHL1  H22B 3610   2.494   3.141   7.832  0.9778  0.8971 -0.0853
   49CHL1   C23 3611   2.685   3.069   7.932  0.2067 -1.0777 -0.5592
   49CHL1  H23A 3612   2.636   2.994   7.997 -0.0733 -0.4522 -0.0419
   49CHL1  H23B 3613   2.776   3.022   7.889  0.3644 -0.4294 -0.9384
   49CHL1   C24 3614   2.697   3.182   8.034 -0.8470  0.4705 -0.7186
   49CHL1  H24A 3615   2.719   3.272   7.972  1.1994  0.4402 -0.0669
   49CHL1  H24B 3616   2.592   3.194   8.070 -0.4314  1.1516  0.2744
   49CHL1   C25 3617   2.809   3.156   8.138  0.1875  0.5785  0.3488
   49CHL1   H25 3618   2.776   3.055   8.172  0.3230  0.1806 -0.6585
   49CHL1   C26 3619   2.948   3.159   8.072 -0.0106  0.3270 -0.6501
   49CHL1  H26A 3620   2.963   3.261   8.031 -0.9114  1.4814  1.7969
   49CHL1  H26B 3621   3.041   3.135   8.129  0.4691  2.6526 -0.3852
   49CHL1  H26C 3622   2.952   3.102   7.977  1.3540  3.4685 -2.5581
   49CHL1   C27 3623   2.803   3.253   8.253  0.4508  0.5030 -0.9142
   49CHL1  H27A 3624   2.715   3.251   8.321  0.7887  0.8162 -0.4618
   49CHL1  H27B 3625   2.881   3.218   8.323  1.6511 -1.7617 -3.3042
   49CHL1  H27C 3626   2.819   3.357   8.217  0.9136  1.4749  2.0002
   50CHL1    C3 3627   3.279   4.133   6.843  0.2877  0.4687  0.3170
   50CHL1    H3 3628   3.232   4.033   6.844  0.5556  0.3408  2.2920
   50CHL1    O3 3629   3.290   4.168   6.709  0.4688 -0.9479  0.0434
   50CHL1   H3' 3630   3.320   4.259   6.705  0.9709 -1.0771  0.7823
   50CHL1    C4 3631   3.187   4.238   6.911  0.2203 -1.2356 -0.5701
   50CHL1   H4A 3632   3.216   4.343   6.890  1.9761 -1.4231  0.8243
   50CHL1   H4B 3633   3.086   4.231   6.864  0.3113  1.6832 -1.2830
   50CHL1    C5 3634   3.187   4.224   7.058 -0.3947 -0.6161 -0.1101
   50CHL1    C6 3635   3.070   4.227   7.130  0.1295  0.3730  0.1704
   50CHL1    H6 3636   2.980   4.250   7.070  0.5970  1.4495 -0.1220
   50CHL1    C7 3637   3.062   4.232   7.285 -0.4070  0.4188 -0.1945
   50CHL1   H7A 3638   2.989   4.310   7.319 -1.2742 -0.3333 -0.3185
   50CHL1   H7B 3639   3.025   4.132   7.317  0.4812 -0.7957 -2.8407
   50CHL1    C8 3640   3.207   4.261   7.342 -0.2221  0.1121 -0.2044
   50CHL1    H8 3641   3.240   4.366   7.330  0.9848 -0.3146 -0.6421
   50CHL1   C14 3642   3.208   4.222   7.495  0.4880  0.0867  0.2700
   50CHL1   H14 3643   3.188   4.113   7.501  0.1384  0.0503 -1.2875
   50CHL1   C15 3644   3.094   4.290   7.583  1.1460  0.1874  0.1840
   50CHL1  H15A 3645   3.094   4.398   7.560  1.2152  0.0595 -0.4321
   50CHL1  H15B 3646   2.996   4.245   7.553  1.5067 -0.3253 -0.2285
   50CHL1   C16 3647   3.142   4.256   7.720  0.1200 -0.4239  0.0577
   50CHL1  H16A 3648   3.138   4.350   7.779 -0.2429 -1.1681  1.2462
   50CHL1  H16B 3649   3.085   4.179   7.777  2.1661 -1.1719  1.1471
   50CHL1   C17 3650   3.293   4.212   7.707  0.5931  0.5652 -0.1754
   50CHL1   H17 3651   3.290   4.101   7.708  1.7515  0.5118 -1.2929
   50CHL1   C13 3652   3.337   4.239   7.560 -0.1456 -0.1358  0.3104
   50CHL1   C18 3653   3.386   4.385   7.551  0.0501  0.1117  0.2335
   50CHL1  H18A 3654   3.460   4.412   7.630 -0.6020 -0.6681  1.1298
   50CHL1  H18B 3655   3.426   4.421   7.454 -0.2562  0.8077  0.3684
   50CHL1  H18C 3656   3.298   4.449   7.575  1.0807  1.1703  1.2710
   50CHL1   C12 3657   3.432   4.142   7.504 -0.2211  0.6142 -0.5382
   50CHL1  H12A 3658   3.526   4.155   7.562 -1.6293  1.0740  1.6935
   50CHL1  H12B 3659   3.396   4.040   7.528  1.5220  0.3639  1.1504
   50CHL1   C11 3660   3.459   4.166   7.360 -0.1350 -0.8879  0.2408
   50CHL1  H11A 3661   3.515   4.262   7.362  0.9306 -1.4961 -0.5741
   50CHL1  H11B 3662   3.527   4.091   7.316  2.1007  0.4632  1.3225
   50CHL1    C9 3663   3.319   4.174   7.276 -0.2808 -0.4382 -0.5189
   50CHL1    H9 3664   3.280   4.071   7.265  2.1353 -1.1703 -2.6316
   50CHL1   C10 3665   3.328   4.210   7.119 -0.0335 -0.2583 -0.5931
   50CHL1   C19 3666   3.418   4.334   7.108 -0.1272 -0.7888 -0.4515
   50CHL1  H19A 3667   3.446   4.361   7.004  1.2121  0.2920  0.1664
   50CHL1  H19B 3668   3.365   4.415   7.162 -0.0505 -0.8180 -0.3334
   50CHL1  H19C 3669   3.518   4.306   7.147  0.1668  0.7350 -0.0759
   50CHL1    C1 3670   3.399   4.090   7.058  0.0308 -0.5118 -0.4906
   50CHL1   H1A 3671   3.497   4.077   7.110 -1.2409  1.2483  2.4979
   50CHL1   H1B 3672   3.333   4.003   7.080 -0.4606  0.1043  0.5582
   50CHL1    C2 3673   3.411   4.117   6.910 -0.3930  0.0108 -0.0670
   50CHL1   H2A 3674   3.457   4.026   6.863  0.8999 -0.5042  2.0999
   50CHL1   H2B 3675   3.485   4.196   6.886  0.1962  0.1186  2.0484
   50CHL1   C20 3676   3.387   4.253   7.825  0.7480 -0.3264  0.5775
   50CHL1   H20 3677   3.401   4.362   7.813 -2.7415 -0.0442 -1.4264
   50CHL1   C21 3678   3.521   4.176   7.822  0.2078  0.0416  0.4252
   50CHL1  H21A 3679   3.513   4.073   7.779 -1.1386  0.4117 -0.2623
   50CHL1  H21B 3680   3.574   4.176   7.920 -0.3492 -1.8235  0.7531
   50CHL1  H21C 3681   3.593   4.218   7.749 -1.0822 -1.9750 -2.0957
   50CHL1   C22 3682   3.307   4.237   7.961 -0.1321 -0.0775 -0.3519
   50CHL1  H22A 3683   3.225   4.311   7.969 -0.6342 -0.5926 -0.7539
   50CHL1  H22B 3684   3.254   4.140   7.956  2.5324 -1.5779 -0.8654
   50CHL1   C23 3685   3.382   4.221   8.094 -0.4202  0.7286  0.1921
   50CHL1  H23A 3686   3.461   4.143   8.093  0.3156  1.4684 -1.5915
   50CHL1  H23B 3687   3.429   4.321   8.108 -2.2743  1.3055  2.4975
   50CHL1   C24 3688   3.290   4.194   8.210 -0.1770 -0.5778  0.2838
   50CHL1  H24A 3689   3.233   4.289   8.217  1.0993  0.1724  0.6140
   50CHL1  H24B 3690   3.218   4.111   8.193  0.8089 -1.2702 -0.5621
   50CHL1   C25 3691   3.364   4.167   8.351  0.3028 -0.6521 -0.2059
   50CHL1   H25 3692   3.433   4.081   8.333  0.5508 -0.2527 -1.1902
   50CHL1   C26 3693   3.442   4.298   8.396 -0.8273  0.8840 -0.1800
   50CHL1  H26A 3694   3.375   4.386   8.404 -2.0558  0.0123 -0.7104
   50CHL1  H26B 3695   3.501   4.288   8.489 -1.8652 -0.1803  0.3689
   50CHL1  H26C 3696   3.514   4.331   8.318  1.0858  0.9366  1.5877
   50CHL1   C27 3697   3.271   4.132   8.465  0.2110  0.5079  0.7000
   50CHL1  H27A 3698   3.176   4.191   8.463 -1.0625 -1.5285 -0.6849
   50CHL1  H27B 3699   3.246   4.024   8.457  0.9106  0.3366  0.8054
   50CHL1  H27C 3700   3.331   4.148   8.558 -0.3686  2.1152  0.8163
   51CHL1    C3 3701   3.057   2.978   6.726  0.4445  0.0386  0.4999
   51CHL1    H3 3702   3.143   2.907   6.722  0.3018 -0.0463 -1.2497
   51CHL1    O3 3703   2.990   2.977   6.598 -0.4597 -0.6616  0.2731
   51CHL1   H3' 3704   3.045   2.939   6.530 -2.2031  1.2114 -2.3158
   51CHL1    C4 3705   2.964   2.927   6.840  0.4807 -0.3681 -0.3013
   51CHL1   H4A 3706   2.884   3.004   6.835 -0.2432 -1.0604  0.5029
   51CHL1   H4B 3707   2.903   2.834   6.830  1.4048 -0.7382 -2.7535
   51CHL1    C5 3708   3.019   2.943   6.974  0.5582 -0.4145 -0.5482
   51CHL1    C6 3709   3.030   2.841   7.057 -0.5643 -0.1226 -0.7122
   51CHL1    H6 3710   2.996   2.742   7.021 -1.6258 -0.6982  1.7656
   51CHL1    C7 3711   3.097   2.845   7.186 -0.7739 -0.3211 -0.1514
   51CHL1   H7A 3712   3.036   2.796   7.265 -1.8745  2.7010  0.9445
   51CHL1   H7B 3713   3.195   2.792   7.187 -1.1796 -1.0835 -0.4656
   51CHL1    C8 3714   3.098   2.988   7.247 -0.2267 -0.1386 -0.4691
   51CHL1    H8 3715   2.997   3.021   7.281  0.7564  0.5690  1.9069
   51CHL1   C14 3716   3.177   2.995   7.374 -0.1957  0.5835 -0.2870
   51CHL1   H14 3717   3.276   2.950   7.351 -1.3915 -2.2467 -0.1646
   51CHL1   C15 3718   3.127   2.907   7.489  0.2165 -0.3088 -0.1989
   51CHL1  H15A 3719   3.017   2.922   7.492  0.3891  1.0073  0.0099
   51CHL1  H15B 3720   3.152   2.799   7.483 -0.2896 -0.5113  1.3833
   51CHL1   C16 3721   3.200   2.965   7.612  0.3328  0.4622 -0.0941
   51CHL1  H16A 3722   3.126   2.979   7.694 -1.6343 -1.9535 -1.3610
   51CHL1  H16B 3723   3.277   2.894   7.648  0.1879  1.7192  2.7945
   51CHL1   C17 3724   3.258   3.105   7.570 -0.5431 -0.1586 -0.0379
   51CHL1   H17 3725   3.368   3.094   7.559 -0.0917  3.5537  0.2919
   51CHL1   C13 3726   3.190   3.136   7.438  0.2060  0.2589  0.4378
   51CHL1   C18 3727   3.051   3.187   7.468  0.3497  0.1324 -0.2201
   51CHL1  H18A 3728   3.056   3.298   7.477 -2.2153  0.2364  0.3229
   51CHL1  H18B 3729   2.982   3.169   7.383  0.6676 -1.5515 -0.1352
   51CHL1  H18C 3730   3.003   3.147   7.560 -0.2676  2.0717  0.3379
   51CHL1   C12 3731   3.266   3.215   7.331 -0.1602 -0.0914 -0.2585
   51CHL1  H12A 3732   3.280   3.320   7.362  0.9070 -0.0851 -0.7286
   51CHL1  H12B 3733   3.365   3.166   7.316 -0.5815 -0.1906 -2.8851
   51CHL1   C11 3734   3.189   3.223   7.195 -0.0759 -0.1046  0.0891
   51CHL1  H11A 3735   3.106   3.294   7.213 -0.5472 -0.5878 -0.1521
   51CHL1  H11B 3736   3.259   3.269   7.122  0.8755 -0.8302  0.5315
   51CHL1    C9 3737   3.156   3.082   7.143  0.2407 -0.2615  0.2686
   51CHL1    H9 3738   3.255   3.038   7.119  0.4432  1.2049 -1.7051
   51CHL1   C10 3739   3.069   3.089   7.012 -0.0076 -0.1379 -0.1585
   51CHL1   C19 3740   2.949   3.191   7.034  0.2774 -0.1587 -0.5538
   51CHL1  H19A 3741   2.880   3.181   6.947  0.4701 -0.2578 -0.6945
   51CHL1  H19B 3742   2.882   3.161   7.117  0.0084  1.0772 -0.3255
   51CHL1  H19C 3743   2.973   3.299   7.031  0.4565 -0.2105 -1.2054
   51CHL1    C1 3744   3.157   3.135   6.896  0.1416  0.4445 -0.0511
   51CHL1   H1A 3745   3.181   3.243   6.906 -0.0043  0.3793  1.0881
   51CHL1   H1B 3746   3.250   3.077   6.911 -0.1539  0.0816  0.3873
   51CHL1    C2 3747   3.096   3.122   6.754  1.0449  0.3077 -0.8889
   51CHL1   H2A 3748   3.161   3.161   6.672  0.5986  2.4609 -0.2533
   51CHL1   H2B 3749   3.004   3.184   6.750  2.3390  2.2048 -2.7046
   51CHL1   C20 3750   3.240   3.217   7.674 -0.1330  0.0912 -0.6510
   51CHL1   H20 3751   3.134   3.236   7.700 -0.7351 -1.3182 -1.9769
   51CHL1   C21 3752   3.311   3.348   7.624 -0.0531 -0.4868 -0.4355
   51CHL1  H21A 3753   3.259   3.409   7.548  0.2008 -0.9357 -0.9715
   51CHL1  H21B 3754   3.410   3.312   7.587 -0.0053  0.0241 -0.7978
   51CHL1  H21C 3755   3.336   3.423   7.703  1.6157 -0.4441 -0.9713
   51CHL1   C22 3756   3.313   3.155   7.799  0.0308 -0.1014 -0.2045
   51CHL1  H22A 3757   3.272   3.059   7.838 -0.6530 -0.0099 -0.6791
   51CHL1  H22B 3758   3.422   3.151   7.781  0.6442  0.9907  3.0119
   51CHL1   C23 3759   3.298   3.256   7.918  1.1652  0.0790 -0.6682
   51CHL1  H23A 3760   3.347   3.353   7.899 -3.2657  2.3028 -1.4711
   51CHL1  H23B 3761   3.191   3.285   7.919  1.0225 -0.3872 -1.9541
   51CHL1   C24 3762   3.323   3.189   8.051  0.3320  0.4231 -0.4775
   51CHL1  H24A 3763   3.264   3.095   8.055 -0.7732  1.1655  1.6419
   51CHL1  H24B 3764   3.428   3.153   8.051  0.6535  1.3268  0.4002
   51CHL1   C25 3765   3.298   3.281   8.173 -0.1039 -0.0704 -0.0584
   51CHL1   H25 3766   3.200   3.329   8.148 -1.4868 -2.3855  0.7482
   51CHL1   C26 3767   3.273   3.197   8.298 -0.1887 -0.0206  0.2446
   51CHL1  H26A 3768   3.260   3.263   8.386  0.5390  1.0521 -0.4363
   51CHL1  H26B 3769   3.177   3.140   8.296  0.8733 -1.7910 -2.5498
   51CHL1  H26C 3770   3.360   3.134   8.324  0.8329  0.9867 -0.6897
   51CHL1   C27 3771   3.413   3.384   8.204 -0.1585 -0.3937  0.5809
   51CHL1  H27A 3772   3.509   3.339   8.238  1.2498  0.5763 -1.9662
   51CHL1  H27B 3773   3.436   3.435   8.109  0.0848  0.7586  1.2516
   51CHL1  H27C 3774   3.365   3.460   8.269 -3.5983 -2.0401  0.0491
   52CHL1    C3 3775   5.172   3.875   7.045 -0.8901  0.2256  0.1866
   52CHL1    H3 3776   5.104   3.943   7.102  2.3340  3.2714  0.6276
   52CHL1    O3 3777   5.139   3.880   6.906  0.4960  0.4318  0.1901
   52CHL1   H3' 3778   5.216   3.925   6.871 -0.4225  2.4853  0.7204
   52CHL1    C4 3779   5.315   3.930   7.064 -0.1842 -0.4339  0.0185
   52CHL1   H4A 3780   5.394   3.862   7.025  0.2825 -0.8810  1.6858
   52CHL1   H4B 3781   5.325   4.028   7.013  1.3322 -1.6850 -2.1869
   52CHL1    C5 3782   5.341   3.936   7.216  0.6067  0.5159 -0.1878
   52CHL1    C6 3783   5.370   4.052   7.276  0.1438  0.3470  0.7418
   52CHL1    H6 3784   5.377   4.144   7.216  0.3107 -0.9565 -1.2972
   52CHL1    C7 3785   5.412   4.072   7.421  0.2593 -1.2236 -0.4925
   52CHL1   H7A 3786   5.497   4.144   7.422  0.2042 -1.1409  1.9342
   52CHL1   H7B 3787   5.334   4.130   7.473  0.0153 -1.0360 -1.0605
   52CHL1    C8 3788   5.441   3.935   7.492 -0.6017  0.8102 -0.2356
   52CHL1    H8 3789   5.539   3.898   7.455 -1.2451  0.1452 -1.3053
   52CHL1   C14 3790   5.439   3.947   7.642 -0.0184 -0.6481 -0.7071
   52CHL1   H14 3791   5.335   3.964   7.676  0.8916  1.6058  1.0853
   52CHL1   C15 3792   5.537   4.048   7.703 -0.1531 -0.5661  1.2252
   52CHL1  H15A 3793   5.628   4.065   7.642 -0.5831 -1.2408  0.3857
   52CHL1  H15B 3794   5.481   4.144   7.692 -1.0638 -1.2532 -0.3049
   52CHL1   C16 3795   5.548   3.999   7.847 -0.3017  0.8209  0.3103
   52CHL1  H16A 3796   5.656   3.988   7.871 -0.6646 -0.5677  1.3640
   52CHL1  H16B 3797   5.511   4.070   7.924 -1.2948 -0.6381  1.1970
   52CHL1   C17 3798   5.481   3.856   7.857 -0.1026 -0.2187  0.4643
   52CHL1   H17 3799   5.381   3.874   7.900 -0.0192 -1.7478  1.2982
   52CHL1   C13 3800   5.465   3.812   7.714 -0.2158 -0.3524 -0.0720
   52CHL1   C18 3801   5.606   3.755   7.668  0.0541  0.8583 -0.1143
   52CHL1  H18A 3802   5.679   3.836   7.691 -0.8084  1.6207 -0.0147
   52CHL1  H18B 3803   5.636   3.664   7.723  0.3703  1.7275  1.1640
   52CHL1  H18C 3804   5.609   3.723   7.562  0.1148  0.0804  0.1233
   52CHL1   C12 3805   5.339   3.728   7.684 -0.3399  0.5042  0.2336
   52CHL1  H12A 3806   5.345   3.634   7.742 -0.9707  0.3004 -0.0288
   52CHL1  H12B 3807   5.241   3.770   7.717 -1.9559 -1.8536 -1.3699
   52CHL1   C11 3808   5.339   3.704   7.535  0.1466 -0.1519  0.0840
   52CHL1  H11A 3809   5.423   3.639   7.501 -0.9587 -1.3975 -0.2720
   52CHL1  H11B 3810   5.244   3.654   7.507  0.1849  0.3084 -0.8576
   52CHL1    C9 3811   5.343   3.832   7.447  0.5501 -0.8906  0.0340
   52CHL1    H9 3812   5.247   3.883   7.470  1.6185  1.9529 -1.5741
   52CHL1   C10 3813   5.333   3.806   7.289 -0.2080  0.6345  0.6276
   52CHL1   C19 3814   5.446   3.708   7.257 -0.2401  0.6669 -0.6194
   52CHL1  H19A 3815   5.548   3.744   7.283 -0.4631  0.1109  1.1291
   52CHL1  H19B 3816   5.424   3.613   7.311 -0.4941  1.0390 -0.0594
   52CHL1  H19C 3817   5.434   3.679   7.150 -1.4486 -0.3360 -0.2360
   52CHL1    C1 3818   5.199   3.740   7.254 -0.0326 -0.2876 -0.6054
   52CHL1   H1A 3819   5.198   3.635   7.290  2.0200 -1.0325 -2.5746
   52CHL1   H1B 3820   5.122   3.791   7.315  0.9125  1.6521 -1.0049
   52CHL1    C2 3821   5.156   3.733   7.105 -0.3516 -0.0661  0.0924
   52CHL1   H2A 3822   5.050   3.703   7.089 -0.5295 -0.4751  1.9449
   52CHL1   H2B 3823   5.224   3.662   7.052  0.0224 -0.2679  0.8382
   52CHL1   C20 3824   5.540   3.763   7.969  0.0828  0.2283  0.0308
   52CHL1   H20 3825   5.646   3.739   7.950  0.5842  0.8880  1.8861
   52CHL1   C21 3826   5.455   3.635   7.975  1.1994 -0.0490 -0.6250
   52CHL1  H21A 3827   5.466   3.573   7.883 -1.2430 -1.0681 -0.2752
   52CHL1  H21B 3828   5.347   3.654   7.997  1.2415 -1.6425  1.0253
   52CHL1  H21C 3829   5.494   3.569   8.055 -1.3665  2.6040  3.0151
   52CHL1   C22 3830   5.541   3.841   8.099 -0.4904 -0.0841  0.8710
   52CHL1  H22A 3831   5.587   3.942   8.091  0.4740 -0.6134 -0.3912
   52CHL1  H22B 3832   5.442   3.859   8.147 -0.9217  1.2287 -0.4818
   52CHL1   C23 3833   5.628   3.768   8.206 -0.3647 -0.3208 -0.2640
   52CHL1  H23A 3834   5.575   3.673   8.232  1.0046  0.1016  4.5072
   52CHL1  H23B 3835   5.725   3.752   8.155  0.1603  0.6535  0.4306
   52CHL1   C24 3836   5.649   3.840   8.344 -0.2736 -0.5312 -0.1201
   52CHL1  H24A 3837   5.657   3.950   8.330  0.0786 -0.2997  1.8134
   52CHL1  H24B 3838   5.556   3.838   8.405  0.6931 -1.2789  1.3688
   52CHL1   C25 3839   5.769   3.804   8.430  0.0005  0.6471 -0.3719
   52CHL1   H25 3840   5.855   3.792   8.361  3.0950  1.6365  3.1273
   52CHL1   C26 3841   5.808   3.912   8.534 -0.3603 -0.4174  0.0074
   52CHL1  H26A 3842   5.873   3.866   8.611  0.2718  0.5181  0.0370
   52CHL1  H26B 3843   5.862   3.998   8.490 -0.5505  0.0067  0.5839
   52CHL1  H26C 3844   5.712   3.950   8.575  0.2345  1.0756  0.0162
   52CHL1   C27 3845   5.755   3.663   8.498  0.4108  0.7621  0.3786
   52CHL1  H27A 3846   5.849   3.644   8.555  1.6399 -2.2336 -2.5170
   52CHL1  H27B 3847   5.670   3.662   8.569  0.3750  2.5752  0.3901
   52CHL1  H27C 3848   5.743   3.586   8.420 -0.3022  1.3390 -0.0793
   53CHL1    C3 3849   1.514   0.653   7.076 -0.1728  0.0546 -1.2914
   53CHL1    H3 3850   1.425   0.710   7.112  0.2158 -0.2027  0.1003
   53CHL1    O3 3851   1.495   0.633   6.935  0.1621  0.8371 -0.3519
   53CHL1   H3' 3852   1.464   0.714   6.893  1.0787  0.7649 -1.1839
   53CHL1    C4 3853   1.640   0.736   7.106  0.2074  0.2593 -0.6920
   53CHL1   H4A 3854   1.729   0.682   7.067  2.0967  1.8868  1.2218
   53CHL1   H4B 3855   1.631   0.835   7.057 -0.3443  0.1948 -0.7245
   53CHL1    C5 3856   1.648   0.765   7.256 -0.7303  0.3549  0.4264
   53CHL1    C6 3857   1.650   0.888   7.309  0.4509  0.1041  0.4482
   53CHL1    H6 3858   1.651   0.977   7.245  1.2742  0.2381  0.6517
   53CHL1    C7 3859   1.654   0.915   7.458 -0.1189 -0.3558 -0.2797
   53CHL1   H7A 3860   1.734   0.988   7.481 -2.7112  1.8805  1.9684
   53CHL1   H7B 3861   1.561   0.968   7.489  0.1047  1.1180 -2.0463
   53CHL1    C8 3862   1.679   0.786   7.537 -0.6792  0.3569  0.3518
   53CHL1    H8 3863   1.788   0.765   7.532 -1.3331 -3.0481 -0.8913
   53CHL1   C14 3864   1.639   0.815   7.685 -0.2158 -0.6733  0.1065
   53CHL1   H14 3865   1.529   0.829   7.684 -0.3790 -1.8675  0.9514
   53CHL1   C15 3866   1.691   0.950   7.738 -0.1306  0.0165 -0.4617
   53CHL1  H15A 3867   1.800   0.960   7.716 -0.2656  2.8718 -0.0610
   53CHL1  H15B 3868   1.628   1.033   7.699  1.1311  0.7368 -0.9867
   53CHL1   C16 3869   1.673   0.927   7.889  0.3578  0.1679 -0.6252
   53CHL1  H16A 3870   1.773   0.938   7.938 -0.1145 -1.2702  0.7283
   53CHL1  H16B 3871   1.597   0.996   7.930  2.2878  0.4718  2.6465
   53CHL1   C17 3872   1.635   0.772   7.903 -0.5521 -0.8300  0.6871
   53CHL1   H17 3873   1.524   0.774   7.890 -0.6323  0.0909  1.4537
   53CHL1   C13 3874   1.680   0.705   7.776  0.2504 -0.5907  0.1534
   53CHL1   C18 3875   1.836   0.689   7.788 -0.2755  0.6271  0.2952
   53CHL1  H18A 3876   1.888   0.671   7.691  2.8767 -0.8385  2.1899
   53CHL1  H18B 3877   1.881   0.786   7.817  0.4844  0.8302 -1.4565
   53CHL1  H18C 3878   1.867   0.608   7.856  0.6739  0.9724  0.2917
   53CHL1   C12 3879   1.610   0.575   7.730 -0.7857  0.7311 -0.2514
   53CHL1  H12A 3880   1.643   0.488   7.790 -1.5337  1.6988  1.5928
   53CHL1  H12B 3881   1.499   0.585   7.736 -0.6616  4.6570 -2.3444
   53CHL1   C11 3882   1.645   0.547   7.583 -0.2305 -0.3824  0.5906
   53CHL1  H11A 3883   1.752   0.518   7.579  0.0229  0.6688 -0.4803
   53CHL1  H11B 3884   1.584   0.461   7.550  1.4941 -1.1445 -0.6880
   53CHL1    C9 3885   1.607   0.665   7.487 -0.0420 -0.6201  0.1993
   53CHL1    H9 3886   1.499   0.691   7.483  0.4231  1.3529 -0.0025
   53CHL1   C10 3887   1.648   0.636   7.337  0.1655  0.7317 -0.4188
   53CHL1   C19 3888   1.795   0.587   7.326 -0.2743 -0.1545  0.0190
   53CHL1  H19A 3889   1.853   0.674   7.364  1.0491 -0.4639 -1.2410
   53CHL1  H19B 3890   1.823   0.498   7.385  2.7233 -0.6266 -1.9622
   53CHL1  H19C 3891   1.828   0.573   7.220 -0.4508 -0.9769  0.0722
   53CHL1    C1 3892   1.551   0.528   7.293 -0.1003  0.3089  0.5269
   53CHL1   H1A 3893   1.598   0.430   7.317 -0.0627  0.1970  0.0119
   53CHL1   H1B 3894   1.450   0.530   7.337 -1.7910  0.3324 -3.1528
   53CHL1    C2 3895   1.533   0.516   7.140  0.3672 -0.0652 -0.0445
   53CHL1   H2A 3896   1.464   0.435   7.107 -0.7213  0.6871  0.3656
   53CHL1   H2B 3897   1.632   0.480   7.105  1.2381  2.9568 -0.8783
   53CHL1   C20 3898   1.669   0.721   8.046  0.1378  0.8344  0.1988
   53CHL1   H20 3899   1.779   0.723   8.064 -0.1241 -0.3479  2.0758
   53CHL1   C21 3900   1.635   0.572   8.049  0.4562 -0.5322 -0.2847
   53CHL1  H21A 3901   1.692   0.506   7.981 -1.2228 -0.5905 -1.6573
   53CHL1  H21B 3902   1.526   0.560   8.035 -0.1225  2.5179  1.3042
   53CHL1  H21C 3903   1.652   0.544   8.155  2.9628  2.1065  0.0697
   53CHL1   C22 3904   1.595   0.807   8.148 -0.0355 -0.2243 -0.5959
   53CHL1  H22A 3905   1.646   0.905   8.139  0.8528 -0.5963  0.2385
   53CHL1  H22B 3906   1.486   0.809   8.128 -0.1244 -1.4218 -0.2463
   53CHL1   C23 3907   1.610   0.750   8.288 -0.3567 -0.9192 -0.1749
   53CHL1  H23A 3908   1.556   0.812   8.362  1.7300  0.1859  0.4456
   53CHL1  H23B 3909   1.567   0.648   8.293  1.4356 -1.6844 -0.0150
   53CHL1   C24 3910   1.745   0.757   8.351 -0.0996  0.2768 -1.0582
   53CHL1  H24A 3911   1.819   0.710   8.282 -0.5721 -0.8715 -0.7939
   53CHL1  H24B 3912   1.766   0.866   8.353 -2.6031  0.7767  0.7576
   53CHL1   C25 3913   1.761   0.690   8.487  0.2319  0.1295 -0.2025
   53CHL1   H25 3914   1.707   0.593   8.486 -2.6581  1.6562  1.1439
   53CHL1   C26 3915   1.914   0.658   8.509  0.3201 -0.4111 -0.6178
   53CHL1  H26A 3916   1.940   0.630   8.613 -0.7850  0.5218 -0.0917
   53CHL1  H26B 3917   1.938   0.571   8.444  0.6235 -0.4629 -0.4382
   53CHL1  H26C 3918   1.975   0.749   8.490  0.5592 -0.4384  0.0135
   53CHL1   C27 3919   1.706   0.776   8.605 -0.2729  0.0147  0.1261
   53CHL1  H27A 3920   1.600   0.801   8.584 -0.5931 -0.3984  1.2235
   53CHL1  H27B 3921   1.709   0.728   8.705 -0.6568  0.9910  0.6208
   53CHL1  H27C 3922   1.768   0.868   8.600 -1.6382  0.9875  0.8389
   54CHL1    C3 3923   1.520   2.277   6.940  0.2269  0.1182 -0.2850
   54CHL1    H3 3924   1.411   2.267   6.962  0.5762 -1.3809  0.8039
   54CHL1    O3 3925   1.534   2.297   6.799 -0.3489 -0.1344 -0.2442
   54CHL1   H3' 3926   1.626   2.320   6.788 -0.6799  1.5935  0.4507
   54CHL1    C4 3927   1.562   2.408   7.011  0.3487  0.2312 -0.8267
   54CHL1   H4A 3928   1.651   2.449   6.959 -0.5895  2.1708 -0.9579
   54CHL1   H4B 3929   1.474   2.473   6.989  1.4928  2.2759  0.5042
   54CHL1    C5 3930   1.586   2.395   7.157 -0.8289  0.4212 -0.2107
   54CHL1    C6 3931   1.531   2.481   7.243 -0.5655  0.1569  0.7836
   54CHL1    H6 3932   1.467   2.563   7.207 -1.3963 -0.5317  0.6738
   54CHL1    C7 3933   1.545   2.472   7.393  0.2796  0.1189 -0.3797
   54CHL1   H7A 3934   1.554   2.577   7.428 -0.6314 -0.1047  0.5440
   54CHL1   H7B 3935   1.452   2.428   7.433  1.5437 -2.6626 -0.3759
   54CHL1    C8 3936   1.672   2.393   7.437 -0.0124 -0.1212 -0.0393
   54CHL1    H8 3937   1.766   2.447   7.411 -0.7878  0.6117 -1.3794
   54CHL1   C14 3938   1.664   2.370   7.590  0.0289  0.0642 -0.4475
   54CHL1   H14 3939   1.568   2.313   7.594 -0.9016  1.2732 -3.8700
   54CHL1   C15 3940   1.657   2.497   7.686 -0.0880 -0.0444 -0.1387
   54CHL1  H15A 3941   1.732   2.570   7.649  0.5070 -1.1517 -1.1280
   54CHL1  H15B 3942   1.558   2.546   7.677 -0.3766 -0.7801 -0.9547
   54CHL1   C16 3943   1.694   2.432   7.823 -0.3911 -0.2403 -0.4542
   54CHL1  H16A 3944   1.775   2.501   7.855  2.6328 -2.3723 -3.1589
   54CHL1  H16B 3945   1.610   2.434   7.896 -2.9025 -1.4226 -3.2318
   54CHL1   C17 3946   1.741   2.287   7.797 -0.6635 -0.3320  0.4925
   54CHL1   H17 3947   1.647   2.228   7.803 -0.5060 -0.6893 -0.4238
   54CHL1   C13 3948   1.772   2.276   7.648 -0.4166  0.8018  0.3293
   54CHL1   C18 3949   1.914   2.344   7.637 -0.7030 -0.1576 -0.6009
   54CHL1  H18A 3950   1.929   2.427   7.709  0.6355 -1.0338  0.1528
   54CHL1  H18B 3951   1.994   2.270   7.657 -0.0804  1.2733  2.4414
   54CHL1  H18C 3952   1.924   2.398   7.540 -1.6396  0.1783 -0.5159
   54CHL1   C12 3953   1.766   2.142   7.572 -0.7769 -0.1931  0.5423
   54CHL1  H12A 3954   1.845   2.066   7.593 -1.0803 -1.0871 -1.4814
   54CHL1  H12B 3955   1.674   2.092   7.608 -0.7926 -0.1573  0.5506
   54CHL1   C11 3956   1.777   2.167   7.418 -0.6360 -0.2438  0.0446
   54CHL1  H11A 3957   1.874   2.216   7.393 -1.1708  1.3071  0.9581
   54CHL1  H11B 3958   1.770   2.065   7.374 -3.6575 -0.2612  0.5108
   54CHL1    C9 3959   1.669   2.259   7.361 -0.3721 -0.1051 -0.4427
   54CHL1    H9 3960   1.577   2.202   7.389 -0.3985 -0.2316 -0.7926
   54CHL1   C10 3961   1.670   2.270   7.198 -0.6340  0.7092  0.1176
   54CHL1   C19 3962   1.809   2.320   7.152  0.0520  0.0961 -0.1512
   54CHL1  H19A 3963   1.883   2.240   7.175  0.4236 -0.1337 -2.0316
   54CHL1  H19B 3964   1.840   2.320   7.045 -1.0675  0.9925 -0.4842
   54CHL1  H19C 3965   1.845   2.414   7.199 -0.8392  0.0438  0.6502
   54CHL1    C1 3966   1.620   2.140   7.136 -0.3337 -1.2969  0.1478
   54CHL1   H1A 3967   1.695   2.062   7.160  0.0432 -0.4070  1.9762
   54CHL1   H1B 3968   1.520   2.131   7.183  1.0903  1.4078  3.9153
   54CHL1    C2 3969   1.601   2.152   6.983 -0.5881  0.1390  0.6085
   54CHL1   H2A 3970   1.561   2.065   6.927 -1.7799  2.1202 -1.7160
   54CHL1   H2B 3971   1.706   2.175   6.953 -0.2091 -0.1029  1.7441
   54CHL1   C20 3972   1.840   2.231   7.902 -0.9312 -0.3661 -0.3618
   54CHL1   H20 3973   1.936   2.285   7.891 -0.8150 -0.6316 -0.6437
   54CHL1   C21 3974   1.853   2.084   7.885 -0.1151 -0.0550 -0.0562
   54CHL1  H21A 3975   1.891   2.040   7.980 -1.1092 -0.9131 -0.0447
   54CHL1  H21B 3976   1.913   2.048   7.799 -2.9585 -1.3384 -1.5932
   54CHL1  H21C 3977   1.756   2.033   7.863  0.6528 -1.4913 -0.1628
   54CHL1   C22 3978   1.798   2.268   8.043 -0.5936 -0.4644  0.5274
   54CHL1  H22A 3979   1.756   2.371   8.048 -0.8826 -0.4470 -1.5480
   54CHL1  H22B 3980   1.716   2.199   8.072 -0.0414 -2.0879 -1.5895
   54CHL1   C23 3981   1.903   2.261   8.152 -0.1007 -0.7900  0.0652
   54CHL1  H23A 3982   1.943   2.158   8.166 -0.0069 -0.8057 -0.3126
   54CHL1  H23B 3983   1.999   2.308   8.120  0.2530 -1.7055 -0.2346
   54CHL1   C24 3984   1.853   2.327   8.286  0.2621 -0.0460 -0.1524
   54CHL1  H24A 3985   1.936   2.336   8.359  1.4556 -1.1716 -1.3317
   54CHL1  H24B 3986   1.827   2.432   8.260 -1.8736 -0.4221  0.3867
   54CHL1   C25 3987   1.727   2.269   8.353 -0.3837  0.8897 -0.0523
   54CHL1   H25 3988   1.645   2.267   8.278 -2.4523 -2.8108  2.1489
   54CHL1   C26 3989   1.755   2.131   8.400  0.1704  0.0214  0.1951
   54CHL1  H26A 3990   1.843   2.142   8.467 -0.0448 -0.2703  0.5269
   54CHL1  H26B 3991   1.665   2.092   8.452  0.7846 -0.6489  0.7807
   54CHL1  H26C 3992   1.784   2.066   8.314 -0.0344  0.4110 -0.1681
   54CHL1   C27 3993   1.685   2.361   8.477  0.2017  0.1511  0.4452
   54CHL1  H27A 3994   1.780   2.363   8.534 -0.3478  0.1915  1.3688
   54CHL1  H27B 3995   1.659   2.466   8.452 -2.3903 -0.4767  0.3283
   54CHL1  H27C 3996   1.601   2.309   8.529 -1.8550  1.9789 -0.9253
   55CHL1    C3 3997   1.261   3.709   6.997 -0.4220  0.4520  0.6004
   55CHL1    H3 3998   1.191   3.636   7.043 -1.7385  2.4282  1.7475
   55CHL1    O3 3999   1.270   3.683   6.858 -0.3682 -0.1363 -0.1427
   55CHL1   H3' 4000   1.200   3.735   6.819  0.1499  3.2811  3.1786
   55CHL1    C4 4001   1.221   3.857   7.026 -0.0576  0.3024  0.2979
   55CHL1   H4A 4002   1.299   3.925   6.986  1.0692 -0.4800  1.1656
   55CHL1   H4B 4003   1.129   3.878   6.966 -0.9455 -1.7013  0.9137
   55CHL1    C5 4004   1.210   3.887   7.173  0.0647  0.6298 -0.1123
   55CHL1    C6 4005   1.096   3.937   7.226 -0.6342  0.1312 -0.5490
   55CHL1    H6 4006   1.017   3.949   7.150 -2.6523 -0.7633  1.3273
   55CHL1    C7 4007   1.079   3.976   7.373  0.5251 -0.1089  0.7843
   55CHL1   H7A 4008   1.020   4.069   7.378  0.2493 -0.0755 -2.4679
   55CHL1   H7B 4009   1.029   3.892   7.427  0.3040 -1.1622 -1.0202
   55CHL1    C8 4010   1.223   3.989   7.440  0.4304  0.4243  0.1479
   55CHL1    H8 4011   1.260   4.083   7.392  0.5167  0.3993  0.1650
   55CHL1   C14 4012   1.201   4.013   7.582 -0.9145  0.9753 -0.6555
   55CHL1   H14 4013   1.140   3.928   7.621 -1.2624  1.5609  0.0928
   55CHL1   C15 4014   1.136   4.144   7.632 -0.7108  0.7419  0.5945
   55CHL1  H15A 4015   1.181   4.235   7.587  1.0984  0.8443  2.5407
   55CHL1  H15B 4016   1.032   4.154   7.594 -0.6779  1.4769  0.6989
   55CHL1   C16 4017   1.167   4.138   7.782 -0.0786 -0.1460 -0.4926
   55CHL1  H16A 4018   1.203   4.240   7.805  1.2394 -0.4072 -1.3001
   55CHL1  H16B 4019   1.077   4.115   7.843  0.2453 -1.3706 -0.4616
   55CHL1   C17 4020   1.270   4.026   7.807  0.1302 -0.1060  0.2561
   55CHL1   H17 4021   1.218   3.937   7.848  1.5125 -0.8067  0.5315
   55CHL1   C13 4022   1.325   3.994   7.668  0.1774 -0.2072  0.5520
   55CHL1   C18 4023   1.430   4.101   7.629  1.2200 -0.1694  0.0477
   55CHL1  H18A 4024   1.527   4.091   7.684  1.9837  2.3147 -0.7947
   55CHL1  H18B 4025   1.453   4.108   7.521 -1.6281  2.9572 -0.4206
   55CHL1  H18C 4026   1.377   4.197   7.643 -2.3201 -1.7426 -1.8691
   55CHL1   C12 4027   1.382   3.856   7.651 -0.7413  0.4133 -0.4673
   55CHL1  H12A 4028   1.482   3.859   7.699 -0.8061 -1.2415 -0.2228
   55CHL1  H12B 4029   1.309   3.783   7.692  0.9315 -1.5604 -0.9244
   55CHL1   C11 4030   1.417   3.822   7.504  0.2564  1.1461 -0.5375
   55CHL1  H11A 4031   1.505   3.888   7.487  0.1220  1.3769 -0.3361
   55CHL1  H11B 4032   1.449   3.716   7.495 -0.8765  0.8040 -0.6739
   55CHL1    C9 4033   1.299   3.852   7.410 -0.8063  0.0661 -0.4007
   55CHL1    H9 4034   1.226   3.772   7.433 -0.8223 -0.2540 -1.5235
   55CHL1   C10 4035   1.332   3.845   7.260  0.6103  0.1393  0.3250
   55CHL1   C19 4036   1.440   3.951   7.227  0.7924 -0.8538 -0.2280
   55CHL1  H19A 4037   1.418   4.059   7.244 -1.9950 -0.9604 -2.7994
   55CHL1  H19B 4038   1.538   3.936   7.277  0.2665  1.0811  1.4617
   55CHL1  H19C 4039   1.466   3.937   7.120  1.1742  0.6206 -0.3462
   55CHL1    C1 4040   1.384   3.702   7.225  1.1665 -0.0179 -0.0633
   55CHL1   H1A 4041   1.473   3.677   7.286  0.0187 -0.4387  1.4695
   55CHL1   H1B 4042   1.309   3.624   7.254  0.3809  0.0146 -1.9494
   55CHL1    C2 4043   1.399   3.676   7.074  0.2331 -0.2576 -0.6004
   55CHL1   H2A 4044   1.414   3.567   7.059  1.3298 -0.6212  2.8386
   55CHL1   H2B 4045   1.484   3.727   7.025  1.2092 -2.5047 -1.2837
   55CHL1   C20 4046   1.377   4.049   7.921  0.4540  0.6846  0.7118
   55CHL1   H20 4047   1.474   4.089   7.884  0.9873 -1.4696 -0.2842
   55CHL1   C21 4048   1.401   3.909   7.999 -0.1619 -0.3353 -0.4659
   55CHL1  H21A 4049   1.497   3.917   8.054 -0.7381  1.0671  0.3468
   55CHL1  H21B 4050   1.391   3.824   7.928  2.1960  0.4023 -1.7282
   55CHL1  H21C 4051   1.323   3.903   8.078  1.8843 -1.0360  1.5725
   55CHL1   C22 4052   1.341   4.152   8.030 -0.1186 -0.3726  0.1850
   55CHL1  H22A 4053   1.323   4.254   7.988  0.3345 -1.2209 -2.1026
   55CHL1  H22B 4054   1.252   4.123   8.089  0.0965 -0.7177  0.3382
   55CHL1   C23 4055   1.459   4.177   8.134  0.0812  0.2439 -0.1011
   55CHL1  H23A 4056   1.470   4.078   8.182  0.6192  0.6286  0.5734
   55CHL1  H23B 4057   1.552   4.220   8.090  1.4388 -1.2912  1.1957
   55CHL1   C24 4058   1.408   4.267   8.247 -0.0338  0.2052  0.2031
   55CHL1  H24A 4059   1.385   4.368   8.208 -1.1587 -0.6005 -1.2505
   55CHL1  H24B 4060   1.311   4.225   8.280  0.7197 -0.8846  1.0671
   55CHL1   C25 4061   1.516   4.272   8.361 -0.5481 -0.4740  0.6386
   55CHL1   H25 4062   1.534   4.167   8.395 -1.7596 -0.2625  2.0067
   55CHL1   C26 4063   1.645   4.337   8.322  0.1580  1.0431 -0.0754
   55CHL1  H26A 4064   1.620   4.432   8.270 -0.8487 -0.2716 -2.0793
   55CHL1  H26B 4065   1.702   4.358   8.414  1.9764 -2.6796 -0.2443
   55CHL1  H26C 4066   1.701   4.265   8.258  1.0415  1.2795  0.4193
   55CHL1   C27 4067   1.453   4.336   8.485  0.3110  0.8710 -0.2675
   55CHL1  H27A 4068   1.352   4.291   8.497  0.1902  1.0161 -0.7111
   55CHL1  H27B 4069   1.515   4.312   8.574 -2.5690  0.5248  1.7088
   55CHL1  H27C 4070   1.444   4.447   8.480 -0.6910  0.8953  1.4417
   56CHL1    C3 4071   0.657   1.812   6.931 -0.0234  0.5323  0.3538
   56CHL1    H3 4072   0.652   1.923   6.927 -1.1305  0.4766  0.0935
   56CHL1    O3 4073   0.694   1.773   6.799  0.4180  0.0289 -0.5849
   56CHL1   H3' 4074   0.619   1.796   6.742  1.1953  0.5989 -1.3913
   56CHL1    C4 4075   0.767   1.771   7.033 -0.1990  0.4241  0.1740
   56CHL1   H4A 4076   0.790   1.663   7.027  0.3214  0.4701  1.2674
   56CHL1   H4B 4077   0.863   1.816   7.000 -0.1794 -0.3025 -0.7674
   56CHL1    C5 4078   0.714   1.792   7.168  0.0851  0.4307  0.2108
   56CHL1    C6 4079   0.799   1.850   7.254 -0.6202 -0.6113 -0.3281
   56CHL1    H6 4080   0.898   1.881   7.218 -0.1717 -1.1620  0.4284
   56CHL1    C7 4081   0.770   1.876   7.397 -0.3667 -0.3118 -0.0293
   56CHL1   H7A 4082   0.854   1.844   7.462 -0.0815  0.1279 -0.1789
   56CHL1   H7B 4083   0.767   1.984   7.421 -2.8843 -0.5546  0.8882
   56CHL1    C8 4084   0.640   1.809   7.452 -0.8096  0.9871  0.1400
   56CHL1    H8 4085   0.662   1.702   7.471  0.9404  1.4847  0.9994
   56CHL1   C14 4086   0.601   1.866   7.589  0.0314 -0.2698  0.1868
   56CHL1   H14 4087   0.577   1.973   7.571  1.1542  0.3820  2.4122
   56CHL1   C15 4088   0.703   1.866   7.699  0.1949 -0.1334 -0.8730
   56CHL1  H15A 4089   0.761   1.772   7.689  0.1428 -0.1919 -0.6511
   56CHL1  H15B 4090   0.772   1.953   7.691  0.0339 -0.0512 -1.3707
   56CHL1   C16 4091   0.617   1.866   7.823 -0.3115  0.3901  0.0398
   56CHL1  H16A 4092   0.637   1.775   7.883  2.4193  1.8427  1.4498
   56CHL1  H16B 4093   0.654   1.943   7.893  0.6739  0.7124 -0.8224
   56CHL1   C17 4094   0.467   1.868   7.775 -0.3965  0.3541  0.1067
   56CHL1   H17 4095   0.436   1.973   7.756 -2.0278 -0.0384  0.5643
   56CHL1   C13 4096   0.475   1.804   7.641 -0.2303 -0.6454  0.2940
   56CHL1   C18 4097   0.490   1.651   7.653 -0.2611  0.5289  0.1480
   56CHL1  H18A 4098   0.504   1.606   7.553 -1.7942  0.2494  0.0383
   56CHL1  H18B 4099   0.568   1.608   7.719 -1.8559 -2.6260  0.0588
   56CHL1  H18C 4100   0.396   1.612   7.698  0.5738  0.1533  1.6135
   56CHL1   C12 4101   0.361   1.837   7.537  0.4551 -0.2006  0.0018
   56CHL1  H12A 4102   0.264   1.800   7.577  0.6528  1.2641  1.9382
   56CHL1  H12B 4103   0.348   1.947   7.531 -2.5088 -0.5810 -1.2191
   56CHL1   C11 4104   0.386   1.772   7.397 -0.3711 -0.9399 -0.3230
   56CHL1  H11A 4105   0.365   1.663   7.406 -3.0376 -0.4223  0.2245
   56CHL1  H11B 4106   0.307   1.796   7.322  0.1468 -0.0639 -0.5889
   56CHL1    C9 4107   0.528   1.819   7.345  0.1782 -0.4084 -0.2163
   56CHL1    H9 4108   0.503   1.927   7.331 -3.4920 -1.0126  1.1333
   56CHL1   C10 4109   0.566   1.762   7.201  0.1698  0.0680 -0.2731
   56CHL1   C19 4110   0.562   1.609   7.222 -0.1816 -0.3841 -0.3284
   56CHL1  H19A 4111   0.623   1.573   7.307  1.0064 -1.5130 -1.6361
   56CHL1  H19B 4112   0.458   1.574   7.240 -0.2918  0.3405  0.4869
   56CHL1  H19C 4113   0.596   1.552   7.133  1.5433 -0.1722  0.1909
   56CHL1    C1 4114   0.466   1.805   7.093 -0.5889  0.9681  1.0732
   56CHL1   H1A 4115   0.374   1.745   7.112  0.9705 -1.9882 -0.3842
   56CHL1   H1B 4116   0.451   1.915   7.092 -3.1770  0.6485 -0.3792
   56CHL1    C2 4117   0.508   1.762   6.952  0.0124  0.1141 -0.2142
   56CHL1   H2A 4118   0.447   1.808   6.871 -0.3630  2.2959  1.2629
   56CHL1   H2B 4119   0.522   1.653   6.936 -0.6541 -0.3149  2.0592
   56CHL1   C20 4120   0.377   1.797   7.871  0.0957 -0.4270 -0.4306
   56CHL1   H20 4121   0.421   1.698   7.892  0.9036 -0.0795 -0.4776
   56CHL1   C21 4122   0.233   1.776   7.829 -0.1094 -0.5796 -0.1663
   56CHL1  H21A 4123   0.224   1.693   7.756  1.2880 -0.1316 -0.8549
   56CHL1  H21B 4124   0.194   1.864   7.773 -0.4050 -1.9959 -2.2438
   56CHL1  H21C 4125   0.164   1.756   7.914  1.1068 -0.1689  0.9405
   56CHL1   C22 4126   0.375   1.867   8.014 -1.1779 -0.3739  0.1879
   56CHL1  H22A 4127   0.287   1.831   8.071 -2.4326  0.8854 -0.9032
   56CHL1  H22B 4128   0.469   1.837   8.064 -0.6920  1.7324  0.6011
   56CHL1   C23 4129   0.370   2.019   8.009  0.9668  0.4286  0.2309
   56CHL1  H23A 4130   0.468   2.059   7.975  1.3178  0.2374  0.9912
   56CHL1  H23B 4131   0.288   2.041   7.938 -0.0818 -0.1688  1.2265
   56CHL1   C24 4132   0.339   2.087   8.144  1.3692 -0.8563 -0.1462
   56CHL1  H24A 4133   0.231   2.073   8.165  2.0918 -1.9377  3.0969
   56CHL1  H24B 4134   0.396   2.037   8.225  3.1062  0.8059 -0.3148
   56CHL1   C25 4135   0.359   2.239   8.144  0.6989  0.0683 -0.4377
   56CHL1   H25 4136   0.469   2.249   8.141  0.6719  1.2896  1.8099
   56CHL1   C26 4137   0.310   2.317   8.023  0.3719 -0.9241 -0.0938
   56CHL1  H26A 4138   0.332   2.423   8.046  0.3850 -1.0429  0.4339
   56CHL1  H26B 4139   0.199   2.310   8.027  0.4241 -0.9941  1.3051
   56CHL1  H26C 4140   0.344   2.289   7.921  0.1325 -0.5396 -0.2774
   56CHL1   C27 4141   0.306   2.304   8.273 -0.2643 -0.2632  0.3279
   56CHL1  H27A 4142   0.334   2.256   8.369 -0.1067 -0.0441  0.3923
   56CHL1  H27B 4143   0.337   2.410   8.285 -1.4657 -0.0639  1.9469
   56CHL1  H27C 4144   0.195   2.302   8.268 -0.1889 -0.0471 -2.7161
   57SAPC     N 4145   0.803   5.656  10.969  0.3063 -0.4963  0.2747
   57SAPC   C12 4146   0.768   5.634  10.821  0.5006  0.3625 -0.0129
   57SAPC  H12A 4147   0.708   5.716  10.782  0.1752 -0.0306 -0.3446
   57SAPC  H12B 4148   0.697   5.553  10.821  0.0418  0.7579 -0.3401
   57SAPC   C13 4149   0.919   5.751  10.991 -0.4307  0.4430  0.2008
   57SAPC  H13A 4150   0.917   5.838  10.927 -0.3442 -1.2659 -2.1830
   57SAPC  H13B 4151   0.926   5.779  11.095 -0.7870  0.3914  0.2366
   57SAPC  H13C 4152   1.007   5.697  10.960 -0.5813  0.4809 -0.2834
   57SAPC   C14 4153   0.682   5.715  11.030  0.0890  0.6678 -0.1148
   57SAPC  H14A 4154   0.601   5.644  11.031 -1.3235  2.2491 -0.3210
   57SAPC  H14B 4155   0.719   5.744  11.128  1.0135 -2.1065  0.4161
   57SAPC  H14C 4156   0.647   5.800  10.974 -0.5933  0.9450  0.7192
   57SAPC   C15 4157   0.836   5.522  11.028 -0.3871  0.3675 -0.5702
   57SAPC  H15A 4158   0.929   5.497  10.979  0.0996 -0.2863  0.6680
   57SAPC  H15B 4159   0.864   5.524  11.132 -0.6013  0.4008 -0.5144
   57SAPC  H15C 4160   0.772   5.437  11.011 -1.1713  0.8587 -0.0930
   57SAPC   C11 4161   0.871   5.596  10.715 -0.3503  0.6149 -0.6540
   57SAPC  H11A 4162   0.949   5.674  10.706  1.4806 -0.9158  1.3330
   57SAPC  H11B 4163   0.820   5.594  10.617 -1.1145 -1.1182 -0.2340
   57SAPC     P 4164   0.912   5.343  10.676 -0.4299 -0.4469 -0.4907
   57SAPC   O13 4165   1.031   5.263  10.708 -0.0004 -0.3659  0.0399
   57SAPC   O14 4166   0.779   5.287  10.715  0.3036  0.0299 -0.0882
   57SAPC   O12 4167   0.934   5.474  10.753 -0.1958 -0.5108  0.1916
   57SAPC   O11 4168   0.910   5.387  10.523  0.0721  0.4146 -0.1230
   57SAPC    C1 4169   1.016   5.438  10.453 -0.1724 -0.5515 -0.5213
   57SAPC    HA 4170   1.021   5.548  10.463  0.1553 -0.6824  0.7779
   57SAPC    HB 4171   1.113   5.390  10.476  0.6339  1.6078  0.6869
   57SAPC    C2 4172   0.977   5.417  10.305  0.4290  0.3995 -0.2426
   57SAPC    HS 4173   0.958   5.309  10.285  3.3943 -0.6439  2.1160
   57SAPC   O21 4174   1.083   5.464  10.222 -0.7876 -0.3597  0.0546
   57SAPC   C21 4175   1.187   5.387  10.187  0.2734  0.1434 -0.2591
   57SAPC   O22 4176   1.202   5.270  10.215  0.4083  0.2808 -0.0658
   57SAPC   C22 4177   1.292   5.481  10.121 -0.0111 -0.1583 -0.5083
   57SAPC   H2R 4178   1.253   5.538  10.033  0.6424  0.3595 -0.4642
   57SAPC   H2S 4179   1.317   5.565  10.189  1.0991 -1.4960  0.7691
   57SAPC    C3 4180   0.850   5.491  10.262  0.6365 -0.5025 -0.2950
   57SAPC    HX 4181   0.870   5.596  10.294  0.5893 -0.4052 -0.5855
   57SAPC    HY 4182   0.764   5.448  10.317  0.9592 -0.4507  0.2555
   57SAPC   O31 4183   0.823   5.481  10.124  0.7789  0.1454 -0.1847
   57SAPC   C31 4184   0.715   5.557  10.077  0.4755  0.4189  0.1795
   57SAPC   O32 4185   0.648   5.630  10.149  0.2295  0.2951  0.2822
   57SAPC   C32 4186   0.698   5.531   9.933  0.6589 -0.4899  0.5040
   57SAPC   H2X 4187   0.670   5.425   9.917  1.6423 -0.5772 -0.6944
   57SAPC   H2Y 4188   0.789   5.547   9.872  1.0225 -0.7823  0.9666
   57SAPC   C23 4189   1.424   5.415  10.066 -0.3757  0.2272  0.0495
   57SAPC   H3R 4190   1.466   5.342  10.138  2.9384 -0.2935 -2.2933
   57SAPC   H3S 4191   1.505   5.488  10.047 -1.1201  0.5660 -1.9623
   57SAPC   C24 4192   1.407   5.339   9.929 -0.3373 -0.2492 -0.0282
   57SAPC   H4R 4193   1.509   5.348   9.886  1.0668 -3.8003  2.3046
   57SAPC   H4S 4194   1.348   5.394   9.853 -0.0393  0.3327  0.1582
   57SAPC   C25 4195   1.367   5.192   9.933 -0.0227 -0.1400 -0.7267
   57SAPC   H5R 4196   1.412   5.138  10.017  1.8235 -0.4913 -1.9094
   57SAPC   C26 4197   1.293   5.123   9.846  0.6123  0.0006  0.0382
   57SAPC   H6R 4198   1.274   5.017   9.867  3.3131 -0.4386  0.4718
   57SAPC   C27 4199   1.216   5.171   9.720 -0.2680 -0.5547 -0.1341
   57SAPC   H7R 4200   1.214   5.089   9.646  0.9778 -0.2280 -0.5436
   57SAPC   H7S 4201   1.275   5.246   9.664 -0.4276  1.0369  1.7782
   57SAPC   C28 4202   1.080   5.234   9.747  0.5720 -0.7722  0.7136
   57SAPC   H8R 4203   1.040   5.212   9.847  0.8595  2.0701  1.4796
   57SAPC   C29 4204   1.015   5.314   9.670 -0.0581 -0.0802  0.4002
   57SAPC   H9R 4205   0.914   5.347   9.695 -0.8485  0.9373 -3.7681
   57SAPC  C210 4206   1.061   5.349   9.529  0.2868 -0.2944 -1.3035
   57SAPC  H10R 4207   1.168   5.381   9.525  0.3249 -0.2129  0.1572
   57SAPC  H10S 4208   0.999   5.436   9.498 -0.8918  0.0152  1.7422
   57SAPC  C211 4209   1.036   5.237   9.433  0.4383 -0.4267 -0.0971
   57SAPC  H11R 4210   1.010   5.139   9.474 -2.6457  0.7977  1.0628
   57SAPC  C212 4211   1.046   5.245   9.297 -0.1683 -0.2066 -0.1663
   57SAPC  H12R 4212   1.032   5.148   9.247  0.8444 -0.5188  0.1333
   57SAPC  C213 4213   1.091   5.366   9.217 -0.4285  0.1848  0.3176
   57SAPC  H13R 4214   1.202   5.372   9.217 -0.3425 -1.1340  0.4856
   57SAPC  H13S 4215   1.062   5.460   9.267  1.2292  1.6202 -1.3482
   57SAPC  C214 4216   1.030   5.360   9.076  0.1770  1.1961  0.0640
   57SAPC  H14R 4217   0.947   5.431   9.066 -1.6682 -0.5847  1.9926
   57SAPC  C215 4218   1.074   5.289   8.966  0.6270 -0.0202 -0.5463
   57SAPC  H15R 4219   1.026   5.289   8.867  1.3484  2.1333 -0.9294
   57SAPC  C216 4220   1.199   5.203   8.966  0.1946  0.0596 -0.0302
   57SAPC  H16R 4221   1.267   5.236   9.047  0.4087 -0.1999 -0.1051
   57SAPC  H16S 4222   1.266   5.230   8.881  0.6840 -2.9099 -0.6498
   57SAPC  C217 4223   1.167   5.049   8.981 -1.0267 -0.8398 -0.0272
   57SAPC  H17R 4224   1.106   5.042   9.073 -0.4348 -0.5885  0.3904
   57SAPC  H17S 4225   1.258   4.990   9.004 -1.7642 -1.5464  1.0961
   57SAPC  C218 4226   1.091   4.998   8.869  0.1907  0.2237 -0.3308
   57SAPC  H18R 4227   0.992   5.044   8.851  0.3151  0.5921 -0.0901
   57SAPC  H18S 4228   1.056   4.896   8.894 -0.9219  0.5680 -0.4728
   57SAPC  C219 4229   1.165   4.995   8.732  0.3735  0.1464  0.2267
   57SAPC  H19R 4230   1.184   5.099   8.698 -1.0616  0.9077  1.6657
   57SAPC  H19S 4231   1.093   4.958   8.656 -0.9562 -0.9716  1.9987
   57SAPC  C220 4232   1.303   4.929   8.726  0.4124 -0.8371  0.2667
   57SAPC  H20R 4233   1.289   4.831   8.776 -0.5361 -0.5209  0.6322
   57SAPC  H20S 4234   1.381   4.985   8.783  3.2209 -2.9107 -1.3797
   57SAPC  H20T 4235   1.332   4.906   8.622  1.5018 -0.6447  0.5198
   57SAPC   C33 4236   0.572   5.618   9.889 -0.1117 -0.1224  0.7937
   57SAPC   H3X 4237   0.581   5.722   9.925 -0.7559 -0.5822  2.3084
   57SAPC   H3Y 4238   0.477   5.581   9.932 -0.9825 -0.1010 -1.0470
   57SAPC   C34 4239   0.560   5.627   9.731  0.5863 -0.8661 -0.2894
   57SAPC   H4X 4240   0.637   5.700   9.701  0.1592 -0.9933 -1.7815
   57SAPC   H4Y 4241   0.455   5.661   9.717  0.5209 -0.6624  0.7087
   57SAPC   C35 4242   0.585   5.499   9.655  0.4803 -0.7566  0.0215
   57SAPC   H5X 4243   0.536   5.417   9.711  1.2152 -1.3589 -0.2203
   57SAPC   H5Y 4244   0.694   5.479   9.658  0.3727 -1.8084 -2.0149
   57SAPC   C36 4245   0.546   5.502   9.508 -0.2520  0.1499  0.1065
   57SAPC   H6X 4246   0.436   5.519   9.502  0.0586  2.0947 -0.4662
   57SAPC   H6Y 4247   0.573   5.406   9.460  0.7725  0.8583 -0.7717
   57SAPC   C37 4248   0.619   5.605   9.423  0.8424  0.1746  0.0541
   57SAPC   H7X 4249   0.728   5.605   9.445  0.8728 -1.6067 -0.0282
   57SAPC   H7Y 4250   0.576   5.703   9.450 -0.4485 -0.2140 -0.5108
   57SAPC   C38 4251   0.612   5.574   9.277 -0.0581  0.6422 -0.6541
   57SAPC   H8X 4252   0.511   5.540   9.246 -0.5095 -0.6182  2.0835
   57SAPC   H8Y 4253   0.686   5.494   9.260 -0.0738  0.8244 -1.5980
   57SAPC   C39 4254   0.645   5.695   9.187  0.0557  0.2940 -0.3826
   57SAPC   H9X 4255   0.735   5.747   9.228  1.0128 -2.6805  1.4901
   57SAPC   H9Y 4256   0.560   5.765   9.182  1.0888  1.5760 -0.3009
   57SAPC  C310 4257   0.683   5.641   9.048  0.6657 -0.5433 -0.5366
   57SAPC  H10X 4258   0.597   5.590   8.999  1.0665  0.9686 -2.8647
   57SAPC  H10Y 4259   0.760   5.561   9.057  2.0003  0.6958 -0.9379
   57SAPC  C311 4260   0.736   5.750   8.950 -0.1627  0.0409 -0.0030
   57SAPC  H11X 4261   0.844   5.769   8.969  0.0638  1.4395 -2.5770
   57SAPC  H11Y 4262   0.678   5.838   8.984 -0.3706  0.0929 -0.4936
   57SAPC  C312 4263   0.727   5.723   8.807  0.0433 -0.3244  0.5252
   57SAPC  H12X 4264   0.766   5.808   8.747  2.8756 -2.7511 -1.2411
   57SAPC  H12Y 4265   0.627   5.694   8.768  0.1982 -0.3354  0.1285
   57SAPC  C313 4266   0.826   5.609   8.770 -0.5113  0.1723 -0.6401
   57SAPC  H13X 4267   0.807   5.527   8.842 -0.3136 -0.1869 -0.9989
   57SAPC  H13Y 4268   0.927   5.647   8.794 -0.6838  0.3699 -0.2304
   57SAPC  C314 4269   0.810   5.558   8.627  0.7155 -0.0637 -0.1233
   57SAPC  H14X 4270   0.826   5.643   8.557 -0.9519 -0.3714 -0.8988
   57SAPC  H14Y 4271   0.705   5.522   8.612  0.9226 -2.1609  3.0756
   57SAPC  C315 4272   0.901   5.442   8.587 -0.1318 -0.5128 -0.0715
   57SAPC  H15X 4273   0.872   5.415   8.483  1.9219 -0.3184 -0.7251
   57SAPC  H15Y 4274   0.876   5.344   8.634  0.0834 -1.5679 -2.0941
   57SAPC  C316 4275   1.054   5.466   8.618 -0.0880 -0.6985  0.8698
   57SAPC  H16X 4276   1.073   5.518   8.714 -0.2099  2.1136 -0.5864
   57SAPC  H16Y 4277   1.086   5.539   8.541  0.6346 -2.4177 -0.4969
   57SAPC  C317 4278   1.142   5.340   8.605  0.1927  0.8599 -0.1484
   57SAPC  H17X 4279   1.093   5.265   8.670  1.7746 -0.6335 -0.6262
   57SAPC  H17Y 4280   1.243   5.369   8.642  0.6339 -1.5677  0.6494
   57SAPC  C318 4281   1.137   5.281   8.461 -0.1248  0.3190 -0.0190
   57SAPC  H18X 4282   1.160   5.367   8.393 -0.5082  2.3853  2.3923
   57SAPC  H18Y 4283   1.036   5.242   8.434 -1.0255  1.2541  1.9369
   57SAPC  H18Z 4284   1.215   5.203   8.450  1.3631  1.8368 -0.4540
   58SAPC     N 4285   3.439   2.952  10.904  0.4643  0.0427 -0.0402
   58SAPC   C12 4286   3.380   3.054  10.806  0.3347 -0.0367  0.1321
   58SAPC  H12A 4287   3.278   3.078  10.829 -0.1663 -1.8967 -0.0296
   58SAPC  H12B 4288   3.377   3.011  10.706  1.1078  2.6555 -1.0855
   58SAPC   C13 4289   3.571   2.902  10.844  0.4957  0.0935  0.4023
   58SAPC  H13A 4290   3.561   2.841  10.755 -1.7670 -0.7044  1.1444
   58SAPC  H13B 4291   3.632   2.990  10.831 -1.5126  1.2317 -1.8082
   58SAPC  H13C 4292   3.619   2.830  10.909 -0.6617 -0.1273  1.0319
   58SAPC   C14 4293   3.469   3.014  11.034  0.6084 -0.3001  1.3422
   58SAPC  H14A 4294   3.527   3.105  11.028 -0.8453  0.6458  1.4297
   58SAPC  H14B 4295   3.378   3.051  11.079  0.3301  0.0745  0.4850
   58SAPC  H14C 4296   3.501   2.940  11.105 -0.6377  0.1917  2.4311
   58SAPC   C15 4297   3.356   2.829  10.919 -0.4426 -0.4872  0.1245
   58SAPC  H15A 4298   3.304   2.791  10.833 -1.0807  1.0004 -0.1712
   58SAPC  H15B 4299   3.412   2.756  10.975  0.7596  1.0763  1.0242
   58SAPC  H15C 4300   3.263   2.852  10.969 -1.3432 -0.8910 -1.3555
   58SAPC   C11 4301   3.452   3.183  10.773 -0.4134  0.0508  0.1195
   58SAPC  H11A 4302   3.455   3.249  10.862  0.2777  1.6475 -1.0464
   58SAPC  H11B 4303   3.390   3.232  10.694 -0.8348 -1.7450 -0.6818
   58SAPC     P 4304   3.623   3.153  10.578  0.1553 -0.0759  0.1663
   58SAPC   O13 4305   3.616   3.287  10.519  0.3277  0.4579 -0.4704
   58SAPC   O14 4306   3.748   3.080  10.572 -0.1036  0.1611  0.3814
   58SAPC   O12 4307   3.587   3.161  10.725  0.0049  0.1318  0.0953
   58SAPC   O11 4308   3.500   3.069  10.521  0.2071 -0.1990  0.0513
   58SAPC    C1 4309   3.518   2.933  10.472  0.3346  0.2579  1.2726
   58SAPC    HA 4310   3.618   2.887  10.477 -0.5897 -1.8681  0.5527
   58SAPC    HB 4311   3.447   2.864  10.522 -2.1707  0.3421 -2.0001
   58SAPC    C2 4312   3.462   2.919  10.321 -0.7398 -0.1643  0.1951
   58SAPC    HS 4313   3.416   2.819  10.311 -0.1989 -0.5262  1.2663
   58SAPC   O21 4314   3.571   2.933  10.231 -0.3098 -0.8490 -0.1977
   58SAPC   C21 4315   3.656   2.832  10.221 -0.1796  0.3137 -0.4671
   58SAPC   O22 4316   3.633   2.723  10.268  0.2667  0.3344 -0.4397
   58SAPC   C22 4317   3.772   2.866  10.139 -0.2130 -0.5441  0.1270
   58SAPC   H2R 4318   3.827   2.952  10.185 -0.4991 -0.3136  0.0375
   58SAPC   H2S 4319   3.843   2.781  10.127  1.9326  0.9458  1.7953
   58SAPC    C3 4320   3.363   3.033  10.294  0.3955  0.2404 -0.3833
   58SAPC    HX 4321   3.401   3.135  10.318  0.8395 -0.7049  3.1617
   58SAPC    HY 4322   3.290   3.027  10.378 -1.0669 -0.3137 -1.6809
   58SAPC   O31 4323   3.293   3.020  10.170  0.1095  0.4739 -0.5305
   58SAPC   C31 4324   3.191   3.110  10.150  0.0032 -0.7223  0.0646
   58SAPC   O32 4325   3.171   3.204  10.223 -0.2039 -0.5007  0.3065
   58SAPC   C32 4326   3.112   3.065  10.019  0.2212  0.4345  0.5485
   58SAPC   H2X 4327   3.022   3.009  10.052 -0.7446  1.1489 -0.8313
   58SAPC   H2Y 4328   3.185   2.999   9.968  0.2435 -0.1360  1.3067
   58SAPC   C23 4329   3.735   2.919  10.003 -0.4430  0.2036  0.4573
   58SAPC   H3R 4330   3.659   2.999  10.017 -0.0850  0.4733  0.8681
   58SAPC   H3S 4331   3.679   2.842   9.946 -1.7087 -0.6549  2.7800
   58SAPC   C24 4332   3.853   2.980   9.935  0.3461 -0.3610  0.0937
   58SAPC   H4R 4333   3.926   2.897   9.928  1.2315  0.4501 -0.2644
   58SAPC   H4S 4334   3.901   3.061   9.994 -0.8608  0.0058  0.5964
   58SAPC   C25 4335   3.809   3.044   9.801 -1.2294  0.5358 -0.0701
   58SAPC   H5R 4336   3.731   3.120   9.821 -1.8565  0.4367 -2.0505
   58SAPC   C26 4337   3.862   3.013   9.677 -0.3256 -0.2112 -0.2074
   58SAPC   H6R 4338   3.826   3.075   9.593  0.2015  1.9660  1.1392
   58SAPC   C27 4339   3.955   2.899   9.642 -0.3688 -0.1887  0.2703
   58SAPC   H7R 4340   4.014   2.857   9.726 -0.7111 -1.5069 -0.1511
   58SAPC   H7S 4341   4.033   2.925   9.567 -1.6123  0.1325 -0.9297
   58SAPC   C28 4342   3.866   2.795   9.578  0.3962 -0.5457  0.5477
   58SAPC   H8R 4343   3.837   2.721   9.653  1.0087 -1.6194 -0.2501
   58SAPC   C29 4344   3.847   2.783   9.446  0.5793 -0.1180 -0.7264
   58SAPC   H9R 4345   3.780   2.702   9.414  0.8160 -0.4545 -0.3865
   58SAPC  C210 4346   3.896   2.879   9.345 -0.0376 -0.3909  0.3752
   58SAPC  H10R 4347   3.950   2.964   9.392 -2.2294  0.0653  2.1742
   58SAPC  H10S 4348   3.811   2.933   9.298  0.4806 -0.9460 -1.2472
   58SAPC  C211 4349   3.993   2.812   9.242  0.0663 -0.6287 -0.2563
   58SAPC  H11R 4350   4.031   2.712   9.266  0.8837  0.0682  1.4429
   58SAPC  C212 4351   4.025   2.862   9.119  0.1750 -0.1114  0.3098
   58SAPC  H12R 4352   4.095   2.811   9.051  0.2855  0.5108 -0.0556
   58SAPC  C213 4353   3.978   3.000   9.068 -0.3537  0.5200  0.5101
   58SAPC  H13R 4354   4.057   3.075   9.088  0.7998 -0.5319  0.0088
   58SAPC  H13S 4355   3.889   3.034   9.125  0.5555  3.4516  0.2392
   58SAPC  C214 4356   3.934   2.988   8.925  0.7338 -0.2703 -0.4037
   58SAPC  H14R 4357   3.841   2.931   8.914  0.2783  0.5170 -0.7084
   58SAPC  C215 4358   4.000   3.014   8.812  0.5190  0.2485 -0.2740
   58SAPC  H15R 4359   3.953   3.001   8.714  1.1410 -1.4622 -0.3608
   58SAPC  C216 4360   4.133   3.088   8.807  0.4496  0.1053 -0.7773
   58SAPC  H16R 4361   4.213   3.030   8.756 -0.4302 -2.3610  0.5813
   58SAPC  H16S 4362   4.166   3.098   8.912  0.8292 -0.0065 -0.8830
   58SAPC  C217 4363   4.103   3.219   8.747  0.3098  0.2735 -0.0513
   58SAPC  H17R 4364   4.184   3.292   8.767  0.1161  0.9071 -1.4845
   58SAPC  H17S 4365   4.016   3.265   8.798  0.0525 -0.3521  0.0697
   58SAPC  C218 4366   4.057   3.226   8.599 -0.2214  0.2476  0.3727
   58SAPC  H18R 4367   4.010   3.323   8.573  1.9400  1.5034  1.0532
   58SAPC  H18S 4368   3.976   3.151   8.584  0.6219 -0.8555  1.2436
   58SAPC  C219 4369   4.177   3.208   8.504  0.8130 -0.4976 -0.0970
   58SAPC  H19R 4370   4.211   3.102   8.510  1.3153 -0.3748 -0.8235
   58SAPC  H19S 4371   4.251   3.282   8.540  0.3621  0.1447 -0.4858
   58SAPC  C220 4372   4.142   3.252   8.355  0.1801 -0.2871  0.0002
   58SAPC  H20R 4373   4.241   3.258   8.305 -0.0991  0.3528 -0.4842
   58SAPC  H20S 4374   4.101   3.356   8.353 -0.1587 -0.3856  1.3667
   58SAPC  H20T 4375   4.084   3.174   8.303  0.6129 -1.4916  1.3132
   58SAPC   C33 4376   3.063   3.188   9.943  0.1341 -0.7218  0.9692
   58SAPC   H3X 4377   3.150   3.252   9.921 -1.1977  0.4284 -1.1006
   58SAPC   H3Y 4378   2.995   3.237  10.016 -1.0441 -0.6325 -0.1746
   58SAPC   C34 4379   2.971   3.159   9.819  0.6245  0.3186 -0.8045
   58SAPC   H4X 4380   2.878   3.220   9.824 -0.0853 -0.8246  0.1190
   58SAPC   H4Y 4381   2.931   3.056   9.820  0.0422  0.5525  0.5054
   58SAPC   C35 4382   3.038   3.185   9.683 -0.5807 -0.3205  0.3092
   58SAPC   H5X 4383   3.145   3.154   9.685 -1.2429 -2.6241  0.9039
   58SAPC   H5Y 4384   3.038   3.293   9.653 -1.4348 -0.0437  1.2988
   58SAPC   C36 4385   2.963   3.104   9.572  0.0450  0.1582 -0.2068
   58SAPC   H6X 4386   2.857   3.134   9.561 -0.1298 -0.6999 -0.9708
   58SAPC   H6Y 4387   2.953   2.999   9.610  2.0284  0.7240  1.9791
   58SAPC   C37 4388   3.033   3.100   9.436  0.2983 -0.0080 -0.4772
   58SAPC   H7X 4389   3.138   3.065   9.448  0.5038  0.6796 -0.2497
   58SAPC   H7Y 4390   3.034   3.206   9.404 -2.6435  0.2759  0.2504
   58SAPC   C38 4391   2.949   3.016   9.335 -0.4483  0.3200  0.8310
   58SAPC   H8X 4392   2.849   3.058   9.310 -0.1884 -0.2438 -1.2561
   58SAPC   H8Y 4393   2.932   2.915   9.379  0.4524 -0.0469  0.3340
   58SAPC   C39 4394   3.028   2.982   9.198  0.2102 -0.2010  0.2600
   58SAPC   H9X 4395   2.971   2.911   9.134 -1.9850  1.2461  0.5415
   58SAPC   H9Y 4396   3.118   2.928   9.233 -0.0485 -0.3134  0.7604
   58SAPC  C310 4397   3.067   3.113   9.129  0.4522 -0.3717 -0.1164
   58SAPC  H10X 4398   3.139   3.166   9.196  0.9977 -2.2212  0.8107
   58SAPC  H10Y 4399   2.982   3.177   9.100 -2.6506 -4.2641  0.0114
   58SAPC  C311 4400   3.148   3.095   8.995 -0.1272  0.7238 -0.3372
   58SAPC  H11X 4401   3.235   3.033   9.023 -2.1134 -2.0404 -0.0974
   58SAPC  H11Y 4402   3.181   3.195   8.960  1.2241  0.7533  0.9503
   58SAPC  C312 4403   3.071   3.025   8.887  0.6893 -0.0975 -1.3754
   58SAPC  H12X 4404   2.981   3.085   8.863  0.7397  0.2744 -0.6291
   58SAPC  H12Y 4405   3.043   2.925   8.928  2.0011 -0.1728 -0.6518
   58SAPC  C313 4406   3.153   3.003   8.764 -0.6968  0.1717  0.7496
   58SAPC  H13X 4407   3.256   3.040   8.784 -0.2039  0.2522 -1.7303
   58SAPC  H13Y 4408   3.101   3.051   8.678  0.5779  0.7445  0.2858
   58SAPC  C314 4409   3.169   2.851   8.734  0.1618  0.3830  0.3740
   58SAPC  H14X 4410   3.068   2.804   8.725  0.8057 -1.0876  0.6978
   58SAPC  H14Y 4411   3.214   2.808   8.826  2.4575  0.8983 -0.4693
   58SAPC  C315 4412   3.236   2.820   8.596  0.7099 -0.1206  1.1611
   58SAPC  H15X 4413   3.262   2.911   8.538 -1.4807 -1.0793 -1.4447
   58SAPC  H15Y 4414   3.165   2.763   8.532  2.1507  0.8231 -1.3106
   58SAPC  C316 4415   3.361   2.735   8.621  0.8540 -0.5698 -0.4739
   58SAPC  H16X 4416   3.335   2.644   8.679  1.1583 -2.7535 -3.6163
   58SAPC  H16Y 4417   3.429   2.794   8.685  1.7606  0.6126 -2.4716
   58SAPC  C317 4418   3.429   2.687   8.498  0.7254 -0.8372  0.3645
   58SAPC  H17X 4419   3.436   2.761   8.415  1.9566 -0.5395  0.7212
   58SAPC  H17Y 4420   3.356   2.609   8.468  0.0562  0.2045 -0.7923
   58SAPC  C318 4421   3.563   2.621   8.529 -0.2697  0.2178 -0.1943
   58SAPC  H18X 4422   3.611   2.571   8.443 -0.0318 -2.1128  1.2488
   58SAPC  H18Y 4423   3.543   2.530   8.591 -0.9035 -1.0837 -2.2545
   58SAPC  H18Z 4424   3.635   2.689   8.579  0.2368 -1.0767  0.8621
   59SAPC     N 4425   5.397   4.797  11.427 -0.5728  0.2203  0.6419
   59SAPC   C12 4426   5.251   4.778  11.427 -1.1189 -0.4297  0.0225
   59SAPC  H12A 4427   5.213   4.879  11.426 -1.2859 -0.4386  2.0228
   59SAPC  H12B 4428   5.224   4.734  11.522  0.0349  0.8964  0.9914
   59SAPC   C13 4429   5.476   4.668  11.440  0.2061 -0.0625  0.0790
   59SAPC  H13A 4430   5.581   4.691  11.434 -0.1150  1.0994 -1.3409
   59SAPC  H13B 4431   5.456   4.599  11.521 -0.5568  0.6436  0.4962
   59SAPC  H13C 4432   5.449   4.607  11.355  2.4702 -1.2407  0.1716
   59SAPC   C14 4433   5.449   4.858  11.302 -0.5851 -0.0296 -0.3078
   59SAPC  H14A 4434   5.419   4.810  11.211  0.2793  0.9698 -1.1288
   59SAPC  H14B 4435   5.418   4.962  11.305  1.6570  0.6341  1.0101
   59SAPC  H14C 4436   5.556   4.855  11.305 -0.6174 -0.2095  0.9976
   59SAPC   C15 4437   5.435   4.887  11.537  0.4472 -0.0412  0.0508
   59SAPC  H15A 4438   5.405   4.840  11.630 -0.9158  1.9832  0.6799
   59SAPC  H15B 4439   5.541   4.908  11.527  0.7652 -0.9160  1.4745
   59SAPC  H15C 4440   5.391   4.986  11.531  0.5307 -0.0330 -0.4247
   59SAPC   C11 4441   5.184   4.695  11.318  0.2791 -0.6345 -0.5175
   59SAPC  H11A 4442   5.221   4.733  11.220  1.8573 -1.4294 -0.2415
   59SAPC  H11B 4443   5.074   4.709  11.320  0.0869 -1.8657  4.6912
   59SAPC     P 4444   5.249   4.460  11.210  0.2249 -0.2291  0.0534
   59SAPC   O13 4445   5.387   4.414  11.228  0.5240 -0.2944 -0.1876
   59SAPC   O14 4446   5.141   4.359  11.207  0.1965 -0.4428 -0.0745
   59SAPC   O12 4447   5.209   4.557  11.337 -0.1214 -0.0237  1.3506
   59SAPC   O11 4448   5.235   4.553  11.085  0.2444  0.0639 -0.5904
   59SAPC    C1 4449   5.117   4.572  11.009  0.1697 -0.1765 -0.3242
   59SAPC    HA 4450   5.022   4.560  11.066  1.2950 -0.5453  1.5321
   59SAPC    HB 4451   5.119   4.680  10.982 -1.4145  0.2202  1.1150
   59SAPC    C2 4452   5.113   4.495  10.874  0.4876 -0.0519  0.6204
   59SAPC    HS 4453   5.109   4.389  10.904  0.3071  0.3560  2.0783
   59SAPC   O21 4454   5.231   4.530  10.804  0.1916  0.2757 -0.4119
   59SAPC   C21 4455   5.322   4.442  10.762 -0.3547  0.5923 -0.2030
   59SAPC   O22 4456   5.303   4.322  10.747  1.2858  0.0972 -0.3666
   59SAPC   C22 4457   5.442   4.525  10.710 -0.0718  0.1143 -0.5235
   59SAPC   H2R 4458   5.388   4.619  10.684 -1.7008 -0.4776  0.6526
   59SAPC   H2S 4459   5.515   4.561  10.785 -0.5615  3.2384 -1.4920
   59SAPC    C3 4460   4.986   4.533  10.792  0.3063  0.1978 -0.3829
   59SAPC    HX 4461   5.003   4.636  10.753  0.3599 -0.0507 -1.0257
   59SAPC    HY 4462   4.899   4.529  10.861  0.9120  1.4852  0.4791
   59SAPC   O31 4463   4.976   4.434  10.684 -0.6667 -0.0510  0.0086
   59SAPC   C31 4464   4.867   4.453  10.604 -0.8609  0.4842 -0.2726
   59SAPC   O32 4465   4.783   4.536  10.624  0.2772 -0.5082  0.2618
   59SAPC   C32 4466   4.851   4.332  10.510 -0.2683 -0.0688  0.6170
   59SAPC   H2X 4467   4.826   4.243  10.571 -3.9348  0.2796 -0.2942
   59SAPC   H2Y 4468   4.953   4.315  10.469 -0.1609 -0.3486  1.0007
   59SAPC   C23 4469   5.498   4.447  10.585 -0.0601 -0.3069 -1.1586
   59SAPC   H3R 4470   5.503   4.339  10.612 -1.4122  0.4112  2.2455
   59SAPC   H3S 4471   5.600   4.489  10.568 -0.2475 -0.1535 -1.9376
   59SAPC   C24 4472   5.413   4.465  10.466  0.0544  0.1457  0.2044
   59SAPC   H4R 4473   5.394   4.569  10.435 -1.3718 -0.2591 -0.3254
   59SAPC   H4S 4474   5.309   4.427  10.475 -0.2692  0.8781 -0.4174
   59SAPC   C25 4475   5.466   4.377  10.357 -0.1536 -0.4596  0.6114
   59SAPC   H5R 4476   5.455   4.269  10.370 -1.7091 -0.7127 -2.2473
   59SAPC   C26 4477   5.528   4.425  10.249 -0.7351  0.5167  0.0565
   59SAPC   H6R 4478   5.578   4.357  10.180  0.5334 -0.1950  1.6510
   59SAPC   C27 4479   5.536   4.577  10.225  0.7990 -0.2409  0.2290
   59SAPC   H7R 4480   5.562   4.632  10.317 -1.0902  0.6006  0.2878
   59SAPC   H7S 4481   5.433   4.612  10.202  1.6238  0.0943 -3.2569
   59SAPC   C28 4482   5.627   4.618  10.111  0.0421  0.3056 -0.6648
   59SAPC   H8R 4483   5.722   4.664  10.142 -0.1323  0.4892 -0.3967
   59SAPC   C29 4484   5.602   4.607   9.978  0.3675  0.2490 -0.3262
   59SAPC   H9R 4485   5.673   4.659   9.913 -0.2305  0.8711 -0.4881
   59SAPC  C210 4486   5.472   4.550   9.917 -0.5912 -0.3593 -0.4127
   59SAPC  H10R 4487   5.427   4.626   9.849 -1.5213 -0.7805 -0.2702
   59SAPC  H10S 4488   5.404   4.529  10.003  1.1200  0.6605  1.2305
   59SAPC  C211 4489   5.515   4.420   9.849  0.1777  0.1188  0.0038
   59SAPC  H11R 4490   5.548   4.334   9.909  3.6276  1.4509  0.1082
   59SAPC  C212 4491   5.509   4.400   9.715 -0.3045  0.6601 -0.4785
   59SAPC  H12R 4492   5.543   4.304   9.672 -2.2782  0.7689 -2.3312
   59SAPC  C213 4493   5.456   4.482   9.604  0.2122  0.6237  0.0923
   59SAPC  H13R 4494   5.372   4.550   9.631  0.0161  0.1144  0.7637
   59SAPC  H13S 4495   5.399   4.409   9.543  1.9989  0.1223 -1.0044
   59SAPC  C214 4496   5.565   4.547   9.529  0.1205 -0.1728  0.8663
   59SAPC  H14R 4497   5.600   4.633   9.588  0.0299  1.1959 -1.0532
   59SAPC  C215 4498   5.635   4.508   9.419 -0.3421  1.0321 -0.3437
   59SAPC  H15R 4499   5.720   4.565   9.379  1.2415 -0.6425  0.5676
   59SAPC  C216 4500   5.602   4.379   9.344 -0.2164 -0.0692 -0.2219
   59SAPC  H16R 4501   5.519   4.320   9.387  0.7497 -1.3092 -0.0465
   59SAPC  H16S 4502   5.693   4.315   9.346  0.3347  0.6954 -0.6507
   59SAPC  C217 4503   5.558   4.408   9.201  0.0998 -0.5505 -0.0735
   59SAPC  H17R 4504   5.466   4.470   9.212 -0.1318 -0.8043 -0.5457
   59SAPC  H17S 4505   5.530   4.317   9.144  1.3287 -1.3909  0.6547
   59SAPC  C218 4506   5.672   4.471   9.115  0.4086  0.1798  0.1924
   59SAPC  H18R 4507   5.750   4.398   9.084 -1.2090 -1.7857  0.7287
   59SAPC  H18S 4508   5.713   4.550   9.182 -0.7173  0.8775  0.0642
   59SAPC  C219 4509   5.620   4.547   8.994  0.3776 -0.3970  0.0284
   59SAPC  H19R 4510   5.555   4.634   9.020  0.3120 -0.9288  1.6691
   59SAPC  H19S 4511   5.550   4.484   8.935 -0.6345  0.8652 -0.1573
   59SAPC  C220 4512   5.727   4.593   8.893  0.3332 -0.1937  0.0184
   59SAPC  H20R 4513   5.788   4.673   8.939 -0.6396  0.5378  0.0402
   59SAPC  H20S 4514   5.689   4.640   8.800  0.1355 -1.1382 -0.3810
   59SAPC  H20T 4515   5.790   4.506   8.863  0.5964 -1.0195  2.8313
   59SAPC   C33 4516   4.728   4.355  10.412  0.1891 -0.2965 -0.0701
   59SAPC   H3X 4517   4.638   4.345  10.475  0.8941  0.6387  1.1068
   59SAPC   H3Y 4518   4.730   4.275  10.334 -1.0291 -2.1857  1.7857
   59SAPC   C34 4519   4.717   4.483  10.330  0.3458  0.5195 -0.6027
   59SAPC   H4X 4520   4.708   4.571  10.397 -1.2247 -0.5638  0.6273
   59SAPC   H4Y 4521   4.636   4.475  10.254  0.7482  0.5330 -1.0392
   59SAPC   C35 4522   4.843   4.505  10.240 -0.5812 -0.1753 -0.0218
   59SAPC   H5X 4523   4.855   4.419  10.170 -1.7196  0.1013 -0.5617
   59SAPC   H5Y 4524   4.933   4.507  10.305  1.1252 -0.2900 -2.2875
   59SAPC   C36 4525   4.844   4.626  10.144  0.5429  0.1289 -0.6870
   59SAPC   H6X 4526   4.943   4.621  10.095  0.8331 -2.9887  0.0858
   59SAPC   H6Y 4527   4.832   4.720  10.203 -1.9661 -2.0202  2.4259
   59SAPC   C37 4528   4.740   4.621  10.020 -0.2849 -0.7365  0.5227
   59SAPC   H7X 4529   4.738   4.726   9.984 -0.4685  0.1559  3.0301
   59SAPC   H7Y 4530   4.638   4.596  10.056 -1.5798  2.4047 -0.8780
   59SAPC   C38 4531   4.793   4.532   9.905 -0.3280  0.8640 -0.1911
   59SAPC   H8X 4532   4.803   4.428   9.945 -0.3926  0.2732 -1.7047
   59SAPC   H8Y 4533   4.895   4.567   9.879  0.6063 -1.0532  0.7768
   59SAPC   C39 4534   4.703   4.550   9.777 -0.6049  0.1484  0.4154
   59SAPC   H9X 4535   4.692   4.658   9.750  0.3334  0.4069  1.0348
   59SAPC   H9Y 4536   4.600   4.522   9.806 -0.7577 -0.4204 -0.6487
   59SAPC  C310 4537   4.742   4.453   9.662 -0.4939 -0.3305 -0.3091
   59SAPC  H10X 4538   4.755   4.352   9.707  1.5401 -0.6695 -1.6163
   59SAPC  H10Y 4539   4.834   4.492   9.615 -0.5372  1.6919  1.2205
   59SAPC  C311 4540   4.625   4.429   9.567 -0.6200 -1.0466 -0.1711
   59SAPC  H11X 4541   4.591   4.532   9.542 -2.9396 -1.5530  0.7774
   59SAPC  H11Y 4542   4.548   4.369   9.619 -1.4079  0.6401  0.6294
   59SAPC  C312 4543   4.670   4.363   9.435 -0.0813 -0.0773 -0.4723
   59SAPC  H12X 4544   4.703   4.260   9.462  1.4919  0.5771  0.1883
   59SAPC  H12Y 4545   4.752   4.431   9.405  0.6414 -0.1613  1.2605
   59SAPC  C313 4546   4.570   4.354   9.318  0.3950 -0.1072  0.1200
   59SAPC  H13X 4547   4.527   4.456   9.309 -3.2002 -1.6024 -0.4951
   59SAPC  H13Y 4548   4.481   4.293   9.344  1.1406 -0.8901  0.8737
   59SAPC  C314 4549   4.606   4.297   9.174  0.3698 -0.7120  0.8315
   59SAPC  H14X 4550   4.652   4.197   9.189 -0.7135 -1.2332  0.7160
   59SAPC  H14Y 4551   4.687   4.364   9.135 -1.7982  0.6592 -1.4680
   59SAPC  C315 4552   4.493   4.284   9.072  0.5837  0.7042 -0.5555
   59SAPC  H15X 4553   4.419   4.209   9.108  0.1308  0.0241 -2.8254
   59SAPC  H15Y 4554   4.529   4.248   8.973 -3.2111 -1.6184 -1.2174
   59SAPC  C316 4555   4.414   4.410   9.032 -0.6153 -0.5543  0.2336
   59SAPC  H16X 4556   4.379   4.445   9.132  2.4139  2.7942  0.2203
   59SAPC  H16Y 4557   4.326   4.388   8.968 -0.3251 -0.7150 -0.1077
   59SAPC  C317 4558   4.500   4.530   8.987 -0.4437  0.6752  0.5302
   59SAPC  H17X 4559   4.580   4.474   8.934  0.3295 -0.0559  2.4203
   59SAPC  H17Y 4560   4.553   4.571   9.076 -1.0624  0.5525  0.9583
   59SAPC  C318 4561   4.433   4.635   8.895 -1.2110  0.2784  0.1557
   59SAPC  H18X 4562   4.511   4.711   8.874 -2.1341  1.5728  1.3766
   59SAPC  H18Y 4563   4.357   4.692   8.952 -1.5470  1.9437 -1.9253
   59SAPC  H18Z 4564   4.393   4.596   8.799  1.1877 -1.3989 -0.2113
   60SAPC     N 4565   5.901   2.051  10.935 -0.3652 -0.2912  0.1208
   60SAPC   C12 4566   6.016   2.081  10.844  0.3922  0.1301  0.0945
   60SAPC  H12A 4567   6.018   2.002  10.770 -2.8449  0.9004 -0.8915
   60SAPC  H12B 4568   6.108   2.072  10.900  1.6237  1.7762 -1.5738
   60SAPC   C13 4569   5.886   2.150  11.040 -0.1720 -0.0044 -0.3922
   60SAPC  H13A 4570   5.860   2.246  10.998 -1.3545 -0.2453 -0.2210
   60SAPC  H13B 4571   5.809   2.112  11.105  0.0820  0.5475  0.2336
   60SAPC  H13C 4572   5.972   2.169  11.102  0.5380  1.9499 -1.9092
   60SAPC   C14 4573   5.770   2.045  10.863  0.2424  0.8943 -0.1251
   60SAPC  H14A 4574   5.682   2.024  10.922 -1.6418  0.1255 -3.0980
   60SAPC  H14B 4575   5.752   2.133  10.804 -0.5825  1.2732  0.6866
   60SAPC  H14C 4576   5.768   1.960  10.797 -0.7415 -0.6006  1.7724
   60SAPC   C15 4577   5.913   1.917  11.002 -0.8370 -0.8110  0.6238
   60SAPC  H15A 4578   5.934   1.844  10.926 -1.8658 -0.4966  0.0335
   60SAPC  H15B 4579   5.994   1.924  11.073  0.8130  2.3323 -1.4718
   60SAPC  H15C 4580   5.822   1.895  11.056 -2.3859 -0.5367 -1.8038
   60SAPC   C11 4581   6.000   2.210  10.768 -0.5226  0.0043 -0.0851
   60SAPC  H11A 4582   5.903   2.209  10.713  0.1221 -1.1417 -1.2157
   60SAPC  H11B 4583   6.070   2.213  10.682  1.9665  1.3862  1.9276
   60SAPC     P 4584   6.162   2.378  10.899  0.3907 -0.3063  0.4164
   60SAPC   O13 4585   6.160   2.529  10.901 -0.2352  0.1042 -0.2314
   60SAPC   O14 4586   6.193   2.312  11.029  0.0779 -0.3819  0.2006
   60SAPC   O12 4587   6.020   2.328  10.848 -0.3856  0.4063  0.3346
   60SAPC   O11 4588   6.265   2.324  10.792 -0.0860 -0.2068 -0.2637
   60SAPC    C1 4589   6.340   2.420  10.707  0.2873  0.4661 -0.1554
   60SAPC    HA 4590   6.388   2.502  10.764  1.3214 -0.6903  0.6564
   60SAPC    HB 4591   6.417   2.372  10.644  0.6035 -0.8717  1.2232
   60SAPC    C2 4592   6.249   2.502  10.608 -0.7160 -0.5854 -0.1650
   60SAPC    HS 4593   6.180   2.563  10.670 -0.6090  0.8676 -1.4462
   60SAPC   O21 4594   6.187   2.395  10.537 -0.0086 -0.2840  0.0863
   60SAPC   C21 4595   6.060   2.420  10.499 -0.0009  0.3219 -0.9004
   60SAPC   O22 4596   5.999   2.524  10.524 -0.1892  0.1795 -0.1664
   60SAPC   C22 4597   6.004   2.307  10.417 -0.1646 -0.0126 -0.1614
   60SAPC   H2R 4598   5.995   2.222  10.487  1.7564  0.9799  1.3398
   60SAPC   H2S 4599   5.904   2.339  10.381  0.0151  1.5041  0.6422
   60SAPC    C3 4600   6.331   2.598  10.509 -0.6342 -0.1208 -0.5250
   60SAPC    HX 4601   6.376   2.537  10.428  0.3970 -0.2722  0.1578
   60SAPC    HY 4602   6.417   2.648  10.558  1.4209 -2.5060 -1.5796
   60SAPC   O31 4603   6.237   2.682  10.450 -0.3488  0.1231  1.0406
   60SAPC   C31 4604   6.224   2.802  10.503  0.0666  0.3043  0.8340
   60SAPC   O32 4605   6.302   2.842  10.587 -0.0918  0.3369 -0.0889
   60SAPC   C32 4606   6.099   2.871  10.461  0.0880  0.4039 -0.4784
   60SAPC   H2X 4607   6.074   2.941  10.544  0.0341  0.5736 -0.6383
   60SAPC   H2Y 4608   6.020   2.797  10.485  1.3996 -0.8138  0.0863
   60SAPC   C23 4609   6.082   2.261  10.291  0.5720 -0.0395  0.1019
   60SAPC   H3R 4610   6.015   2.188  10.241  0.0424  0.7919 -0.4413
   60SAPC   H3S 4611   6.173   2.205  10.321  2.0793  1.9143 -0.6793
   60SAPC   C24 4612   6.105   2.382  10.190 -0.2565 -0.1762 -0.5782
   60SAPC   H4R 4613   6.172   2.347  10.109  3.5921 -1.5315  3.0409
   60SAPC   H4S 4614   6.156   2.466  10.242 -0.8291  0.6734 -1.3755
   60SAPC   C25 4615   5.979   2.434  10.132  1.3198 -0.6888  0.0051
   60SAPC   H5R 4616   5.917   2.497  10.198  0.7454 -2.7831  1.5086
   60SAPC   C26 4617   5.927   2.409  10.009  0.0143  0.6257  0.3236
   60SAPC   H6R 4618   5.841   2.473   9.984 -0.4371 -0.1157 -0.0451
   60SAPC   C27 4619   5.987   2.324   9.899  0.6019  0.3440  0.0696
   60SAPC   H7R 4620   5.909   2.270   9.842  0.7395  0.5961 -0.3599
   60SAPC   H7S 4621   6.053   2.251   9.951  0.6155 -0.3025 -0.8448
   60SAPC   C28 4622   6.072   2.419   9.813  0.2700 -0.4297 -0.0634
   60SAPC   H8R 4623   6.160   2.448   9.872 -0.4997  0.3442  0.7116
   60SAPC   C29 4624   6.055   2.468   9.692 -0.2162  0.3768  0.1184
   60SAPC   H9R 4625   6.132   2.532   9.646 -0.7053 -0.0992 -1.3839
   60SAPC  C210 4626   5.942   2.453   9.591 -0.1200 -0.7449  0.1596
   60SAPC  H10R 4627   5.911   2.555   9.561 -2.5106 -1.3516  0.4376
   60SAPC  H10S 4628   5.858   2.418   9.654 -1.3961 -0.1672 -1.1977
   60SAPC  C211 4629   5.968   2.350   9.475  0.4881  0.4058  0.1690
   60SAPC  H11R 4630   5.984   2.246   9.507  1.5057  0.9319  1.4039
   60SAPC  C212 4631   5.952   2.366   9.344 -0.4935  0.8205 -0.2495
   60SAPC  H12R 4632   5.973   2.278   9.282 -2.5930 -1.1738  1.7523
   60SAPC  C213 4633   5.891   2.488   9.271 -0.5180 -0.0077 -0.7539
   60SAPC  H13R 4634   5.967   2.570   9.267 -1.0256  0.6643  2.4447
   60SAPC  H13S 4635   5.806   2.535   9.324 -0.8425  1.3207 -2.3982
   60SAPC  C214 4636   5.844   2.459   9.134 -0.2087 -0.0957 -0.2783
   60SAPC  H14R 4637   5.738   2.481   9.116 -0.4278 -1.3737 -0.5751
   60SAPC  C215 4638   5.921   2.436   9.023 -0.1155 -0.2414 -0.3335
   60SAPC  H15R 4639   5.877   2.421   8.923  0.5762 -0.2618 -0.6364
   60SAPC  C216 4640   6.072   2.445   9.012 -0.2613 -0.2244 -0.7473
   60SAPC  H16R 4641   6.104   2.364   8.943  0.3590  0.0085 -0.7342
   60SAPC  H16S 4642   6.127   2.421   9.105  0.8366 -2.8825 -2.0421
   60SAPC  C217 4643   6.108   2.585   8.960  0.2248  0.5951  0.3184
   60SAPC  H17R 4644   6.219   2.579   8.950  0.1303 -1.6932  0.4335
   60SAPC  H17S 4645   6.081   2.660   9.038  1.4653 -0.0222  1.3515
   60SAPC  C218 4646   6.037   2.617   8.826 -0.0023 -0.0013  0.1560
   60SAPC  H18R 4647   5.929   2.595   8.820 -0.4801  2.2344  0.2030
   60SAPC  H18S 4648   6.086   2.561   8.743  0.7651  0.8280  0.0382
   60SAPC  C219 4649   6.062   2.765   8.794 -0.2986 -0.1088  0.1113
   60SAPC  H19R 4650   6.025   2.836   8.870  0.4094  1.0563 -0.6208
   60SAPC  H19S 4651   6.009   2.779   8.697 -1.5169 -0.8663  0.6490
   60SAPC  C220 4652   6.208   2.801   8.757  0.1736  0.4104  0.1766
   60SAPC  H20R 4653   6.252   2.728   8.685 -3.0944  0.1019 -1.6156
   60SAPC  H20S 4654   6.263   2.799   8.853 -0.2415  0.5055  0.4145
   60SAPC  H20T 4655   6.208   2.906   8.721 -1.7454  0.7798  1.1841
   60SAPC   C33 4656   6.109   2.942  10.323 -0.6207  0.7352  0.2252
   60SAPC   H3X 4657   6.195   3.012  10.315  0.3914 -0.4145  0.7873
   60SAPC   H3Y 4658   6.014   2.995  10.303 -2.0047 -1.1019  1.7996
   60SAPC   C34 4659   6.109   2.846  10.203 -0.3817  0.2566 -0.0153
   60SAPC   H4X 4660   6.028   2.770  10.209 -2.0442  1.9457 -0.4791
   60SAPC   H4Y 4661   6.205   2.793  10.219 -0.5642 -0.9810 -2.6500
   60SAPC   C35 4662   6.128   2.919  10.070  0.0722  0.0713  0.2757
   60SAPC   H5X 4663   6.213   2.986  10.094  2.5015 -3.0588  0.7118
   60SAPC   H5Y 4664   6.038   2.982  10.057  0.7080  1.1875  1.2506
   60SAPC   C36 4665   6.149   2.823   9.947 -0.0408 -0.0963 -0.1147
   60SAPC   H6X 4666   6.066   2.754   9.922 -1.9981  3.1680 -3.0654
   60SAPC   H6Y 4667   6.251   2.778   9.944 -1.2668 -2.9176 -0.8339
   60SAPC   C37 4668   6.169   2.902   9.817 -0.3902  0.4626 -0.5492
   60SAPC   H7X 4669   6.233   2.991   9.840  0.2020  0.5749 -2.5559
   60SAPC   H7Y 4670   6.069   2.941   9.787 -1.9620 -2.2355  1.0231
   60SAPC   C38 4671   6.237   2.819   9.705  0.0011 -0.6424 -0.2180
   60SAPC   H8X 4672   6.174   2.729   9.687  1.2893 -1.4059 -0.9884
   60SAPC   H8Y 4673   6.341   2.801   9.741 -0.7167 -0.7174  1.9369
   60SAPC   C39 4674   6.241   2.898   9.581 -0.4755 -0.6862 -0.3564
   60SAPC   H9X 4675   6.304   2.987   9.599 -0.8043 -0.7502  1.2013
   60SAPC   H9Y 4676   6.140   2.934   9.552 -0.6922 -0.5322  0.5780
   60SAPC  C310 4677   6.295   2.826   9.454  0.4413 -0.2588 -0.1563
   60SAPC  H10X 4678   6.222   2.747   9.425  0.3586 -0.8992  1.7058
   60SAPC  H10Y 4679   6.386   2.774   9.490 -0.1915 -1.0679  0.2963
   60SAPC  C311 4680   6.326   2.909   9.337  0.2562 -0.6525 -0.0231
   60SAPC  H11X 4681   6.378   2.852   9.257 -0.3185  0.7407 -1.4285
   60SAPC  H11Y 4682   6.401   2.985   9.369  0.3380  0.2997 -2.3852
   60SAPC  C312 4683   6.208   2.993   9.274  0.4202  0.6182  0.0077
   60SAPC  H12X 4684   6.190   3.075   9.346 -0.9027  1.9209 -1.7642
   60SAPC  H12Y 4685   6.123   2.923   9.255 -1.0678  1.7520  2.2401
   60SAPC  C313 4686   6.251   3.055   9.146  0.4705  0.1389  0.6868
   60SAPC  H13X 4687   6.285   2.972   9.080  1.4823 -0.0749  1.4494
   60SAPC  H13Y 4688   6.338   3.115   9.181  0.0484  1.1725 -0.0147
   60SAPC  C314 4689   6.160   3.152   9.069  0.3937 -0.3795 -0.3207
   60SAPC  H14X 4690   6.128   3.225   9.146  0.9889 -1.1617  0.6834
   60SAPC  H14Y 4691   6.069   3.102   9.027  0.0507 -0.0428  0.0172
   60SAPC  C315 4692   6.230   3.213   8.951  0.6863 -0.5545  0.6414
   60SAPC  H15X 4693   6.269   3.133   8.884 -1.8155 -0.4939 -0.9243
   60SAPC  H15Y 4694   6.317   3.274   8.982 -0.2317  0.4456  1.2728
   60SAPC  C316 4695   6.140   3.303   8.863 -0.2016  0.0466  0.1339
   60SAPC  H16X 4696   6.034   3.274   8.881  0.4926 -2.1499  0.8279
   60SAPC  H16Y 4697   6.167   3.288   8.757 -0.5242 -2.6943  0.4164
   60SAPC  C317 4698   6.145   3.445   8.910 -0.0692 -0.4293  0.5917
   60SAPC  H17X 4699   6.244   3.495   8.907  0.9908 -2.5161 -0.3904
   60SAPC  H17Y 4700   6.105   3.459   9.013 -0.3194  2.0323  0.1718
   60SAPC  C318 4701   6.050   3.532   8.829 -0.2503 -0.1253 -0.1302
   60SAPC  H18X 4702   6.068   3.526   8.719 -0.3504  0.7123 -0.1942
   60SAPC  H18Y 4703   6.039   3.634   8.870 -1.4993 -0.2644 -0.1004
   60SAPC  H18Z 4704   5.948   3.493   8.852 -0.2707 -0.0503 -0.0946
   61SAPC     N 4705   0.354   1.745  11.169  0.5871 -0.2801 -0.3560
   61SAPC   C12 4706   0.330   1.778  11.022 -0.1555 -1.6096 -0.3839
   61SAPC  H12A 4707   0.363   1.880  11.011 -4.6450  0.0399  0.6905
   61SAPC  H12B 4708   0.224   1.785  11.007 -0.1610  0.0648  0.3779
   61SAPC   C13 4709   0.499   1.720  11.189 -1.2380 -0.4642  0.2682
   61SAPC  H13A 4710   0.519   1.713  11.295  2.5861 -2.1078 -0.4893
   61SAPC  H13B 4711   0.527   1.626  11.145  0.7869  0.2717 -0.0515
   61SAPC  H13C 4712   0.560   1.796  11.142 -0.4619 -1.5476 -0.5013
   61SAPC   C14 4713   0.311   1.860  11.255 -0.1158  0.5256  0.0484
   61SAPC  H14A 4714   0.216   1.894  11.216  0.1410 -0.7119 -1.6944
   61SAPC  H14B 4715   0.319   1.831  11.359 -1.5846  0.6156  0.1890
   61SAPC  H14C 4716   0.378   1.945  11.249 -0.5804  1.0997  2.5320
   61SAPC   C15 4717   0.281   1.624  11.205  0.3257 -0.2826 -0.0722
   61SAPC  H15A 4718   0.312   1.532  11.158  1.2275  0.3626 -0.7424
   61SAPC  H15B 4719   0.285   1.602  11.311 -0.3354 -2.1233 -0.4022
   61SAPC  H15C 4720   0.175   1.632  11.184  0.0194  1.7470  1.9645
   61SAPC   C11 4721   0.385   1.693  10.903 -0.6153 -0.4391 -0.3906
   61SAPC  H11A 4722   0.341   1.732  10.809  0.1076  0.2607 -0.4452
   61SAPC  H11B 4723   0.356   1.586  10.917 -1.3282 -0.3928 -1.4393
   61SAPC     P 4724   0.598   1.829  10.840 -0.0898 -0.1220 -0.1967
   61SAPC   O13 4725   0.497   1.939  10.830 -0.9672  0.3556  0.0532
   61SAPC   O14 4726   0.720   1.846  10.923 -0.7358 -0.1721  0.3020
   61SAPC   O12 4727   0.525   1.705  10.898  0.3090  0.1959  0.0804
   61SAPC   O11 4728   0.643   1.791  10.691  0.2041 -0.1797  0.6684
   61SAPC    C1 4729   0.551   1.715  10.613 -0.1053  0.3045 -0.0507
   61SAPC    HA 4730   0.570   1.607  10.635  0.7881 -0.2740 -3.4305
   61SAPC    HB 4731   0.446   1.747  10.633  0.1075  2.0937 -1.7128
   61SAPC    C2 4732   0.573   1.751  10.461  0.1814  0.0463  0.0614
   61SAPC    HS 4733   0.511   1.691  10.391  0.6534 -1.3165  0.8000
   61SAPC   O21 4734   0.712   1.735  10.421  0.4063 -0.3893  0.1261
   61SAPC   C21 4735   0.780   1.624  10.434 -0.0376 -0.2890 -0.0046
   61SAPC   O22 4736   0.734   1.513  10.461  0.2572  0.4563 -0.6358
   61SAPC   C22 4737   0.918   1.661  10.382  0.0968 -0.5664 -0.5796
   61SAPC   H2R 4738   0.916   1.656  10.271 -0.2440  1.7236 -0.7018
   61SAPC   H2S 4739   0.933   1.766  10.415 -1.3325  0.4295 -2.9337
   61SAPC    C3 4740   0.540   1.900  10.428 -0.1701 -0.6516 -0.1489
   61SAPC    HX 4741   0.594   1.961  10.503  0.6465 -0.8455 -0.5814
   61SAPC    HY 4742   0.437   1.928  10.461  0.8051  0.9846  1.5782
   61SAPC   O31 4743   0.581   1.935  10.294  0.1293  0.6899  0.1095
   61SAPC   C31 4744   0.690   2.012  10.289 -0.1943  0.2249  0.5484
   61SAPC   O32 4745   0.735   2.084  10.374  0.6488  0.1029 -0.6646
   61SAPC   C32 4746   0.745   2.001  10.145  0.3824  0.1387  0.2100
   61SAPC   H2X 4747   0.667   2.045  10.079  3.1648 -0.2806 -3.5345
   61SAPC   H2Y 4748   0.739   1.890  10.135 -1.4417 -0.0375  2.7338
   61SAPC   C23 4749   1.039   1.575  10.431  0.5125  0.2335  0.6286
   61SAPC   H3R 4750   1.021   1.554  10.539 -1.2609 -0.9558  0.1203
   61SAPC   H3S 4751   1.135   1.630  10.431  0.3827  0.4668  0.0764
   61SAPC   C24 4752   1.055   1.443  10.353  0.3853  0.2674  0.3457
   61SAPC   H4R 4753   0.965   1.380  10.370 -0.9857  1.9222 -0.7162
   61SAPC   H4S 4754   1.143   1.395  10.401 -0.9716 -0.6621  1.9486
   61SAPC   C25 4755   1.080   1.475  10.214  0.3097 -0.0970  0.5330
   61SAPC   H5R 4756   1.158   1.549  10.193 -1.5099  2.0659  1.1322
   61SAPC   C26 4757   1.009   1.442  10.103 -0.3767  0.3993 -0.7345
   61SAPC   H6R 4758   1.037   1.484  10.005 -1.9323 -1.2586 -1.9286
   61SAPC   C27 4759   0.890   1.358  10.099  0.5485 -0.4556  0.3175
   61SAPC   H7R 4760   0.888   1.294  10.190  0.4443  1.3768  1.6170
   61SAPC   H7S 4761   0.894   1.301  10.004  2.3626 -0.0993  0.1678
   61SAPC   C28 4762   0.764   1.444  10.098  0.1070 -0.5264  0.1773
   61SAPC   H8R 4763   0.697   1.427  10.184 -1.5115 -2.6468 -1.4277
   61SAPC   C29 4764   0.726   1.524   9.994 -0.2428  0.5879  0.2445
   61SAPC   H9R 4765   0.637   1.588  10.004 -0.6921 -0.0390  0.3720
   61SAPC  C210 4766   0.803   1.546   9.865 -0.0878 -0.5124  0.0922
   61SAPC  H10R 4767   0.731   1.530   9.782  2.2793 -1.0349 -1.9130
   61SAPC  H10S 4768   0.876   1.463   9.854  1.8785  1.3047 -1.0544
   61SAPC  C211 4769   0.875   1.679   9.852  0.4937 -0.4657  0.2857
   61SAPC  H11R 4770   0.895   1.737   9.943 -0.1240 -0.7067  0.5788
   61SAPC  C212 4771   0.924   1.736   9.741 -0.2021  0.4453 -0.1273
   61SAPC  H12R 4772   0.968   1.834   9.763  0.0208 -0.3061  3.0415
   61SAPC  C213 4773   0.927   1.680   9.600  0.0316  0.9258  0.2219
   61SAPC  H13R 4774   0.974   1.755   9.533 -0.4289 -0.3608 -1.5485
   61SAPC  H13S 4775   0.820   1.664   9.574 -0.2346 -0.0399  1.8125
   61SAPC  C214 4776   0.995   1.544   9.575  0.7492 -0.3237  1.4312
   61SAPC  H14R 4777   1.073   1.510   9.644  1.4585 -0.1954  0.6958
   61SAPC  C215 4778   0.965   1.448   9.485 -0.0835  0.0832  0.4081
   61SAPC  H15R 4779   1.022   1.355   9.492  0.0922  0.1919  0.4391
   61SAPC  C216 4780   0.850   1.452   9.380 -0.7130  0.3630  0.0228
   61SAPC  H16R 4781   0.831   1.558   9.357 -0.6942  0.8843  2.2641
   61SAPC  H16S 4782   0.763   1.402   9.427 -0.8166  0.8869  0.3871
   61SAPC  C217 4783   0.880   1.397   9.238  0.0711  0.3989  0.1613
   61SAPC  H17R 4784   0.787   1.371   9.184 -0.7319  1.6073  0.9415
   61SAPC  H17S 4785   0.920   1.296   9.260 -1.5151 -1.0240 -3.1029
   61SAPC  C218 4786   0.986   1.477   9.155 -0.2443  0.4616  0.2176
   61SAPC  H18R 4787   0.974   1.586   9.142  1.0782  0.4314 -1.4488
   61SAPC  H18S 4788   0.966   1.425   9.059  0.8687  0.3816  0.0270
   61SAPC  C219 4789   1.132   1.440   9.201  0.3418 -1.1593  0.6035
   61SAPC  H19R 4790   1.129   1.339   9.247 -4.1037 -0.4903  2.0408
   61SAPC  H19S 4791   1.148   1.510   9.285 -0.3312  0.6976 -0.7659
   61SAPC  C220 4792   1.246   1.455   9.095  0.3592 -0.0464 -0.0465
   61SAPC  H20R 4793   1.338   1.422   9.148 -0.9396 -0.6976  1.8346
   61SAPC  H20S 4794   1.253   1.560   9.059  1.4224  0.7367  2.3722
   61SAPC  H20T 4795   1.227   1.385   9.011 -0.8067  0.2695 -0.0614
   61SAPC   C33 4796   0.882   2.064  10.129 -0.2436  0.5080 -0.4952
   61SAPC   H3X 4797   0.959   2.017  10.193 -0.6592 -0.5426 -0.7565
   61SAPC   H3Y 4798   0.878   2.173  10.150 -1.0069  0.3003  0.4574
   61SAPC   C34 4799   0.939   2.045   9.978  0.2055 -1.0823 -0.6126
   61SAPC   H4X 4800   0.955   1.937   9.958 -3.4247 -1.0800 -4.0050
   61SAPC   H4Y 4801   1.042   2.087   9.992 -0.6908  1.4741 -1.3377
   61SAPC   C35 4802   0.852   2.117   9.881 -0.0443 -1.2763 -0.2887
   61SAPC   H5X 4803   0.835   2.215   9.931  0.8148 -1.6816  0.8232
   61SAPC   H5Y 4804   0.752   2.072   9.864 -1.2580  0.7729  1.2132
   61SAPC   C36 4805   0.931   2.134   9.748  0.2656 -0.3876  0.1675
   61SAPC   H6X 4806   0.951   2.030   9.717 -2.8488 -0.7544 -0.7952
   61SAPC   H6Y 4807   1.023   2.195   9.764  0.9655 -0.6178 -2.6614
   61SAPC   C37 4808   0.834   2.197   9.645  0.0725  0.4686 -0.4557
   61SAPC   H7X 4809   0.807   2.300   9.677 -0.0846  0.2413  0.1535
   61SAPC   H7Y 4810   0.741   2.136   9.646  0.3034  0.1251  1.1064
   61SAPC   C38 4811   0.873   2.206   9.499 -0.2363 -0.4156 -0.2097
   61SAPC   H8X 4812   0.981   2.235   9.492 -0.6935  1.3773 -0.1575
   61SAPC   H8Y 4813   0.808   2.285   9.456  1.1044  1.6139  1.3305
   61SAPC   C39 4814   0.878   2.077   9.421 -0.0610 -0.1429 -0.0316
   61SAPC   H9X 4815   0.776   2.037   9.434 -0.5366  0.5601 -1.5144
   61SAPC   H9Y 4816   0.949   2.008   9.473 -0.2957 -0.0156  0.4536
   61SAPC  C310 4817   0.927   2.101   9.279 -0.5025 -0.2199  0.1877
   61SAPC  H10X 4818   0.879   2.198   9.252  0.3907  0.3535  0.6015
   61SAPC  H10Y 4819   0.895   2.023   9.207  1.0308 -1.5737  0.9283
   61SAPC  C311 4820   1.085   2.108   9.272 -0.3536 -0.1858 -0.3458
   61SAPC  H11X 4821   1.109   2.015   9.327 -1.0249  0.7118  1.5363
   61SAPC  H11Y 4822   1.126   2.181   9.345 -0.8779 -0.2180 -0.0150
   61SAPC  C312 4823   1.144   2.119   9.129  0.1076  0.4170  0.2459
   61SAPC  H12X 4824   1.086   2.049   9.064  0.0301  0.1111  0.6414
   61SAPC  H12Y 4825   1.250   2.085   9.128  1.2170  3.6756 -2.3844
   61SAPC  C313 4826   1.134   2.259   9.063 -0.8821 -0.2453 -0.4799
   61SAPC  H13X 4827   1.229   2.316   9.070 -1.0945  0.1217 -0.6268
   61SAPC  H13Y 4828   1.058   2.327   9.107 -0.2899 -1.0066  1.8064
   61SAPC  C314 4829   1.107   2.242   8.910 -0.6294 -0.0471  0.3863
   61SAPC  H14X 4830   1.134   2.339   8.863 -0.9901 -0.2857 -0.3160
   61SAPC  H14Y 4831   0.997   2.235   8.894 -0.7014  0.7111  0.5248
   61SAPC  C315 4832   1.188   2.127   8.848 -0.2280 -0.1552  0.4607
   61SAPC  H15X 4833   1.156   2.028   8.888 -1.1653 -1.2801 -2.8991
   61SAPC  H15Y 4834   1.295   2.141   8.875 -0.2501  0.1677  0.3748
   61SAPC  C316 4835   1.181   2.118   8.694  0.5266 -0.0920 -0.6247
   61SAPC  H16X 4836   1.243   2.034   8.656  1.1496 -0.6033  1.4279
   61SAPC  H16Y 4837   1.236   2.206   8.656  1.4011 -1.1908 -1.9122
   61SAPC  C317 4838   1.047   2.108   8.629  0.6225 -0.0713  0.8263
   61SAPC  H17X 4839   0.999   2.208   8.624 -1.4149 -1.1238 -1.3121
   61SAPC  H17Y 4840   0.977   2.045   8.689  1.0566 -1.0622  0.3049
   61SAPC  C318 4841   1.041   2.060   8.478 -0.2874  0.2363  0.2007
   61SAPC  H18X 4842   0.969   2.129   8.430  0.5987 -0.9521 -2.9663
   61SAPC  H18Y 4843   1.004   1.955   8.471  1.6346 -0.3546 -1.6582
   61SAPC  H18Z 4844   1.126   2.077   8.409 -0.7407 -0.5629 -0.5499
   62SAPC     N 4845   6.592   0.384  11.079 -0.1435  0.0994 -0.4393
   62SAPC   C12 4846   6.720   0.429  11.002  0.2602 -0.3031  0.2593
   62SAPC  H12A 4847   6.800   0.358  11.014 -0.9811 -1.7946 -0.0470
   62SAPC  H12B 4848   6.747   0.525  11.042 -0.5277 -0.2767  0.7488
   62SAPC   C13 4849   6.463   0.438  11.023 -0.0699 -0.0776  0.5666
   62SAPC  H13A 4850   6.458   0.546  11.026  0.0994 -0.1005  2.9368
   62SAPC  H13B 4851   6.461   0.414  10.918 -1.9294  2.1325  0.0552
   62SAPC  H13C 4852   6.379   0.396  11.076 -0.1923 -1.4268 -0.6968
   62SAPC   C14 4853   6.587   0.227  11.074  0.2905 -0.0648 -0.4983
   62SAPC  H14A 4854   6.491   0.192  11.109 -0.0642  2.2448  0.9544
   62SAPC  H14B 4855   6.593   0.200  10.970 -0.6415 -0.5914 -0.4161
   62SAPC  H14C 4856   6.655   0.176  11.140 -0.2948 -1.7608 -1.1822
   62SAPC   C15 4857   6.611   0.429  11.218  0.1147 -0.2334 -0.9027
   62SAPC  H15A 4858   6.710   0.398  11.248  1.1659  0.9708 -3.0425
   62SAPC  H15B 4859   6.611   0.537  11.218 -0.6524 -0.1855  1.9268
   62SAPC  H15C 4860   6.535   0.390  11.285  0.6520  2.8024  1.5820
   62SAPC   C11 4861   6.704   0.448  10.850 -0.3511  0.0860  0.5211
   62SAPC  H11A 4862   6.795   0.503  10.820  0.1915 -0.8863  0.3559
   62SAPC  H11B 4863   6.629   0.527  10.831 -0.8518 -0.6402 -0.5675
   62SAPC     P 4864   6.613   0.332  10.644 -0.0476 -0.6655  0.3115
   62SAPC   O13 4865   6.691   0.248  10.555 -0.0505  0.1913 -0.3011
   62SAPC   O14 4866   6.471   0.294  10.655  0.1200  0.3685 -0.1669
   62SAPC   O12 4867   6.682   0.329  10.782 -0.3258  0.4145  0.2653
   62SAPC   O11 4868   6.629   0.482  10.597 -0.4326 -0.0684  0.1655
   62SAPC    C1 4869   6.515   0.572  10.585  0.2509  0.1073  0.0498
   62SAPC    HA 4870   6.422   0.516  10.610  0.8208 -0.5781  0.6484
   62SAPC    HB 4871   6.529   0.658  10.653  1.2152 -0.8384  1.0808
   62SAPC    C2 4872   6.512   0.624  10.439 -0.2026  0.7295  0.8256
   62SAPC    HS 4873   6.618   0.646  10.412 -0.5906  0.3168 -1.0588
   62SAPC   O21 4874   6.428   0.742  10.439 -0.0261 -0.4685  0.6349
   62SAPC   C21 4875   6.490   0.861  10.467 -0.1072  0.2017  0.6282
   62SAPC   O22 4876   6.601   0.865  10.510 -0.2186 -0.4663  0.1428
   62SAPC   C22 4877   6.395   0.977  10.430  0.0321  0.5042  0.2031
   62SAPC   H2R 4878   6.312   0.938  10.368  1.2062 -2.0925  0.2019
   62SAPC   H2S 4879   6.353   1.008  10.528 -2.0258 -4.3059  0.9778
   62SAPC    C3 4880   6.469   0.515  10.335  0.1048 -0.5250 -0.1215
   62SAPC    HX 4881   6.366   0.477  10.355  0.0814 -0.0510  0.6479
   62SAPC    HY 4882   6.538   0.430  10.351 -0.3630 -1.1278 -1.2077
   62SAPC   O31 4883   6.475   0.560  10.196  0.5315  0.1313 -0.2428
   62SAPC   C31 4884   6.415   0.476  10.110 -0.2274  0.1240 -0.0819
   62SAPC   O32 4885   6.372   0.364  10.140  0.1144  0.2515 -0.1949
   62SAPC   C32 4886   6.410   0.546   9.971 -0.0093 -0.0201 -0.1131
   62SAPC   H2X 4887   6.512   0.583   9.947 -1.2762  2.2278 -2.2332
   62SAPC   H2Y 4888   6.339   0.631   9.983  0.1215  0.1706 -0.6936
   62SAPC   C23 4889   6.453   1.102  10.360 -0.6786  0.3645  0.1537
   62SAPC   H3R 4890   6.550   1.123  10.410 -0.0156 -0.3866 -0.7879
   62SAPC   H3S 4891   6.392   1.193  10.379 -0.3537  0.4667  0.7176
   62SAPC   C24 4892   6.469   1.090  10.207  1.0343 -0.3677  0.2474
   62SAPC   H4R 4893   6.517   1.181  10.164 -1.2357  1.0650  0.6309
   62SAPC   H4S 4894   6.366   1.090  10.165  0.7064  2.2022  0.9727
   62SAPC   C25 4895   6.544   0.969  10.160  0.6646  0.8546 -0.0292
   62SAPC   H5R 4896   6.481   0.896  10.107  1.8175 -1.7824  2.1184
   62SAPC   C26 4897   6.667   0.932  10.189 -0.1504  0.4084  0.5529
   62SAPC   H6R 4898   6.702   0.832  10.162 -2.0794 -0.3034  0.6202
   62SAPC   C27 4899   6.778   1.006  10.263  0.3638 -0.2679  0.5238
   62SAPC   H7R 4900   6.746   1.059  10.355 -1.7540  0.7378 -0.7754
   62SAPC   H7S 4901   6.804   1.086  10.191 -0.6191 -0.6834 -0.3138
   62SAPC   C28 4902   6.888   0.910  10.300  0.5682  0.2101 -0.1049
   62SAPC   H8R 4903   6.872   0.866  10.400 -1.0217  2.5144  0.6994
   62SAPC   C29 4904   6.998   0.873  10.224  0.6869 -0.0388 -0.6545
   62SAPC   H9R 4905   7.077   0.811  10.269 -0.6035 -2.1774 -1.2716
   62SAPC  C210 4906   7.020   0.936  10.089  0.1634  0.0392 -0.2789
   62SAPC  H10R 4907   7.098   1.015  10.095 -1.1058  1.2926 -0.0650
   62SAPC  H10S 4908   6.930   0.991  10.054 -0.1854  0.2699  0.9610
   62SAPC  C211 4909   7.066   0.852   9.971 -0.1982  0.3523  0.1387
   62SAPC  H11R 4910   7.168   0.812   9.984  0.1766  1.1116 -0.3812
   62SAPC  C212 4911   7.013   0.825   9.856 -0.6526  0.1299  0.5529
   62SAPC  H12R 4912   7.074   0.775   9.778 -0.6026  1.1249 -0.0578
   62SAPC  C213 4913   6.873   0.873   9.818 -0.1467  0.1710  0.3689
   62SAPC  H13R 4914   6.814   0.907   9.905 -0.0088 -0.0122  0.5324
   62SAPC  H13S 4915   6.820   0.785   9.776  1.9553 -0.4588 -1.0782
   62SAPC  C214 4916   6.875   0.974   9.706 -0.2322  0.5164 -0.5102
   62SAPC  H14R 4917   6.879   1.078   9.741  1.3408  0.5278 -0.6917
   62SAPC  C215 4918   6.868   0.947   9.571 -0.0063  0.7747 -0.1885
   62SAPC  H15R 4919   6.867   1.032   9.502  1.8938 -0.0546 -1.2588
   62SAPC  C216 4920   6.876   0.816   9.501 -0.7677 -0.4087 -0.6116
   62SAPC  H16R 4921   6.774   0.774   9.499 -2.0634  2.5466 -0.1029
   62SAPC  H16S 4922   6.941   0.747   9.559 -0.7705  0.3872  0.3665
   62SAPC  C217 4923   6.944   0.816   9.357 -0.2606 -0.5795 -0.1178
   62SAPC  H17R 4924   7.053   0.830   9.373 -0.5142 -0.0961  1.2260
   62SAPC  H17S 4925   6.906   0.902   9.297  0.5429 -0.2353 -0.1539
   62SAPC  C218 4926   6.929   0.686   9.279  0.7643 -0.3515 -0.6261
   62SAPC  H18R 4927   6.825   0.648   9.272  0.9579 -1.1804  0.5963
   62SAPC  H18S 4928   6.981   0.616   9.349  1.8940  3.1110  2.1671
   62SAPC  C219 4929   7.007   0.685   9.150  0.0795 -0.3064  1.0002
   62SAPC  H19R 4930   7.114   0.704   9.175  0.8162 -1.7437 -0.9253
   62SAPC  H19S 4931   6.975   0.775   9.094  0.8124 -0.7948 -0.2378
   62SAPC  C220 4932   6.982   0.556   9.067 -0.5815 -0.0889 -0.2640
   62SAPC  H20R 4933   6.952   0.473   9.134  0.4642 -0.7473 -0.5971
   62SAPC  H20S 4934   7.075   0.538   9.009 -0.0936  1.3480  0.0494
   62SAPC  H20T 4935   6.895   0.564   8.997  0.8133  1.8357 -1.8265
   62SAPC   C33 4936   6.364   0.449   9.857 -0.0733 -1.4794  0.4936
   62SAPC   H3X 4937   6.265   0.402   9.877  0.2647 -2.0874  0.7348
   62SAPC   H3Y 4938   6.436   0.365   9.863  0.5976 -0.8488  1.3557
   62SAPC   C34 4939   6.374   0.525   9.729  0.1701  0.0950  0.6504
   62SAPC   H4X 4940   6.476   0.554   9.696  0.8832 -2.3832  0.6040
   62SAPC   H4Y 4941   6.326   0.624   9.716  1.3487  0.7830  1.5150
   62SAPC   C35 4942   6.312   0.444   9.607  0.6322  0.5341  0.5439
   62SAPC   H5X 4943   6.209   0.405   9.621  1.2763 -1.1650  0.7480
   62SAPC   H5Y 4944   6.377   0.357   9.580 -1.8059 -0.9849 -0.5704
   62SAPC   C36 4945   6.315   0.530   9.481  1.2197 -0.0089 -0.0299
   62SAPC   H6X 4946   6.421   0.552   9.459  0.4710  0.3084 -3.6604
   62SAPC   H6Y 4947   6.258   0.625   9.498  0.1270 -0.7285  0.4039
   62SAPC   C37 4948   6.263   0.457   9.355 -0.5816  0.1796 -0.3913
   62SAPC   H7X 4949   6.157   0.427   9.372  0.1593 -2.2107  0.1958
   62SAPC   H7Y 4950   6.328   0.370   9.332  1.1132  1.1304  0.7214
   62SAPC   C38 4951   6.276   0.544   9.227  0.2915 -0.0474 -0.4014
   62SAPC   H8X 4952   6.384   0.555   9.202 -0.3359 -0.7517 -3.6226
   62SAPC   H8Y 4953   6.231   0.642   9.254 -2.4725 -1.4535  0.2029
   62SAPC   C39 4954   6.189   0.503   9.113  1.1302  1.0937 -0.4824
   62SAPC   H9X 4955   6.078   0.495   9.117  1.3460 -1.6546  1.6928
   62SAPC   H9Y 4956   6.214   0.397   9.092 -1.4898  0.5719 -1.0763
   62SAPC  C310 4957   6.237   0.574   8.984  0.0258 -0.1137  0.0706
   62SAPC  H10X 4958   6.190   0.522   8.898 -1.9761  1.9952 -0.1543
   62SAPC  H10Y 4959   6.347   0.565   8.973 -0.3059 -2.2038 -2.0357
   62SAPC  C311 4960   6.199   0.723   8.994  0.3422 -0.2450 -0.2347
   62SAPC  H11X 4961   6.275   0.769   9.059 -2.8789  0.9819  2.8357
   62SAPC  H11Y 4962   6.102   0.741   9.045  0.2284 -2.0897  0.2569
   62SAPC  C312 4963   6.209   0.797   8.862  0.1295 -0.0199  0.7658
   62SAPC  H12X 4964   6.121   0.762   8.805  1.2952  0.3237 -1.2631
   62SAPC  H12Y 4965   6.304   0.769   8.813  0.5442 -0.0807  1.5902
   62SAPC  C313 4966   6.193   0.944   8.889  0.1039 -0.1050  0.4246
   62SAPC  H13X 4967   6.289   0.960   8.943  1.2645  0.6737 -1.8352
   62SAPC  H13Y 4968   6.100   0.957   8.948 -2.1547 -1.1794 -2.7369
   62SAPC  C314 4969   6.186   1.023   8.757 -0.6860 -0.0208  0.2147
   62SAPC  H14X 4970   6.156   1.126   8.786  1.8739  1.7159 -2.9757
   62SAPC  H14Y 4971   6.107   0.979   8.693  0.4510 -0.0219 -1.2154
   62SAPC  C315 4972   6.320   1.024   8.682  0.1904 -0.1771  0.2942
   62SAPC  H15X 4973   6.338   0.918   8.655  1.9899  0.5261 -1.4068
   62SAPC  H15Y 4974   6.402   1.055   8.751 -1.1685  0.8147  1.5156
   62SAPC  C316 4975   6.327   1.101   8.553  0.4912 -0.0445 -0.0342
   62SAPC  H16X 4976   6.289   1.202   8.580  1.8689  0.3404  0.4609
   62SAPC  H16Y 4977   6.254   1.054   8.484 -0.7514 -0.5517  1.5904
   62SAPC  C317 4978   6.465   1.108   8.485  0.6110 -0.0695  0.5971
   62SAPC  H17X 4979   6.491   1.009   8.442 -2.1702 -0.0649 -1.2472
   62SAPC  H17Y 4980   6.545   1.159   8.543  0.4868 -0.7603  1.4005
   62SAPC  C318 4981   6.447   1.205   8.372 -0.4589 -0.4578  0.7022
   62SAPC  H18X 4982   6.422   1.306   8.412 -0.0736 -0.5782  1.2519
   62SAPC  H18Y 4983   6.360   1.185   8.305 -0.9330 -0.3121  1.2709
   62SAPC  H18Z 4984   6.541   1.207   8.313 -1.9019  1.5817 -1.6678
   63SAPC     N 4985   3.850   0.022   6.393 -0.0430 -0.0897 -0.8748
   63SAPC   C12 4986   3.962   0.103   6.340  0.2040 -0.1071 -0.3524
   63SAPC  H12A 4987   3.928   0.160   6.255  1.2212  0.8429 -0.1264
   63SAPC  H12B 4988   4.037   0.037   6.298  0.1850  0.4548 -1.2844
   63SAPC   C13 4989   3.793  -0.080   6.302  0.2194  1.0662 -0.2059
   63SAPC  H13A 4990   3.777  -0.039   6.203  2.3996  2.0204 -0.2025
   63SAPC  H13B 4991   3.868  -0.155   6.280  0.3073  0.3383  2.4542
   63SAPC  H13C 4992   3.712  -0.138   6.344 -0.1506 -0.1586 -2.5201
   63SAPC   C14 4993   3.896  -0.048   6.517 -0.2086 -0.2053  0.3695
   63SAPC  H14A 4994   3.904   0.019   6.600 -1.1863 -0.6474  0.8373
   63SAPC  H14B 4995   3.822  -0.121   6.546  0.0484  0.4215  2.6547
   63SAPC  H14C 4996   3.994  -0.094   6.514  1.1446  2.3810  3.0029
   63SAPC   C15 4997   3.736   0.118   6.427 -0.1384 -0.2089  0.4358
   63SAPC  H15A 4998   3.781   0.194   6.490 -1.2466  0.3075  0.6074
   63SAPC  H15B 4999   3.700   0.173   6.341 -0.1366 -1.6045 -0.4633
   63SAPC  H15C 5000   3.652   0.071   6.475 -0.3707 -0.8448 -0.5783
   63SAPC   C11 5001   4.022   0.208   6.435 -0.3525 -0.6389  0.0076
   63SAPC  H11A 5002   4.118   0.241   6.390  1.9410 -2.5597  3.2370
   63SAPC  H11B 5003   4.048   0.157   6.531 -1.2338 -1.5370 -0.2292
   63SAPC     P 5004   3.902   0.414   6.345 -0.3090 -0.0855 -0.2053
   63SAPC   O13 5005   3.952   0.367   6.216  0.0695 -0.1695 -0.2844
   63SAPC   O14 5006   3.758   0.426   6.347  0.1999 -0.2322  0.2033
   63SAPC   O12 5007   3.933   0.323   6.464 -0.4857 -0.6900  0.5595
   63SAPC   O11 5008   3.968   0.555   6.368 -0.6760  0.0821 -0.2492
   63SAPC    C1 5009   4.102   0.584   6.398 -0.6082  0.5661 -1.3597
   63SAPC    HA 5010   4.174   0.499   6.398 -0.4578  0.6905 -1.6200
   63SAPC    HB 5011   4.141   0.661   6.328 -0.2877  0.1722 -1.6216
   63SAPC    C2 5012   4.120   0.657   6.536 -0.6114 -0.0724 -0.1186
   63SAPC    HS 5013   4.229   0.667   6.556 -0.7270  0.5704  0.2026
   63SAPC   O21 5014   4.059   0.581   6.645 -0.0141  0.0711  0.5703
   63SAPC   C21 5015   4.109   0.458   6.672  0.7187  0.8856  0.1075
   63SAPC   O22 5016   4.210   0.419   6.620  0.0687 -0.1739 -0.3176
   63SAPC   C22 5017   4.038   0.399   6.796 -0.2333 -0.0807 -0.1206
   63SAPC   H2R 5018   3.975   0.481   6.836  2.2683  1.7339  0.2231
   63SAPC   H2S 5019   3.977   0.316   6.753  1.9238 -0.8523 -1.7758
   63SAPC    C3 5020   4.069   0.803   6.530 -0.3336 -0.6275  0.4341
   63SAPC    HX 5021   3.958   0.804   6.522 -0.3632 -1.1841  0.7502
   63SAPC    HY 5022   4.107   0.865   6.447 -1.9640 -1.0205 -0.6318
   63SAPC   O31 5023   4.100   0.870   6.657 -0.2561 -0.6753  0.6773
   63SAPC   C31 5024   4.224   0.911   6.661 -0.0313 -0.0150  0.1545
   63SAPC   O32 5025   4.301   0.923   6.567  0.2780  0.0855  0.2071
   63SAPC   C32 5026   4.248   0.945   6.813 -0.0537  0.1924  0.3473
   63SAPC   H2X 5027   4.164   0.914   6.880  1.8285 -1.2991  2.0819
   63SAPC   H2Y 5028   4.268   1.054   6.821  1.5307 -0.1216  0.9492
   63SAPC   C23 5029   4.136   0.357   6.905 -0.7408 -0.0582 -0.5357
   63SAPC   H3R 5030   4.216   0.295   6.859 -0.3046 -0.0336  0.1898
   63SAPC   H3S 5031   4.089   0.297   6.985  0.1769  1.6649  1.3520
   63SAPC   C24 5032   4.191   0.485   6.983 -0.9235  0.3596 -0.2749
   63SAPC   H4R 5033   4.108   0.551   7.014  0.6537  1.3857  1.8084
   63SAPC   H4S 5034   4.244   0.545   6.905 -1.2175  0.2990 -0.5237
   63SAPC   C25 5035   4.280   0.448   7.101  0.1038 -0.6724 -0.1574
   63SAPC   H5R 5036   4.382   0.417   7.073 -0.4156 -3.1822  0.5884
   63SAPC   C26 5037   4.261   0.440   7.234  0.1684  0.0193 -0.4309
   63SAPC   H6R 5038   4.337   0.402   7.303  0.0964  1.1072  0.2671
   63SAPC   C27 5039   4.136   0.474   7.309 -0.1579 -0.0937 -0.5693
   63SAPC   H7R 5040   4.109   0.381   7.365 -1.5687  0.7611  0.1937
   63SAPC   H7S 5041   4.048   0.499   7.247 -1.9217  0.0609  1.9183
   63SAPC   C28 5042   4.163   0.586   7.404 -0.0151 -0.6784 -0.6520
   63SAPC   H8R 5043   4.207   0.679   7.365 -2.8416  1.1106  0.2566
   63SAPC   C29 5044   4.139   0.590   7.537  0.2503  0.3240  0.4067
   63SAPC   H9R 5045   4.167   0.679   7.595 -0.6804 -0.3145  1.8565
   63SAPC  C210 5046   4.075   0.480   7.615 -0.8865 -0.0326  0.7270
   63SAPC  H10R 5047   4.144   0.439   7.692  1.0007 -0.0113 -0.9308
   63SAPC  H10S 5048   4.062   0.387   7.554 -0.7922 -0.4085  1.2719
   63SAPC  C211 5049   3.937   0.522   7.669  0.7804 -0.4441  0.9446
   63SAPC  H11R 5050   3.883   0.593   7.606  0.4360 -0.2695  1.4423
   63SAPC  C212 5051   3.878   0.484   7.783 -0.3483  0.5973  0.1053
   63SAPC  H12R 5052   3.781   0.516   7.825  0.3754  1.9941  0.7239
   63SAPC  C213 5053   3.947   0.388   7.880 -0.7284  0.7511  0.2413
   63SAPC  H13R 5054   3.933   0.415   7.987 -1.2448 -0.9432  0.6209
   63SAPC  H13S 5055   4.055   0.372   7.865 -1.0077 -1.1052  0.0608
   63SAPC  C214 5056   3.892   0.246   7.877  0.2843 -0.0231  0.4225
   63SAPC  H14R 5057   3.946   0.172   7.816 -1.4767  0.0794 -1.3399
   63SAPC  C215 5058   3.780   0.191   7.937 -0.8299  0.2397  0.3658
   63SAPC  H15R 5059   3.758   0.087   7.913 -0.1750  0.3599 -0.7831
   63SAPC  C216 5060   3.679   0.266   8.022 -0.8594  0.0571  0.2491
   63SAPC  H16R 5061   3.606   0.302   7.946  0.4904  0.6261 -0.7981
   63SAPC  H16S 5062   3.723   0.355   8.071  0.2565 -1.4725  2.0945
   63SAPC  C217 5063   3.607   0.179   8.121  0.3849  1.2868  0.1986
   63SAPC  H17R 5064   3.531   0.243   8.170 -1.5407 -0.0563 -0.9872
   63SAPC  H17S 5065   3.683   0.151   8.198  0.4044  2.5513  0.6444
   63SAPC  C218 5066   3.531   0.043   8.073  0.4020  0.1256 -0.0975
   63SAPC  H18R 5067   3.490  -0.002   8.166 -2.8943  1.2225 -0.9578
   63SAPC  H18S 5068   3.619  -0.018   8.041 -0.0896 -1.8273  2.1992
   63SAPC  C219 5069   3.441   0.062   7.959 -0.4761  0.5335  0.1004
   63SAPC  H19R 5070   3.497   0.102   7.872 -0.0322  1.8786  0.9979
   63SAPC  H19S 5071   3.361   0.132   7.994 -0.4153 -0.0624  1.4808
   63SAPC  C220 5072   3.377  -0.062   7.909  0.1512  0.1973  0.3253
   63SAPC  H20R 5073   3.315  -0.034   7.822 -1.1566 -1.3691  0.7297
   63SAPC  H20S 5074   3.304  -0.110   7.978  1.8513  2.6532  4.0364
   63SAPC  H20T 5075   3.451  -0.133   7.866 -0.7222 -0.6162  0.1547
   63SAPC   C33 5076   4.374   0.881   6.865 -0.3032  1.1394 -0.4264
   63SAPC   H3X 5077   4.467   0.922   6.820 -0.8900  2.3121 -0.5882
   63SAPC   H3Y 5078   4.384   0.773   6.839 -0.3151  1.2439 -0.8660
   63SAPC   C34 5079   4.410   0.919   7.007  0.2967  0.6422  0.0426
   63SAPC   H4X 5080   4.410   1.030   7.017 -0.9907  0.6390  0.2245
   63SAPC   H4Y 5081   4.509   0.879   7.036  0.4376 -0.4776 -1.9223
   63SAPC   C35 5082   4.307   0.864   7.110  0.4779 -0.2191 -0.1719
   63SAPC   H5X 5083   4.294   0.754   7.098 -2.8891  0.0645  0.3790
   63SAPC   H5Y 5084   4.205   0.897   7.081  0.3855  0.9820  1.4561
   63SAPC   C36 5085   4.327   0.906   7.258 -0.2656  0.1783  0.0027
   63SAPC   H6X 5086   4.235   0.882   7.316  0.1884 -0.8409  0.3077
   63SAPC   H6Y 5087   4.338   1.016   7.271  0.7526 -0.0379  1.0391
   63SAPC   C37 5088   4.442   0.828   7.317  0.3463  0.0357  0.6473
   63SAPC   H7X 5089   4.517   0.836   7.235  1.3794 -1.8228  1.3734
   63SAPC   H7Y 5090   4.418   0.720   7.326 -1.1718  0.2718 -0.4802
   63SAPC   C38 5091   4.496   0.876   7.452 -0.1068 -0.3393 -0.0087
   63SAPC   H8X 5092   4.532   0.979   7.432  0.4523 -0.4543  0.3984
   63SAPC   H8Y 5093   4.580   0.810   7.480  0.1578 -0.1563 -0.3651
   63SAPC   C39 5094   4.394   0.884   7.566  0.2883  0.0608 -0.3164
   63SAPC   H9X 5095   4.295   0.850   7.529  0.5304  0.5772 -1.4491
   63SAPC   H9Y 5096   4.389   0.989   7.600  0.6327 -0.1678  0.4614
   63SAPC  C310 5097   4.425   0.795   7.696 -0.2343  0.1602  0.1298
   63SAPC  H10X 5098   4.516   0.822   7.753 -2.0433 -0.8776  3.6772
   63SAPC  H10Y 5099   4.428   0.687   7.668  0.9584  0.4351 -0.8556
   63SAPC  C311 5100   4.314   0.821   7.802 -0.2908  0.0162 -1.1563
   63SAPC  H11X 5101   4.216   0.806   7.752 -2.1563 -2.1860  2.9730
   63SAPC  H11Y 5102   4.321   0.931   7.818  0.4307 -0.0690 -0.8613
   63SAPC  C312 5103   4.339   0.730   7.927  0.4485  0.2209  0.4941
   63SAPC  H12X 5104   4.442   0.758   7.959  1.1188 -1.4746 -0.1291
   63SAPC  H12Y 5105   4.342   0.627   7.886  0.6165  0.8222 -1.0206
   63SAPC  C313 5106   4.242   0.745   8.042  0.0481  0.7496 -0.3374
   63SAPC  H13X 5107   4.137   0.743   8.004  0.5040  1.6748 -1.7108
   63SAPC  H13Y 5108   4.253   0.847   8.084  0.1139  0.6085 -0.0163
   63SAPC  C314 5109   4.262   0.646   8.159  0.8870  0.4889  1.1885
   63SAPC  H14X 5110   4.356   0.676   8.210  0.6401 -1.3666  2.7899
   63SAPC  H14Y 5111   4.284   0.543   8.123 -1.1975 -0.2604  1.9732
   63SAPC  C315 5112   4.150   0.639   8.264  0.4550  0.8203 -0.6572
   63SAPC  H15X 5113   4.047   0.663   8.229  0.6847  0.5513 -1.5123
   63SAPC  H15Y 5114   4.171   0.710   8.347 -1.8894 -0.8353  1.4723
   63SAPC  C316 5115   4.152   0.507   8.347  1.0105  0.2808 -0.8253
   63SAPC  H16X 5116   4.094   0.512   8.442  0.0299  2.2081 -1.4966
   63SAPC  H16Y 5117   4.257   0.483   8.373 -0.0582 -2.4746  1.1303
   63SAPC  C317 5118   4.085   0.385   8.279 -0.1332 -0.5044  0.1186
   63SAPC  H17X 5119   4.116   0.300   8.342 -0.9822 -1.5316 -0.8293
   63SAPC  H17Y 5120   4.123   0.373   8.175 -0.5723  1.2089 -0.2566
   63SAPC  C318 5121   3.937   0.392   8.265 -0.1372 -0.0377  0.1843
   63SAPC  H18X 5122   3.915   0.491   8.218 -2.3589 -0.4859  0.2173
   63SAPC  H18Y 5123   3.888   0.387   8.365 -0.6205  0.3874 -0.0269
   63SAPC  H18Z 5124   3.892   0.316   8.198  1.2380 -0.5853 -0.1317
   64SAPC     N 5125   5.863   0.446   5.854 -0.1877 -0.1824 -0.9278
   64SAPC   C12 5126   5.830   0.320   5.940 -0.5660  0.2942 -0.0510
   64SAPC  H12A 5127   5.804   0.243   5.869 -2.5627 -0.6719  1.6651
   64SAPC  H12B 5128   5.735   0.333   5.991 -0.5125  0.8380 -0.0833
   64SAPC   C13 5129   5.983   0.429   5.770  0.4822  0.1835  0.2747
   64SAPC  H13A 5130   6.030   0.524   5.750 -0.3142  0.5626  0.1750
   64SAPC  H13B 5131   6.050   0.365   5.827  1.0291 -0.1967 -0.7920
   64SAPC  H13C 5132   5.966   0.379   5.676 -0.2474  1.4164 -0.2675
   64SAPC   C14 5133   5.753   0.483   5.767 -0.6105  0.4273  0.0831
   64SAPC  H14A 5134   5.731   0.421   5.681 -2.2878  1.5178 -0.2993
   64SAPC  H14B 5135   5.668   0.520   5.823 -1.9696 -3.8772  1.0229
   64SAPC  H14C 5136   5.786   0.570   5.711 -0.7401  0.0097 -0.6534
   64SAPC   C15 5137   5.878   0.574   5.938 -0.0907  0.3273 -0.1036
   64SAPC  H15A 5138   5.912   0.641   5.860 -0.8208  1.0144  0.1618
   64SAPC  H15B 5139   5.787   0.610   5.985 -0.4331  0.5713 -0.9512
   64SAPC  H15C 5140   5.960   0.560   6.007  1.4489 -1.1622 -2.2051
   64SAPC   C11 5141   5.945   0.262   6.030 -0.2500 -0.6201  0.7272
   64SAPC  H11A 5142   5.907   0.192   6.107  0.6600 -0.2307  1.5348
   64SAPC  H11B 5143   5.983   0.357   6.074  0.3903 -0.9394  0.8709
   64SAPC     P 5144   6.179   0.167   5.987 -0.2507  0.1858 -0.2626
   64SAPC   O13 5145   6.210   0.030   5.940 -0.1845 -0.7589  0.1426
   64SAPC   O14 5146   6.271   0.268   5.948 -0.1255  0.1771  0.3106
   64SAPC   O12 5147   6.034   0.199   5.940  0.2751 -0.4390  0.7031
   64SAPC   O11 5148   6.169   0.160   6.146  0.5933 -0.0014 -0.4681
   64SAPC    C1 5149   6.253   0.241   6.223  0.1277 -0.4751  0.3308
   64SAPC    HA 5150   6.355   0.199   6.222  0.2507 -0.1678 -0.0413
   64SAPC    HB 5151   6.262   0.345   6.187  0.4256 -0.1082  1.4617
   64SAPC    C2 5152   6.210   0.261   6.372  0.6832 -0.2900 -0.5157
   64SAPC    HS 5153   6.282   0.330   6.421  0.5541  0.4920 -1.4249
   64SAPC   O21 5154   6.202   0.139   6.449 -0.8132 -0.4848  0.3247
   64SAPC   C21 5155   6.312   0.079   6.477  0.1409  0.2931 -0.8285
   64SAPC   O22 5156   6.425   0.121   6.456 -0.6469 -0.2893 -0.3724
   64SAPC   C22 5157   6.286  -0.059   6.541  0.8358 -0.3618 -0.2159
   64SAPC   H2R 5158   6.193  -0.102   6.498  1.4905 -0.2940 -1.7207
   64SAPC   H2S 5159   6.370  -0.125   6.511  1.3256 -1.1914  2.8225
   64SAPC    C3 5160   6.070   0.325   6.374  0.3496  0.5437  0.0388
   64SAPC    HX 5161   5.996   0.245   6.353  1.6984 -2.0133  4.2049
   64SAPC    HY 5162   6.061   0.393   6.287 -0.0983  2.4506  1.5208
   64SAPC   O31 5163   6.049   0.401   6.492  0.0344 -0.3980  0.0355
   64SAPC   C31 5164   5.924   0.455   6.512  0.1761 -0.2135 -0.0042
   64SAPC   O32 5165   5.841   0.467   6.428 -0.1547 -0.3494  0.0651
   64SAPC   C32 5166   5.917   0.496   6.661  0.0712  0.3740 -0.1216
   64SAPC   H2X 5167   5.979   0.587   6.676 -0.1896  0.3948  0.8764
   64SAPC   H2Y 5168   5.957   0.408   6.715  1.1607  0.3538 -0.9523
   64SAPC   C23 5169   6.293  -0.064   6.692 -0.5233 -0.4249  0.0101
   64SAPC   H3R 5170   6.202  -0.008   6.725 -2.2578 -3.3924  0.4611
   64SAPC   H3S 5171   6.379  -0.012   6.739 -0.0104 -0.9107 -0.3892
   64SAPC   C24 5172   6.271  -0.205   6.746 -0.5057 -0.3091  0.4038
   64SAPC   H4R 5173   6.203  -0.257   6.676  0.0152 -0.4406 -0.0085
   64SAPC   H4S 5174   6.223  -0.209   6.846  0.0813  2.5842  0.8328
   64SAPC   C25 5175   6.401  -0.288   6.748  0.1990  0.0601 -0.1974
   64SAPC   H5R 5176   6.442  -0.311   6.649  1.6006  1.8441 -0.0635
   64SAPC   C26 5177   6.461  -0.336   6.864 -0.5584 -0.1202  0.4605
   64SAPC   H6R 5178   6.563  -0.375   6.851  0.1641  2.4167 -1.8916
   64SAPC   C27 5179   6.420  -0.316   7.004 -0.2558 -0.2229  0.6714
   64SAPC   H7R 5180   6.311  -0.339   7.010 -0.6367  0.4299 -2.8565
   64SAPC   H7S 5181   6.427  -0.209   7.032  3.4458  0.3659 -2.1299
   64SAPC   C28 5182   6.508  -0.391   7.098  0.0957 -0.0760 -0.1232
   64SAPC   H8R 5183   6.564  -0.474   7.054  0.1274 -1.5127  2.4964
   64SAPC   C29 5184   6.510  -0.377   7.239  0.4682 -0.2012 -1.0103
   64SAPC   H9R 5185   6.569  -0.449   7.297  0.8362 -0.4224 -1.6584
   64SAPC  C210 5186   6.418  -0.279   7.313  0.3137  0.2236 -0.2053
   64SAPC  H10R 5187   6.374  -0.349   7.387 -1.2671 -1.1124 -2.3584
   64SAPC  H10S 5188   6.339  -0.245   7.244 -0.4144 -1.6415 -0.3279
   64SAPC  C211 5189   6.485  -0.167   7.387  0.6373  0.5834  0.6084
   64SAPC  H11R 5190   6.558  -0.180   7.468  1.6464  1.6251 -0.1340
   64SAPC  C212 5191   6.462  -0.032   7.365  0.8856 -0.6137  1.2111
   64SAPC  H12R 5192   6.523   0.045   7.416  1.2008 -0.1848  0.2029
   64SAPC  C213 5193   6.375   0.033   7.259  0.4544  0.5383  0.2033
   64SAPC  H13R 5194   6.406  -0.021   7.167 -0.6203 -1.8701  1.1843
   64SAPC  H13S 5195   6.400   0.139   7.241  0.8678  0.1155 -1.8048
   64SAPC  C214 5196   6.225   0.018   7.260  0.6890  0.2618  0.4302
   64SAPC  H14R 5197   6.184  -0.038   7.346 -1.0386 -1.4439 -1.4649
   64SAPC  C215 5198   6.143   0.071   7.163 -0.0208  0.1561 -0.1911
   64SAPC  H15R 5199   6.035   0.055   7.160  0.2465 -1.6074 -0.5480
   64SAPC  C216 5200   6.193   0.143   7.046  0.5444  0.1445 -0.6360
   64SAPC  H16R 5201   6.187   0.076   6.958 -1.2936  1.0592 -1.2344
   64SAPC  H16S 5202   6.298   0.181   7.048 -0.3017  2.5465  0.3804
   64SAPC  C217 5203   6.125   0.281   7.011 -0.7595 -0.1679  0.3277
   64SAPC  H17R 5204   6.092   0.337   7.101 -1.3366  1.4690 -0.8863
   64SAPC  H17S 5205   6.031   0.263   6.956  0.1733 -2.4158 -0.6163
   64SAPC  C218 5206   6.223   0.358   6.914  0.2266  0.0714  0.0857
   64SAPC  H18R 5207   6.316   0.375   6.973 -0.7667 -0.2187  1.7683
   64SAPC  H18S 5208   6.174   0.456   6.896 -0.5620 -0.4524 -0.6798
   64SAPC  C219 5209   6.259   0.289   6.783 -0.2113  0.3627 -0.1220
   64SAPC  H19R 5210   6.161   0.266   6.736  0.5815 -1.1469 -1.0838
   64SAPC  H19S 5211   6.314   0.194   6.804 -0.7830 -0.0357 -0.4192
   64SAPC  C220 5212   6.334   0.392   6.695  0.4707 -0.2115  0.2520
   64SAPC  H20R 5213   6.270   0.479   6.668  0.9873  0.0433 -0.1384
   64SAPC  H20S 5214   6.380   0.342   6.607  0.9891  0.6307  0.0421
   64SAPC  H20T 5215   6.415   0.432   6.759  1.0298  0.8083 -1.0663
   64SAPC   C33 5216   5.778   0.530   6.710 -0.5366  0.0728  0.0536
   64SAPC   H3X 5217   5.701   0.456   6.680 -1.1119  0.0647  1.4816
   64SAPC   H3Y 5218   5.762   0.632   6.669 -1.8516 -0.3376 -0.4954
   64SAPC   C34 5219   5.775   0.546   6.864  0.3322 -0.5804 -0.0338
   64SAPC   H4X 5220   5.780   0.451   6.921  1.2343 -0.8378 -0.5423
   64SAPC   H4Y 5221   5.670   0.582   6.870  0.6370  0.1845  0.9694
   64SAPC   C35 5222   5.876   0.654   6.910  0.1524  0.3760  0.3392
   64SAPC   H5X 5223   5.868   0.741   6.841 -0.6393  1.4744  1.7748
   64SAPC   H5Y 5224   5.978   0.618   6.885  0.0130  1.2895 -1.6474
   64SAPC   C36 5225   5.860   0.712   7.050  0.3887  1.1157  0.2966
   64SAPC   H6X 5226   5.762   0.765   7.059 -1.8133 -3.0775  2.5446
   64SAPC   H6Y 5227   5.943   0.785   7.065  1.3326  0.1424 -0.1772
   64SAPC   C37 5228   5.875   0.597   7.153 -0.5862  0.1991  0.9852
   64SAPC   H7X 5229   5.955   0.538   7.104  0.6445  0.1027  3.0302
   64SAPC   H7Y 5230   5.789   0.531   7.131  0.8710  0.1265 -5.6223
   64SAPC   C38 5231   5.907   0.631   7.301  0.2413  0.5513 -0.2901
   64SAPC   H8X 5232   5.810   0.620   7.355  0.0561 -1.9057 -1.0579
   64SAPC   H8Y 5233   5.949   0.733   7.309  0.7417  0.3523 -0.3572
   64SAPC   C39 5234   6.011   0.531   7.360 -1.0154  0.0426  0.1395
   64SAPC   H9X 5235   6.054   0.566   7.456  1.9608 -0.6739 -0.8826
   64SAPC   H9Y 5236   6.083   0.508   7.278 -0.4376  2.3825 -0.0248
   64SAPC  C310 5237   5.939   0.402   7.400  0.1700  0.7408 -0.1648
   64SAPC  H10X 5238   5.880   0.373   7.310 -0.9722  1.0281  0.4877
   64SAPC  H10Y 5239   5.864   0.414   7.481  1.3553  0.9990  0.8925
   64SAPC  C311 5240   6.028   0.289   7.449 -0.2781 -0.0337 -0.3621
   64SAPC  H11X 5241   6.119   0.278   7.387  0.0305  1.9074 -0.2753
   64SAPC  H11Y 5242   5.973   0.193   7.436 -0.1421 -0.6290  2.9499
   64SAPC  C312 5243   6.058   0.304   7.602 -0.4469  0.4050 -0.6948
   64SAPC  H12X 5244   5.968   0.293   7.667 -1.3898 -1.1264 -2.2136
   64SAPC  H12Y 5245   6.102   0.401   7.633 -1.3948  0.5293  0.3029
   64SAPC  C313 5246   6.141   0.182   7.652  0.6102  0.0010  0.0641
   64SAPC  H13X 5247   6.238   0.162   7.602  0.0353 -0.3991 -0.9349
   64SAPC  H13Y 5248   6.071   0.106   7.610  2.2153  0.2177 -3.1929
   64SAPC  C314 5249   6.158   0.165   7.801 -0.8039 -0.1982 -0.1774
   64SAPC  H14X 5250   6.057   0.169   7.846 -0.6393 -1.4120  0.3013
   64SAPC  H14Y 5251   6.221   0.246   7.845 -0.1277 -0.1253 -1.2386
   64SAPC  C315 5252   6.216   0.022   7.825  0.5304 -0.2322  0.5596
   64SAPC  H15X 5253   6.167  -0.051   7.757  0.9539 -0.8073  0.8622
   64SAPC  H15Y 5254   6.200  -0.002   7.933 -2.4502  3.1613  0.9547
   64SAPC  C316 5255   6.370   0.021   7.798 -0.6313  0.0070 -0.7109
   64SAPC  H16X 5256   6.404   0.127   7.793  0.2190 -0.3298 -2.0166
   64SAPC  H16Y 5257   6.398  -0.023   7.700  0.6361  1.0449 -0.8375
   64SAPC  C317 5258   6.455  -0.065   7.884 -0.0501 -0.1708 -0.8470
   64SAPC  H17X 5259   6.445  -0.043   7.993  1.8208 -2.1125 -0.2291
   64SAPC  H17Y 5260   6.564  -0.052   7.868  0.1727 -0.6419  0.2247
   64SAPC  C318 5261   6.444  -0.214   7.844  0.9605 -0.1858 -0.7811
   64SAPC  H18X 5262   6.497  -0.281   7.915 -0.8886  0.4725  1.2984
   64SAPC  H18Y 5263   6.476  -0.220   7.738  0.0243 -0.3846 -1.0629
   64SAPC  H18Z 5264   6.335  -0.238   7.847  1.1730 -1.0302  1.9446
   65SAPC     N 5265   5.465   1.739   5.861 -0.2753  0.8903  0.7366
   65SAPC   C12 5266   5.508   1.781   6.002  0.0744  0.2580 -0.2679
   65SAPC  H12A 5267   5.593   1.720   6.029 -0.6656  0.2797  2.1799
   65SAPC  H12B 5268   5.429   1.752   6.069  1.0738 -2.3251 -0.1525
   65SAPC   C13 5269   5.322   1.788   5.857 -0.3886  0.4115  0.1506
   65SAPC  H13A 5270   5.268   1.730   5.930 -0.9526  0.7994  0.0408
   65SAPC  H13B 5271   5.308   1.894   5.868 -1.4251  0.1857  1.1140
   65SAPC  H13C 5272   5.284   1.765   5.759  0.1323  1.3378 -0.2722
   65SAPC   C14 5273   5.547   1.812   5.759 -0.5727 -0.3377  0.3101
   65SAPC  H14A 5274   5.533   1.919   5.757  1.4078 -0.0832 -1.2196
   65SAPC  H14B 5275   5.651   1.808   5.786 -0.1125 -1.0309 -1.4773
   65SAPC  H14C 5276   5.537   1.783   5.655  2.3644 -1.0678  0.1893
   65SAPC   C15 5277   5.476   1.590   5.855 -0.5791  0.5103  1.0916
   65SAPC  H15A 5278   5.452   1.540   5.763  2.4213 -0.3644  0.7472
   65SAPC  H15B 5279   5.579   1.560   5.863 -0.7697 -0.5941 -0.5118
   65SAPC  H15C 5280   5.407   1.554   5.931 -0.0498  2.8408  2.7502
   65SAPC   C11 5281   5.541   1.929   6.035  0.2890  0.5357  0.2585
   65SAPC  H11A 5282   5.633   1.969   5.987 -0.2560 -1.2275 -2.3291
   65SAPC  H11B 5283   5.564   1.937   6.143 -0.1839  2.6422  0.2402
   65SAPC     P 5284   5.309   2.033   6.094 -0.4180  0.4095 -0.1937
   65SAPC   O13 5285   5.332   2.147   6.187  0.2927 -0.0667  0.2100
   65SAPC   O14 5286   5.186   2.035   6.010  0.3413  0.2472 -0.1099
   65SAPC   O12 5287   5.427   2.011   5.998 -0.3210  0.2445 -0.2583
   65SAPC   O11 5288   5.302   1.899   6.182 -0.4175 -0.0265  0.4454
   65SAPC    C1 5289   5.178   1.837   6.204  1.6632  0.0688  0.1770
   65SAPC    HA 5290   5.121   1.834   6.109  0.7254  2.4375  0.6089
   65SAPC    HB 5291   5.194   1.734   6.242  3.2580  0.4866  0.6691
   65SAPC    C2 5292   5.086   1.905   6.308 -0.0736 -0.3316 -0.8824
   65SAPC    HS 5293   5.059   2.002   6.260  3.0300  0.6053 -0.8307
   65SAPC   O21 5294   5.159   1.914   6.432 -0.1825  0.2894  0.7546
   65SAPC   C21 5295   5.117   1.996   6.520 -0.2689  0.1474 -0.3043
   65SAPC   O22 5296   5.031   2.080   6.502  0.3210 -0.3894  0.3554
   65SAPC   C22 5297   5.193   1.969   6.649  0.0011  0.4040 -0.6711
   65SAPC   H2R 5298   5.161   1.872   6.695 -3.2179  0.3233 -2.8569
   65SAPC   H2S 5299   5.301   1.960   6.627  0.2781  1.4266  0.2913
   65SAPC    C3 5300   4.954   1.830   6.332  0.0659 -0.1016 -0.6631
   65SAPC    HX 5301   4.990   1.738   6.383 -0.8257 -1.7272 -2.8591
   65SAPC    HY 5302   4.912   1.797   6.234  0.8280  0.7789 -1.2968
   65SAPC   O31 5303   4.853   1.901   6.412  0.0243  0.6918  0.7080
   65SAPC   C31 5304   4.762   1.978   6.351  1.1223 -0.4451 -0.0751
   65SAPC   O32 5305   4.744   1.978   6.230 -0.2441  0.2880  0.0265
   65SAPC   C32 5306   4.667   2.055   6.437 -0.9933  0.4663 -0.3516
   65SAPC   H2X 5307   4.634   1.993   6.523  0.0873  0.9194  0.4057
   65SAPC   H2Y 5308   4.576   2.085   6.381 -1.0552  2.6242  0.8194
   65SAPC   C23 5309   5.190   2.078   6.766 -0.7161  0.5888  0.5492
   65SAPC   H3R 5310   5.085   2.103   6.792 -0.2173  2.0984  1.1652
   65SAPC   H3S 5311   5.238   2.168   6.723 -0.1157 -0.5388 -1.1849
   65SAPC   C24 5312   5.264   2.044   6.895 -0.8297  0.0924 -0.0911
   65SAPC   H4R 5313   5.232   1.947   6.939 -0.8485 -0.5485 -1.4879
   65SAPC   H4S 5314   5.240   2.121   6.972 -1.9626  0.6666 -1.0011
   65SAPC   C25 5315   5.414   2.025   6.882 -0.9106 -0.0597  0.0789
   65SAPC   H5R 5316   5.448   1.926   6.848 -0.7894 -0.1112  0.3460
   65SAPC   C26 5317   5.509   2.113   6.918  0.6583  0.5634 -0.0652
   65SAPC   H6R 5318   5.614   2.085   6.902  0.3513  0.5468 -2.1653
   65SAPC   C27 5319   5.486   2.249   6.966  0.3801  0.1579 -0.7745
   65SAPC   H7R 5320   5.509   2.251   7.075 -0.0343  0.7081 -0.6972
   65SAPC   H7S 5321   5.378   2.270   6.957 -0.5009 -2.5063  2.3458
   65SAPC   C28 5322   5.561   2.358   6.906 -0.4672  0.5032  0.0803
   65SAPC   H8R 5323   5.505   2.401   6.821  1.0374 -1.4731 -1.9645
   65SAPC   C29 5324   5.679   2.410   6.941  0.0539 -0.2607  0.6767
   65SAPC   H9R 5325   5.729   2.481   6.873  2.6583 -4.8762 -2.5168
   65SAPC  C210 5326   5.773   2.375   7.058  0.1400  0.0596  0.1351
   65SAPC  H10R 5327   5.878   2.362   7.024 -0.4999 -0.3132 -1.7464
   65SAPC  H10S 5328   5.745   2.270   7.081 -0.1603  0.0571 -0.2421
   65SAPC  C211 5329   5.777   2.466   7.177 -0.1309 -0.0356 -0.9413
   65SAPC  H11R 5330   5.794   2.574   7.165 -1.5349  0.1621 -1.2654
   65SAPC  C212 5331   5.762   2.422   7.298 -0.3239 -0.0289 -0.5027
   65SAPC  H12R 5332   5.764   2.500   7.376  1.4525 -1.6382  1.1191
   65SAPC  C213 5333   5.742   2.284   7.354 -0.4528  0.0568  0.4434
   65SAPC  H13R 5334   5.655   2.246   7.297 -0.1648  1.2205 -0.8003
   65SAPC  H13S 5335   5.711   2.293   7.460 -0.4177  3.4051  0.2127
   65SAPC  C214 5336   5.871   2.202   7.347 -0.8444  0.2116 -0.3063
   65SAPC  H14R 5337   5.970   2.247   7.362 -0.3143 -0.7370 -0.8585
   65SAPC  C215 5338   5.866   2.069   7.328  0.7877  0.4449  0.5609
   65SAPC  H15R 5339   5.958   2.010   7.333  1.4939  1.5251  0.5829
   65SAPC  C216 5340   5.743   1.980   7.304 -0.6146  0.0833  0.7505
   65SAPC  H16R 5341   5.773   1.891   7.244 -0.8461  0.4767  0.0390
   65SAPC  H16S 5342   5.674   2.032   7.234  0.0589  1.0161  0.7717
   65SAPC  C217 5343   5.657   1.938   7.428 -1.0815  0.2535  0.3557
   65SAPC  H17R 5344   5.554   1.911   7.398 -1.7013  1.9678  0.8443
   65SAPC  H17S 5345   5.660   2.022   7.502  1.8053  0.7562 -0.2851
   65SAPC  C218 5346   5.703   1.814   7.508  0.6000 -0.3494  0.1178
   65SAPC  H18R 5347   5.768   1.851   7.590 -0.2801  0.1031  0.6196
   65SAPC  H18S 5348   5.767   1.753   7.440  0.0851 -0.0817 -0.6117
   65SAPC  C219 5349   5.584   1.728   7.555 -0.7365 -0.5724 -0.2636
   65SAPC  H19R 5350   5.531   1.688   7.466 -1.5060  1.5410 -0.7908
   65SAPC  H19S 5351   5.510   1.786   7.614 -0.2475 -1.1165  0.8842
   65SAPC  C220 5352   5.625   1.606   7.646 -0.3647  0.7498 -0.3989
   65SAPC  H20R 5353   5.632   1.652   7.747 -0.0694 -0.5950  0.1986
   65SAPC  H20S 5354   5.719   1.558   7.610 -0.3438  1.1036 -0.8227
   65SAPC  H20T 5355   5.546   1.528   7.635 -0.0785  0.7628 -2.8380
   65SAPC   C33 5356   4.712   2.182   6.509  0.2671 -0.2843  0.2291
   65SAPC   H3X 5357   4.732   2.264   6.437  1.5134  0.6149  1.5436
   65SAPC   H3Y 5358   4.803   2.163   6.571 -0.0353 -0.8768  0.4897
   65SAPC   C34 5359   4.603   2.238   6.607 -0.2774  0.9446  0.3903
   65SAPC   H4X 5360   4.577   2.160   6.681 -1.2496 -1.8377 -2.7339
   65SAPC   H4Y 5361   4.516   2.264   6.543 -0.9646 -1.5609  0.2457
   65SAPC   C35 5362   4.642   2.364   6.682 -0.7126  0.2107  0.1226
   65SAPC   H5X 5363   4.546   2.420   6.679 -1.7024 -1.3022  2.2646
   65SAPC   H5Y 5364   4.722   2.418   6.627 -0.9553  0.0072 -0.4371
   65SAPC   C36 5365   4.684   2.330   6.824  0.0533  0.7987 -0.3759
   65SAPC   H6X 5366   4.790   2.297   6.823  0.1970  1.2645 -1.0526
   65SAPC   H6Y 5367   4.630   2.239   6.856 -0.4399  1.3037  0.2181
   65SAPC   C37 5368   4.665   2.452   6.916 -0.2584  1.0917 -0.2514
   65SAPC   H7X 5369   4.556   2.477   6.916 -0.5018  0.1215  0.8121
   65SAPC   H7Y 5370   4.724   2.540   6.882 -0.4356  0.6815 -1.6391
   65SAPC   C38 5371   4.692   2.414   7.061 -0.3116 -0.3571 -0.0906
   65SAPC   H8X 5372   4.801   2.413   7.081 -0.3753  1.3760  0.3800
   65SAPC   H8Y 5373   4.657   2.310   7.083 -0.7319  0.0056  1.0045
   65SAPC   C39 5374   4.646   2.521   7.164 -0.0744  0.1741 -0.0409
   65SAPC   H9X 5375   4.535   2.520   7.162 -0.0731 -1.8289  0.2338
   65SAPC   H9Y 5376   4.697   2.613   7.128  0.7343 -0.2059  0.1124
   65SAPC  C310 5377   4.701   2.484   7.299  0.0834  0.6613 -0.5470
   65SAPC  H10X 5378   4.809   2.458   7.300  0.1802  0.9828  2.5904
   65SAPC  H10Y 5379   4.648   2.394   7.336 -2.1801  1.0782 -2.6167
   65SAPC  C311 5380   4.676   2.598   7.406  0.4327 -0.6386  0.1331
   65SAPC  H11X 5381   4.732   2.689   7.375  0.2117  0.0453  1.6788
   65SAPC  H11Y 5382   4.738   2.568   7.493 -1.2453 -1.6401  1.0115
   65SAPC  C312 5383   4.525   2.621   7.445 -0.2186  0.8589  0.4420
   65SAPC  H12X 5384   4.479   2.521   7.457 -0.4212  0.7428 -1.1456
   65SAPC  H12Y 5385   4.462   2.674   7.370 -0.1432  0.0914 -0.1714
   65SAPC  C313 5386   4.517   2.690   7.579 -0.4670 -0.3279 -0.3821
   65SAPC  H13X 5387   4.557   2.792   7.561 -0.1269 -0.4738 -0.4465
   65SAPC  H13Y 5388   4.577   2.632   7.653 -0.7671  0.1956  0.2818
   65SAPC  C314 5389   4.370   2.689   7.631  0.2685  0.3324 -0.4506
   65SAPC  H14X 5390   4.331   2.585   7.645  3.7284 -1.0600 -0.6382
   65SAPC  H14Y 5391   4.312   2.755   7.564  0.1106  0.1688 -0.4753
   65SAPC  C315 5392   4.360   2.749   7.774 -0.1149  0.0762  0.2728
   65SAPC  H15X 5393   4.255   2.783   7.788  0.2584  1.3679 -0.0459
   65SAPC  H15Y 5394   4.412   2.847   7.767 -2.9656  1.7303  1.5208
   65SAPC  C316 5395   4.398   2.661   7.894 -0.1798 -0.4812 -0.2158
   65SAPC  H16X 5396   4.506   2.635   7.892  0.4272  1.9122 -1.6888
   65SAPC  H16Y 5397   4.347   2.565   7.873  2.0068 -1.7425  0.1544
   65SAPC  C317 5398   4.363   2.730   8.019  0.0027 -0.0429  0.8900
   65SAPC  H17X 5399   4.258   2.765   8.006  0.5654  0.7227 -2.0913
   65SAPC  H17Y 5400   4.412   2.828   8.038 -0.1957  0.4052 -0.8333
   65SAPC  C318 5401   4.382   2.653   8.152  0.6053  0.2192  0.2853
   65SAPC  H18X 5402   4.357   2.716   8.240 -0.7992  0.9198 -0.5821
   65SAPC  H18Y 5403   4.484   2.614   8.172  0.4950  0.1017  0.6240
   65SAPC  H18Z 5404   4.309   2.569   8.159 -0.1711  0.9555  1.1379
   66SAPC     N 5405   3.671   1.923   6.012 -0.2078  0.4087 -0.3554
   66SAPC   C12 5406   3.694   1.805   6.101 -0.4816 -0.4760 -0.4031
   66SAPC  H12A 5407   3.792   1.808   6.148  0.5350  0.6594 -2.5235
   66SAPC  H12B 5408   3.681   1.718   6.039  0.7027  0.3375 -1.8366
   66SAPC   C13 5409   3.555   1.901   5.913 -0.0844 -0.2506 -0.4568
   66SAPC  H13A 5410   3.533   1.992   5.858  0.3372 -1.3611 -2.4930
   66SAPC  H13B 5411   3.575   1.823   5.842 -0.2172  1.0421 -1.9381
   66SAPC  H13C 5412   3.460   1.884   5.961 -0.9942 -2.6399 -2.9757
   66SAPC   C14 5413   3.638   2.042   6.099 -0.0982 -0.4927  0.2256
   66SAPC  H14A 5414   3.717   2.060   6.170  0.2350  0.2528 -0.3236
   66SAPC  H14B 5415   3.611   2.122   6.032 -0.8951 -2.2371 -1.5845
   66SAPC  H14C 5416   3.546   2.017   6.149  0.3465 -0.3006  1.1565
   66SAPC   C15 5417   3.791   1.949   5.934  0.3535 -0.1486  0.0503
   66SAPC  H15A 5418   3.866   1.978   6.005  0.5104  0.9672 -0.5588
   66SAPC  H15B 5419   3.821   1.870   5.867  2.7862 -0.9556  2.0068
   66SAPC  H15C 5420   3.787   2.034   5.868  0.0471  0.2537  0.5809
   66SAPC   C11 5421   3.596   1.789   6.215  0.1619 -0.4517 -0.0883
   66SAPC  H11A 5422   3.595   1.876   6.284  2.7907  1.2742 -2.1406
   66SAPC  H11B 5423   3.634   1.710   6.283  2.4841 -0.2135 -1.0527
   66SAPC     P 5424   3.411   1.629   6.118  0.1369  0.1851  0.3683
   66SAPC   O13 5425   3.268   1.643   6.085 -0.3097  0.1714 -0.3045
   66SAPC   O14 5426   3.496   1.580   6.002  0.1046 -0.0627 -0.1359
   66SAPC   O12 5427   3.464   1.771   6.164 -0.7699  0.4419  0.6885
   66SAPC   O11 5428   3.439   1.529   6.242 -0.0390  0.8433  0.7149
   66SAPC    C1 5429   3.346   1.510   6.352  0.1990 -0.7488 -0.2564
   66SAPC    HA 5430   3.254   1.571   6.338  1.7050  2.1738  1.8640
   66SAPC    HB 5431   3.315   1.404   6.356 -0.5968 -0.5823 -1.6914
   66SAPC    C2 5432   3.397   1.556   6.489  0.5061  0.2281 -0.2688
   66SAPC    HS 5433   3.321   1.527   6.565  1.4660  1.4587  1.1822
   66SAPC   O21 5434   3.411   1.701   6.487 -0.5258  0.1478 -0.1360
   66SAPC   C21 5435   3.302   1.770   6.506  0.1546 -0.6397  0.2465
   66SAPC   O22 5436   3.187   1.731   6.517 -1.2338  0.0414  0.5602
   66SAPC   C22 5437   3.338   1.912   6.513  1.1107 -0.5442 -0.3128
   66SAPC   H2R 5438   3.439   1.932   6.555  0.5787 -0.2765  0.8849
   66SAPC   H2S 5439   3.351   1.961   6.414 -1.2627  2.1499  0.6170
   66SAPC    C3 5440   3.529   1.488   6.511  0.0891 -0.3975 -0.8401
   66SAPC    HX 5441   3.608   1.544   6.455 -0.7297  1.1181 -0.4933
   66SAPC    HY 5442   3.533   1.394   6.453 -1.2311  0.4045 -2.2713
   66SAPC   O31 5443   3.563   1.451   6.650  0.1370 -0.1588 -0.9445
   66SAPC   C31 5444   3.595   1.557   6.728  1.0149 -0.1413  0.6144
   66SAPC   O32 5445   3.603   1.677   6.689  0.0143 -0.3997 -0.0928
   66SAPC   C32 5446   3.614   1.511   6.865  0.5792 -0.2730  0.3091
   66SAPC   H2X 5447   3.724   1.492   6.872  0.7853  0.6900 -0.2852
   66SAPC   H2Y 5448   3.565   1.411   6.868  0.0859 -0.0394 -0.0527
   66SAPC   C23 5449   3.240   2.014   6.572 -0.0613 -0.2909 -0.3545
   66SAPC   H3R 5450   3.151   2.024   6.507 -0.6891  2.7204  0.8729
   66SAPC   H3S 5451   3.289   2.113   6.556  2.6666 -1.2605  1.5908
   66SAPC   C24 5452   3.189   1.984   6.713 -0.1905 -0.4641 -0.6280
   66SAPC   H4R 5453   3.113   1.902   6.716 -3.2513  2.2629  2.7008
   66SAPC   H4S 5454   3.139   2.075   6.754 -1.3649 -1.4616  0.2181
   66SAPC   C25 5455   3.304   1.936   6.803  0.9158  0.4087 -0.5233
   66SAPC   H5R 5456   3.369   1.859   6.761  0.3144  0.4579 -1.5594
   66SAPC   C26 5457   3.331   1.990   6.929 -0.0994 -0.0539  0.1489
   66SAPC   H6R 5458   3.417   1.953   6.987 -1.5298 -2.1097  1.0250
   66SAPC   C27 5459   3.251   2.090   7.005 -0.3093  0.1887 -0.0688
   66SAPC   H7R 5460   3.250   2.055   7.110 -0.6116  2.4996  0.7043
   66SAPC   H7S 5461   3.146   2.083   6.970 -0.8737 -0.9627  1.8126
   66SAPC   C28 5462   3.293   2.231   6.998 -1.0535  0.2928  0.0865
   66SAPC   H8R 5463   3.313   2.272   6.898  1.6856 -0.9555  0.0888
   66SAPC   C29 5464   3.320   2.315   7.097 -0.4226  0.4539  0.2773
   66SAPC   H9R 5465   3.365   2.413   7.074 -1.1907  0.3842 -1.5942
   66SAPC  C210 5466   3.299   2.286   7.245 -0.0531 -0.3099 -0.0562
   66SAPC  H10R 5467   3.389   2.294   7.310  0.1917  1.4205 -0.5619
   66SAPC  H10S 5468   3.248   2.190   7.267 -0.5975 -0.0531 -0.1908
   66SAPC  C211 5469   3.203   2.392   7.286 -0.3630  0.2987  0.1848
   66SAPC  H11R 5470   3.112   2.400   7.225  1.4959 -0.6487 -2.8253
   66SAPC  C212 5471   3.220   2.483   7.388 -0.0120 -0.0478  0.4277
   66SAPC  H12R 5472   3.133   2.547   7.410 -0.0133 -0.0492  0.4266
   66SAPC  C213 5473   3.335   2.481   7.486  0.6952 -0.0984 -0.1542
   66SAPC  H13R 5474   3.431   2.487   7.431  0.8302 -1.5838 -0.0791
   66SAPC  H13S 5475   3.353   2.381   7.531  2.4153  0.8471  1.3394
   66SAPC  C214 5476   3.319   2.587   7.591  0.6293 -0.6338  0.2909
   66SAPC  H14R 5477   3.306   2.689   7.552  2.0507 -0.3564  0.5376
   66SAPC  C215 5478   3.321   2.568   7.725 -0.6095 -0.8818  0.4909
   66SAPC  H15R 5479   3.329   2.656   7.790 -0.4354 -1.7975  1.7084
   66SAPC  C216 5480   3.344   2.441   7.788  0.4432 -0.2961  0.3468
   66SAPC  H16R 5481   3.450   2.408   7.790  0.7625  0.6238 -1.0667
   66SAPC  H16S 5482   3.286   2.358   7.742 -2.0804  1.1529  0.8344
   66SAPC  C217 5483   3.307   2.447   7.942 -0.9768 -0.4619  0.1063
   66SAPC  H17R 5484   3.232   2.366   7.956 -1.0786 -0.5132 -0.7117
   66SAPC  H17S 5485   3.257   2.538   7.981 -1.4922 -1.2813  1.4012
   66SAPC  C218 5486   3.431   2.411   8.025 -0.1716  0.0808  0.1256
   66SAPC  H18R 5487   3.507   2.492   8.019  1.2607 -1.2003  0.8269
   66SAPC  H18S 5488   3.474   2.317   7.985 -0.6898 -1.3688  2.8303
   66SAPC  C219 5489   3.395   2.359   8.165 -0.5935  0.1153 -0.0218
   66SAPC  H19R 5490   3.327   2.271   8.160  1.5122 -1.5737  0.3939
   66SAPC  H19S 5491   3.340   2.442   8.214  1.3055  2.0039 -0.9877
   66SAPC  C220 5492   3.523   2.339   8.252  0.1990 -0.1143  0.6578
   66SAPC  H20R 5493   3.594   2.271   8.200  0.0424  0.4081 -0.2624
   66SAPC  H20S 5494   3.489   2.287   8.344  0.4441 -0.5217  0.5240
   66SAPC  H20T 5495   3.561   2.437   8.287  0.3020  0.4201 -0.9043
   66SAPC   C33 5496   3.565   1.617   6.964 -0.0332 -1.0190  0.2189
   66SAPC   H3X 5497   3.462   1.650   6.938  1.0002  0.9173 -1.5578
   66SAPC   H3Y 5498   3.626   1.710   6.963 -1.4769 -0.0489  0.1025
   66SAPC   C34 5499   3.563   1.557   7.104 -0.7331  0.3649 -0.1949
   66SAPC   H4X 5500   3.669   1.539   7.134 -0.4911 -0.4092 -1.4740
   66SAPC   H4Y 5501   3.510   1.460   7.101  1.5000 -0.9617  1.2255
   66SAPC   C35 5502   3.489   1.639   7.211  0.1635  0.1379  0.1410
   66SAPC   H5X 5503   3.505   1.588   7.308  0.0137 -1.0871 -0.4738
   66SAPC   H5Y 5504   3.381   1.645   7.185  0.3561  1.0683 -0.4787
   66SAPC   C36 5505   3.533   1.786   7.222 -0.6972  0.3765  0.1151
   66SAPC   H6X 5506   3.538   1.838   7.125  0.7155 -0.7941 -0.4549
   66SAPC   H6Y 5507   3.639   1.777   7.256 -0.9049 -0.2420  0.6200
   66SAPC   C37 5508   3.463   1.872   7.326 -0.3539  0.9886 -0.1589
   66SAPC   H7X 5509   3.356   1.884   7.297 -0.4869  0.9719  0.3244
   66SAPC   H7Y 5510   3.509   1.973   7.320 -1.5754  1.5619 -0.1765
   66SAPC   C38 5511   3.479   1.808   7.468  0.1167 -0.1914 -0.0783
   66SAPC   H8X 5512   3.586   1.793   7.496  0.2739 -1.7385 -1.4207
   66SAPC   H8Y 5513   3.410   1.722   7.482 -0.2594  0.5252  2.8246
   66SAPC   C39 5514   3.405   1.884   7.577 -0.1348 -0.9448 -0.8575
   66SAPC   H9X 5515   3.295   1.871   7.571 -0.3976  0.3697  0.8634
   66SAPC   H9Y 5516   3.429   1.992   7.563  0.7604 -0.8149  1.5514
   66SAPC  C310 5517   3.424   1.825   7.722  0.1780  1.1225  0.0066
   66SAPC  H10X 5518   3.532   1.813   7.744 -0.0297  0.6403  0.8080
   66SAPC  H10Y 5519   3.368   1.729   7.716  0.5325  1.0590 -2.9812
   66SAPC  C311 5520   3.359   1.910   7.827 -0.2715 -0.2234  0.0074
   66SAPC  H11X 5521   3.254   1.925   7.796 -0.5691  0.1772  1.1858
   66SAPC  H11Y 5522   3.399   2.013   7.828  0.1935 -0.3627 -2.4124
   66SAPC  C312 5523   3.337   1.858   7.967 -0.1839  0.1914 -0.1855
   66SAPC  H12X 5524   3.429   1.808   8.005 -1.8654 -1.4634  1.8600
   66SAPC  H12Y 5525   3.247   1.793   7.965 -0.8408  1.0426  1.4272
   66SAPC  C313 5526   3.307   1.969   8.078 -0.3693  0.1090  0.2775
   66SAPC  H13X 5527   3.221   2.029   8.040  0.4573  0.8613 -0.4390
   66SAPC  H13Y 5528   3.392   2.041   8.081 -0.0400 -0.3010  0.7704
   66SAPC  C314 5529   3.272   1.896   8.211  0.0069  0.2360  0.4947
   66SAPC  H14X 5530   3.356   1.833   8.248  2.2806  1.5371 -2.2032
   66SAPC  H14Y 5531   3.192   1.830   8.171  0.2594 -1.3214  2.5105
   66SAPC  C315 5532   3.222   1.989   8.322 -0.1547  0.3362 -0.6903
   66SAPC  H15X 5533   3.137   2.051   8.285 -0.1731  3.0874  3.5657
   66SAPC  H15Y 5534   3.304   2.055   8.358 -0.5962  0.1530  0.6956
   66SAPC  C316 5535   3.163   1.907   8.444 -1.6298 -0.3886 -0.2171
   66SAPC  H16X 5536   3.236   1.832   8.482 -0.3221  1.6571  1.4506
   66SAPC  H16Y 5537   3.077   1.845   8.411 -1.8989  0.2803 -0.7752
   66SAPC  C317 5538   3.122   1.994   8.568  0.1513 -0.4468  0.5912
   66SAPC  H17X 5539   3.067   1.936   8.645 -1.7165  0.2154 -0.1981
   66SAPC  H17Y 5540   3.041   2.064   8.538  0.6009 -0.6682 -1.1539
   66SAPC  C318 5541   3.224   2.080   8.635 -0.3341  0.0944 -0.7538
   66SAPC  H18X 5542   3.317   2.024   8.658 -1.0810 -0.6621  0.4838
   66SAPC  H18Y 5543   3.181   2.128   8.725 -0.7279  0.7521 -1.2811
   66SAPC  H18Z 5544   3.257   2.160   8.565  3.0306 -0.5511  0.0100
   67SAPC     N 5545   5.686   2.593   6.189  0.3486 -0.5636 -0.6822
   67SAPC   C12 5546   5.792   2.648   6.283 -0.2846  0.7143  0.0066
   67SAPC  H12A 5547   5.859   2.705   6.219  2.0502 -0.0347  1.7284
   67SAPC  H12B 5548   5.852   2.562   6.310 -0.1492  1.0004  0.6211
   67SAPC   C13 5549   5.606   2.706   6.125 -0.1865 -0.5255 -0.2725
   67SAPC  H13A 5550   5.555   2.762   6.202  2.1264  1.7445 -0.3501
   67SAPC  H13B 5551   5.675   2.772   6.076 -1.4993  1.6846  0.7838
   67SAPC  H13C 5552   5.528   2.674   6.057 -2.3512 -0.4241  2.1021
   67SAPC   C14 5553   5.745   2.509   6.084 -0.7597 -0.5509  0.0494
   67SAPC  H14A 5554   5.810   2.428   6.113  0.8977  0.8607  0.3658
   67SAPC  H14B 5555   5.674   2.461   6.018  2.2909 -3.2139 -1.4258
   67SAPC  H14C 5556   5.799   2.574   6.017 -2.0541  0.5045  0.0135
   67SAPC   C15 5557   5.594   2.506   6.272  0.8398  1.2241 -0.3320
   67SAPC  H15A 5558   5.550   2.573   6.344 -2.2871  1.8277 -2.7335
   67SAPC  H15B 5559   5.521   2.454   6.213 -1.6092 -0.1203  3.6817
   67SAPC  H15C 5560   5.654   2.424   6.309 -1.7268  0.4534  2.3047
   67SAPC   C11 5561   5.753   2.731   6.407  0.7681  0.3368 -0.3242
   67SAPC  H11A 5562   5.841   2.752   6.472  1.1512  0.5757 -0.9147
   67SAPC  H11B 5563   5.676   2.685   6.472 -0.3144  2.3104 -0.1848
   67SAPC     P 5564   5.757   2.993   6.366 -0.1433 -0.3711 -0.0420
   67SAPC   O13 5565   5.905   2.968   6.353  0.2433  0.0845  0.8507
   67SAPC   O14 5566   5.690   3.084   6.269 -0.0934 -0.5043 -0.9001
   67SAPC   O12 5567   5.690   2.856   6.376 -0.5418 -0.0566  0.1705
   67SAPC   O11 5568   5.740   3.054   6.512 -0.5026 -0.4305 -0.0772
   67SAPC    C1 5569   5.613   3.033   6.573  0.1249  0.0061  0.6028
   67SAPC    HA 5570   5.535   3.091   6.520  1.8298  0.4792 -1.4437
   67SAPC    HB 5571   5.585   2.927   6.588  0.2131 -0.1512 -0.3316
   67SAPC    C2 5572   5.607   3.096   6.716  0.7780  0.1547  0.3596
   67SAPC    HS 5573   5.502   3.085   6.749  1.1290 -1.3251  1.0321
   67SAPC   O21 5574   5.639   3.235   6.705 -0.1948 -0.0650  0.0917
   67SAPC   C21 5575   5.603   3.310   6.804  0.2698 -0.4603 -0.3776
   67SAPC   O22 5576   5.520   3.280   6.890 -0.0645 -0.1518 -0.3103
   67SAPC   C22 5577   5.660   3.448   6.787  0.0899  0.3512 -0.1984
   67SAPC   H2R 5578   5.623   3.505   6.699 -0.1557  2.5832  1.2893
   67SAPC   H2S 5579   5.625   3.511   6.872 -2.3409 -1.7943  0.4340
   67SAPC    C3 5580   5.698   3.018   6.818 -0.0570  0.2538  0.4407
   67SAPC    HX 5581   5.770   3.094   6.855  0.8322 -1.6553  2.6725
   67SAPC    HY 5582   5.752   2.939   6.762 -0.5962 -1.1473  1.8593
   67SAPC   O31 5583   5.614   2.963   6.932 -0.0047 -0.1925  0.8353
   67SAPC   C31 5584   5.574   2.841   6.905  0.2042  0.3417  0.2068
   67SAPC   O32 5585   5.599   2.774   6.807  0.4190 -0.0254  0.4726
   67SAPC   C32 5586   5.489   2.790   7.016 -0.1648 -0.1974  0.8163
   67SAPC   H2X 5587   5.537   2.697   7.052 -1.8976 -2.3627 -2.1899
   67SAPC   H2Y 5588   5.393   2.773   6.962  0.1683 -0.4210  0.2941
   67SAPC   C23 5589   5.814   3.458   6.781  0.2323 -0.0130 -0.4313
   67SAPC   H3R 5590   5.847   3.563   6.762 -2.4381  1.5067  2.8615
   67SAPC   H3S 5591   5.845   3.398   6.692 -0.7178 -2.3648  0.7896
   67SAPC   C24 5592   5.879   3.424   6.918 -0.3702 -0.1165  0.3667
   67SAPC   H4R 5593   5.986   3.450   6.903  0.1252 -1.8114  0.8391
   67SAPC   H4S 5594   5.866   3.316   6.941 -0.2932  0.3087  2.5808
   67SAPC   C25 5595   5.839   3.515   7.029  0.3285 -0.0811  0.0510
   67SAPC   H5R 5596   5.851   3.623   7.010  0.1607 -0.1584 -0.4997
   67SAPC   C26 5597   5.785   3.472   7.152  0.2033 -0.0701  0.4037
   67SAPC   H6R 5598   5.770   3.545   7.233  0.9924 -0.6211  1.0438
   67SAPC   C27 5599   5.769   3.333   7.201  0.7630  0.3913  0.5033
   67SAPC   H7R 5600   5.829   3.324   7.294  0.4155 -2.4458  0.4985
   67SAPC   H7S 5601   5.811   3.259   7.129 -0.2546 -0.1153  0.4253
   67SAPC   C28 5602   5.623   3.297   7.237 -0.3799 -0.3566  0.7791
   67SAPC   H8R 5603   5.562   3.242   7.164  0.8692  0.0827 -0.6213
   67SAPC   C29 5604   5.565   3.325   7.356  0.4002  0.2806  0.1375
   67SAPC   H9R 5605   5.458   3.304   7.370  0.2425  1.3592  0.6619
   67SAPC  C210 5606   5.624   3.393   7.472 -0.6424 -0.1036  0.5217
   67SAPC  H10R 5607   5.548   3.452   7.526 -1.9387 -1.7892  0.5931
   67SAPC  H10S 5608   5.704   3.461   7.438  1.5017 -2.1265  1.3711
   67SAPC  C211 5609   5.679   3.291   7.557  0.1049 -0.1292  1.1725
   67SAPC  H11R 5610   5.605   3.213   7.582 -2.5027  1.5916 -0.8896
   67SAPC  C212 5611   5.804   3.295   7.611  0.4283  0.2266  0.4473
   67SAPC  H12R 5612   5.836   3.209   7.673  0.7928 -0.8570 -1.2236
   67SAPC  C213 5613   5.905   3.401   7.590 -1.4164 -0.2674  0.8374
   67SAPC  H13R 5614   5.913   3.430   7.697 -2.7372 -0.4321  0.9942
   67SAPC  H13S 5615   5.871   3.489   7.531 -2.4355 -0.7561  0.6745
   67SAPC  C214 5616   6.039   3.362   7.525 -0.6211 -0.0711  0.2016
   67SAPC  H14R 5617   6.019   3.351   7.417  0.6949 -2.0291  0.1361
   67SAPC  C215 5618   6.150   3.325   7.586  0.4399 -0.5749  0.3834
   67SAPC  H15R 5619   6.238   3.302   7.523  1.8962 -2.6757  3.0919
   67SAPC  C216 5620   6.185   3.313   7.733 -0.4342 -0.1656  0.0484
   67SAPC  H16R 5621   6.195   3.203   7.746  0.6277 -0.0883 -0.0544
   67SAPC  H16S 5622   6.102   3.322   7.806  0.5922 -0.6192  1.2899
   67SAPC  C217 5623   6.304   3.392   7.783  0.1104 -0.3113 -0.8374
   67SAPC  H17R 5624   6.287   3.501   7.764 -0.4039 -0.2937 -0.2948
   67SAPC  H17S 5625   6.385   3.356   7.716 -0.4942 -0.1909 -1.6458
   67SAPC  C218 5626   6.340   3.363   7.934 -0.0284 -0.1929  0.3893
   67SAPC  H18R 5627   6.371   3.257   7.939 -1.8826 -0.7499  0.5800
   67SAPC  H18S 5628   6.250   3.392   7.992 -0.3779  1.9955 -1.1708
   67SAPC  C219 5629   6.448   3.463   7.979 -0.6368 -0.0831 -0.2524
   67SAPC  H19R 5630   6.400   3.563   7.979 -0.5160 -0.0229  0.1613
   67SAPC  H19S 5631   6.535   3.464   7.910 -1.3761 -1.3035 -1.2274
   67SAPC  C220 5632   6.510   3.442   8.117 -0.1396  0.1171  0.5107
   67SAPC  H20R 5633   6.430   3.417   8.190 -1.5938  1.1836 -0.6786
   67SAPC  H20S 5634   6.565   3.534   8.145  3.8148 -2.0684  0.3227
   67SAPC  H20T 5635   6.585   3.359   8.122  1.3510  1.5039  1.8321
   67SAPC   C33 5636   5.459   2.874   7.138 -0.1530  0.2832 -0.6881
   67SAPC   H3X 5637   5.379   2.815   7.187 -2.5809  1.5409 -3.0218
   67SAPC   H3Y 5638   5.414   2.968   7.102  0.1929 -0.4582 -3.1886
   67SAPC   C34 5639   5.567   2.890   7.242  0.1788 -0.1389 -0.0677
   67SAPC   H4X 5640   5.628   2.976   7.208 -1.2917  0.8805 -0.1512
   67SAPC   H4Y 5641   5.632   2.800   7.244  0.4664  0.0901  0.7665
   67SAPC   C35 5642   5.509   2.914   7.386 -0.2293  0.8530 -0.1510
   67SAPC   H5X 5643   5.413   2.968   7.370 -1.2791 -1.0691 -0.5067
   67SAPC   H5Y 5644   5.583   2.989   7.422 -0.3995  0.4250  1.0917
   67SAPC   C36 5645   5.491   2.782   7.459 -0.0927 -0.0945 -0.0303
   67SAPC   H6X 5646   5.578   2.715   7.443  1.4818  1.9407 -0.1594
   67SAPC   H6Y 5647   5.403   2.727   7.420 -0.7892 -2.2134  4.2778
   67SAPC   C37 5648   5.473   2.807   7.608 -0.0323 -0.4117  0.7260
   67SAPC   H7X 5649   5.366   2.838   7.612 -0.2548 -1.0460 -0.1182
   67SAPC   H7Y 5650   5.546   2.887   7.632 -2.0625  1.3441  1.2169
   67SAPC   C38 5651   5.472   2.680   7.688 -0.0546 -0.6342 -0.5829
   67SAPC   H8X 5652   5.578   2.662   7.715  1.0563  1.1842 -3.5103
   67SAPC   H8Y 5653   5.418   2.602   7.632 -1.5165  0.6842 -1.0388
   67SAPC   C39 5654   5.405   2.693   7.828  0.5224  0.2272  0.7441
   67SAPC   H9X 5655   5.295   2.708   7.816  0.4930 -0.5925 -0.0476
   67SAPC   H9Y 5656   5.444   2.773   7.895 -0.0797  1.5801 -0.4862
   67SAPC  C310 5657   5.435   2.571   7.911 -0.3039 -0.1641 -0.0072
   67SAPC  H10X 5658   5.545   2.560   7.920 -0.0764  0.0306 -2.3285
   67SAPC  H10Y 5659   5.395   2.486   7.851  1.2187 -1.6113  0.9872
   67SAPC  C311 5660   5.377   2.580   8.052 -0.0621 -0.4480 -0.6647
   67SAPC  H11X 5661   5.266   2.584   8.040 -0.3028 -0.8801  1.2830
   67SAPC  H11Y 5662   5.413   2.674   8.098 -1.4919  0.1283 -0.7121
   67SAPC  C312 5663   5.418   2.467   8.151  0.4033  0.4054  0.0625
   67SAPC  H12X 5664   5.394   2.367   8.110 -0.7844  0.5183  0.4837
   67SAPC  H12Y 5665   5.371   2.495   8.248 -0.2695 -0.9218  0.1251
   67SAPC  C313 5666   5.580   2.449   8.170 -0.0125  0.2446  0.3638
   67SAPC  H13X 5667   5.624   2.551   8.174 -0.1407  0.2777  0.8922
   67SAPC  H13Y 5668   5.621   2.397   8.080 -1.2119  0.1654 -0.1498
   67SAPC  C314 5669   5.612   2.369   8.294  0.1702  0.0379  0.6176
   67SAPC  H14X 5670   5.722   2.372   8.303  0.7809  1.9072 -5.1265
   67SAPC  H14Y 5671   5.571   2.267   8.277 -2.1950  0.9466  0.6126
   67SAPC  C315 5672   5.550   2.421   8.426  0.2752  1.0957  0.4920
   67SAPC  H15X 5673   5.444   2.390   8.417  0.2307  1.7101 -1.3919
   67SAPC  H15Y 5674   5.555   2.532   8.425 -0.0145  1.1060 -0.3355
   67SAPC  C316 5675   5.615   2.379   8.559  0.1677  0.4946  0.0260
   67SAPC  H16X 5676   5.724   2.401   8.550 -0.1387  1.7685 -0.7731
   67SAPC  H16Y 5677   5.603   2.270   8.575 -2.8937  1.0557  1.8079
   67SAPC  C317 5678   5.556   2.456   8.673 -0.2673  0.1434 -0.0254
   67SAPC  H17X 5679   5.445   2.454   8.681 -0.2129  0.2906  0.8163
   67SAPC  H17Y 5680   5.588   2.562   8.659 -0.4190 -0.1639 -3.1547
   67SAPC  C318 5681   5.599   2.406   8.807  0.4701  0.3687  0.1175
   67SAPC  H18X 5682   5.708   2.414   8.826  0.2679  2.2872  0.6077
   67SAPC  H18Y 5683   5.572   2.299   8.822  1.6998  0.0076 -0.2045
   67SAPC  H18Z 5684   5.552   2.454   8.895  1.0949 -1.0258  1.2385
   68SAPC     N 5685   3.264   2.828   5.811  0.0871  0.5343 -0.4947
   68SAPC   C12 5686   3.288   2.797   5.961  0.0000  0.2862  0.2502
   68SAPC  H12A 5687   3.206   2.746   6.011 -1.7794  3.3863  0.6125
   68SAPC  H12B 5688   3.287   2.893   6.009  2.4171 -0.5283  1.9867
   68SAPC   C13 5689   3.158   2.940   5.800  1.2702 -0.6495 -0.2015
   68SAPC  H13A 5690   3.074   2.926   5.867  2.2398  0.9074  1.3710
   68SAPC  H13B 5691   3.208   3.032   5.827  0.3793  0.1795 -1.3148
   68SAPC  H13C 5692   3.120   2.955   5.700  0.4752 -1.0371  0.0360
   68SAPC   C14 5693   3.389   2.871   5.741 -0.5486  0.3012  0.8149
   68SAPC  H14A 5694   3.418   2.973   5.757 -0.5525  0.4873 -0.3804
   68SAPC  H14B 5695   3.469   2.799   5.754 -0.3129  0.2670 -0.7787
   68SAPC  H14C 5696   3.367   2.876   5.636  0.7283 -0.0229  0.5265
   68SAPC   C15 5697   3.202   2.703   5.754 -0.4183  0.4785 -0.0037
   68SAPC  H15A 5698   3.116   2.674   5.813 -0.7012  1.1078 -0.1060
   68SAPC  H15B 5699   3.176   2.710   5.650 -0.4754  0.1743 -0.0092
   68SAPC  H15C 5700   3.283   2.631   5.750  0.1781  1.2158 -1.8498
   68SAPC   C11 5701   3.430   2.744   6.007  0.4037 -0.9639 -0.4186
   68SAPC  H11A 5702   3.444   2.742   6.117 -3.0245 -1.7058  0.0660
   68SAPC  H11B 5703   3.503   2.815   5.964 -0.3081 -0.4596 -0.7919
   68SAPC     P 5704   3.389   2.483   6.011 -0.1251 -0.4413 -0.0029
   68SAPC   O13 5705   3.245   2.510   6.038 -0.0633 -0.4802 -0.0794
   68SAPC   O14 5706   3.418   2.384   5.909 -0.3780  0.0836  0.1585
   68SAPC   O12 5707   3.456   2.616   5.966 -0.6888 -0.4021 -0.1424
   68SAPC   O11 5708   3.460   2.444   6.148  0.2373 -0.2764 -0.2345
   68SAPC    C1 5709   3.606   2.422   6.149  0.5348  0.8792 -0.6458
   68SAPC    HA 5710   3.624   2.320   6.109  0.8048  0.1538  1.2934
   68SAPC    HB 5711   3.651   2.498   6.081 -2.5813  1.8529 -1.7123
   68SAPC    C2 5712   3.658   2.446   6.292  0.1139  0.6432  0.5096
   68SAPC    HS 5713   3.768   2.449   6.284  0.1471 -0.7453  0.3884
   68SAPC   O21 5714   3.604   2.345   6.372  0.0502  0.1979 -0.0732
   68SAPC   C21 5715   3.682   2.306   6.468  0.5492 -0.0314  0.3883
   68SAPC   O22 5716   3.788   2.351   6.501  0.0561  0.1202 -0.8347
   68SAPC   C22 5717   3.621   2.176   6.520  0.1777  0.3354 -1.1918
   68SAPC   H2R 5718   3.521   2.203   6.558 -0.2848 -2.3724 -0.3225
   68SAPC   H2S 5719   3.615   2.114   6.427 -0.0033 -0.6613 -0.5213
   68SAPC    C3 5720   3.606   2.585   6.354  0.6540 -0.2735  0.0472
   68SAPC    HX 5721   3.496   2.580   6.370  0.4028  0.4689 -1.3994
   68SAPC    HY 5722   3.629   2.661   6.277  0.6271  0.3457  0.6465
   68SAPC   O31 5723   3.674   2.615   6.480  0.2261  0.0828  0.4363
   68SAPC   C31 5724   3.794   2.658   6.476  0.3538  0.4767 -0.4924
   68SAPC   O32 5725   3.860   2.683   6.378 -0.2689 -0.3708  0.3589
   68SAPC   C32 5726   3.857   2.643   6.622 -0.0723 -0.2684  0.7001
   68SAPC   H2X 5727   3.827   2.543   6.659 -0.3663 -1.2707 -2.1253
   68SAPC   H2Y 5728   3.827   2.728   6.687  0.2946 -0.3397  0.9641
   68SAPC   C23 5729   3.696   2.101   6.638 -0.1856  0.0794  0.4172
   68SAPC   H3R 5730   3.800   2.089   6.602 -0.7700 -1.6555 -0.8221
   68SAPC   H3S 5731   3.656   1.997   6.628  0.7932 -0.2450 -0.2526
   68SAPC   C24 5732   3.681   2.132   6.787  0.2946  0.5331 -0.9559
   68SAPC   H4R 5733   3.727   2.047   6.842 -0.7742  1.8527  2.0806
   68SAPC   H4S 5734   3.573   2.140   6.812  0.1808  1.1002 -1.6258
   68SAPC   C25 5735   3.750   2.256   6.838  0.3808  0.3231  0.0307
   68SAPC   H5R 5736   3.779   2.331   6.763 -0.1442 -1.2420 -1.7880
   68SAPC   C26 5737   3.787   2.278   6.962  0.5016 -0.2531 -0.3426
   68SAPC   H6R 5738   3.835   2.376   6.976  0.7819 -0.3022 -0.9275
   68SAPC   C27 5739   3.776   2.195   7.097 -0.7853  0.3221 -0.0527
   68SAPC   H7R 5740   3.804   2.094   7.062 -1.2358 -0.6142  2.1930
   68SAPC   H7S 5741   3.671   2.191   7.133 -0.0396 -4.1537  1.8640
   68SAPC   C28 5742   3.880   2.233   7.208 -0.1743 -0.0049 -0.0467
   68SAPC   H8R 5743   3.983   2.238   7.170 -0.0949  0.7038  0.2491
   68SAPC   C29 5744   3.849   2.267   7.330 -0.1455 -0.1620 -0.5095
   68SAPC   H9R 5745   3.938   2.294   7.388 -0.7935 -2.1160  1.4600
   68SAPC  C210 5746   3.715   2.275   7.392  0.5186  0.5678 -0.3602
   68SAPC  H10R 5747   3.672   2.177   7.421 -0.8662  1.6385  1.2911
   68SAPC  H10S 5748   3.637   2.308   7.321  0.7752 -0.0854 -0.9500
   68SAPC  C211 5749   3.694   2.349   7.525  0.2960  0.0044  0.3484
   68SAPC  H11R 5750   3.651   2.448   7.507  0.2832 -0.6781 -3.9046
   68SAPC  C212 5751   3.725   2.306   7.649  0.0499 -0.1080 -0.7797
   68SAPC  H12R 5752   3.709   2.374   7.734 -0.7177 -0.9336 -0.2558
   68SAPC  C213 5753   3.786   2.167   7.671 -0.0571 -0.5378  0.5829
   68SAPC  H13R 5754   3.872   2.192   7.736 -1.1763  1.2986  1.3818
   68SAPC  H13S 5755   3.829   2.114   7.582  0.7994 -1.7099  1.6733
   68SAPC  C214 5756   3.697   2.071   7.741  0.1087  0.2127 -0.8401
   68SAPC  H14R 5757   3.625   2.021   7.676  0.2399 -2.6060  1.0927
   68SAPC  C215 5758   3.693   2.039   7.874  0.2428  0.0271 -0.2593
   68SAPC  H15R 5759   3.616   1.967   7.907 -1.3471  1.0849 -1.5626
   68SAPC  C216 5760   3.790   2.089   7.987  0.0169 -0.1982  0.3564
   68SAPC  H16R 5761   3.728   2.175   8.023 -2.5976 -1.3288 -1.2719
   68SAPC  H16S 5762   3.887   2.120   7.944 -0.2543 -0.6257 -0.5840
   68SAPC  C217 5763   3.815   1.987   8.097 -0.5361  0.2021 -0.3162
   68SAPC  H17R 5764   3.893   2.036   8.159  0.7703 -0.6363 -1.2599
   68SAPC  H17S 5765   3.856   1.892   8.056 -0.2424 -0.2725  1.0308
   68SAPC  C218 5766   3.690   1.942   8.178 -0.1675 -0.0153  0.0053
   68SAPC  H18R 5767   3.622   1.877   8.119 -0.4880 -0.7123  1.1335
   68SAPC  H18S 5768   3.631   2.031   8.205  1.1334  0.7150  0.5090
   68SAPC  C219 5769   3.731   1.877   8.308  0.2757  0.2762 -0.8298
   68SAPC  H19R 5770   3.643   1.818   8.341  0.1541  0.6780 -0.4293
   68SAPC  H19S 5771   3.755   1.953   8.385 -1.1642 -0.6251  0.5480
   68SAPC  C220 5772   3.846   1.775   8.300  0.2185 -0.7562  0.1787
   68SAPC  H20R 5773   3.865   1.724   8.397 -0.0827  1.2945  1.3622
   68SAPC  H20S 5774   3.946   1.822   8.290  0.5584 -1.3176  0.8633
   68SAPC  H20T 5775   3.832   1.703   8.217 -1.0924  1.0900 -1.2612
   68SAPC   C33 5776   4.010   2.644   6.630  0.1572  0.1280  0.1681
   68SAPC   H3X 5777   4.062   2.741   6.612 -0.8044  0.5517 -0.3972
   68SAPC   H3Y 5778   4.034   2.573   6.548  2.2070  2.0170 -0.9281
   68SAPC   C34 5779   4.066   2.596   6.764  0.4919 -0.0045  0.6597
   68SAPC   H4X 5780   4.173   2.567   6.753  0.6983 -0.0357  2.6353
   68SAPC   H4Y 5781   4.021   2.500   6.798 -2.0505  0.7702 -0.3884
   68SAPC   C35 5782   4.052   2.689   6.884 -0.4797 -0.6017  0.2328
   68SAPC   H5X 5783   3.943   2.693   6.903 -1.2155  2.0177 -3.9925
   68SAPC   H5Y 5784   4.088   2.784   6.840 -1.2251 -1.7756 -3.0972
   68SAPC   C36 5785   4.139   2.661   7.004  0.2441  0.1045  0.8044
   68SAPC   H6X 5786   4.241   2.695   6.978  0.2855 -0.2903  0.4343
   68SAPC   H6Y 5787   4.131   2.555   7.039  1.4360  0.0804  1.0103
   68SAPC   C37 5788   4.085   2.741   7.130 -0.0065  0.1548  0.0112
   68SAPC   H7X 5789   3.978   2.711   7.126  0.6445 -2.3434 -0.1162
   68SAPC   H7Y 5790   4.100   2.850   7.121 -1.2360  0.3399  0.0841
   68SAPC   C38 5791   4.143   2.703   7.264 -0.1187  0.1950 -0.5372
   68SAPC   H8X 5792   4.100   2.749   7.355  1.4120  1.7796 -0.5860
   68SAPC   H8Y 5793   4.251   2.731   7.264 -0.1562  0.4224 -2.1282
   68SAPC   C39 5794   4.143   2.545   7.284  1.1588 -0.2937 -0.4867
   68SAPC   H9X 5795   4.228   2.501   7.228  1.5847  0.5396 -0.4867
   68SAPC   H9Y 5796   4.043   2.513   7.247  0.5629 -1.8087  2.2354
   68SAPC  C310 5797   4.140   2.487   7.424 -0.4617 -0.0462 -1.0341
   68SAPC  H10X 5798   4.238   2.527   7.459 -1.4584 -0.3976  2.3154
   68SAPC  H10Y 5799   4.144   2.376   7.421  1.4588 -0.0442  0.4990
   68SAPC  C311 5800   4.027   2.531   7.529 -0.4078 -0.5044  0.6086
   68SAPC  H11X 5801   3.926   2.503   7.491 -1.5600  0.1292  3.1569
   68SAPC  H11Y 5802   4.030   2.640   7.549 -2.0545 -0.4803  0.7508
   68SAPC  C312 5803   4.050   2.467   7.663 -0.4153 -0.4951 -0.1739
   68SAPC  H12X 5804   4.156   2.481   7.694 -0.7268  0.4701  0.4673
   68SAPC  H12Y 5805   4.040   2.356   7.656  0.8586 -0.5647 -1.0678
   68SAPC  C313 5806   3.963   2.534   7.775 -0.3398  0.3562 -0.2600
   68SAPC  H13X 5807   3.857   2.530   7.742 -0.4702 -0.4780  0.2674
   68SAPC  H13Y 5808   3.983   2.643   7.779  0.6326  0.1777 -0.0999
   68SAPC  C314 5809   3.978   2.456   7.907  0.7422  0.2507  0.3742
   68SAPC  H14X 5810   4.080   2.446   7.949  0.2753 -0.7380  1.2933
   68SAPC  H14Y 5811   3.950   2.354   7.872  1.5317 -0.0749  0.6886
   68SAPC  C315 5812   3.894   2.519   8.025  0.2761  0.2180  0.6499
   68SAPC  H15X 5813   3.798   2.551   7.980 -0.3478 -0.6303  1.3552
   68SAPC  H15Y 5814   3.956   2.609   8.048  2.6835 -1.3809  0.6541
   68SAPC  C316 5815   3.865   2.434   8.144  0.3476  0.0684  0.3993
   68SAPC  H16X 5816   3.800   2.348   8.115 -1.1805  2.0503 -2.2831
   68SAPC  H16Y 5817   3.814   2.504   8.213 -0.0730  0.7742 -0.6240
   68SAPC  C317 5818   3.994   2.374   8.210 -0.0442 -0.0837  0.5337
   68SAPC  H17X 5819   4.058   2.459   8.243 -3.4611  1.4435  3.6351
   68SAPC  H17Y 5820   4.048   2.301   8.146 -1.5619 -2.0300  1.4025
   68SAPC  C318 5821   3.965   2.304   8.341  0.7170 -0.5136  0.1545
   68SAPC  H18X 5822   4.059   2.251   8.366  0.5819 -1.4161 -1.1951
   68SAPC  H18Y 5823   3.883   2.231   8.325  0.2885 -0.1144  0.4943
   68SAPC  H18Z 5824   3.944   2.374   8.425 -1.3307 -0.7924 -0.0807
   69SLPC     N 5825   1.391   6.728  10.935  0.5637 -0.0445  0.5330
   69SLPC   C13 5826   1.536   6.712  10.911  0.3710 -0.1406 -0.3527
   69SLPC  H13A 5827   1.583   6.714  11.009  0.6514  0.1540 -0.4923
   69SLPC  H13B 5828   1.559   6.615  10.870  0.6761 -0.2249  0.0053
   69SLPC  H13C 5829   1.568   6.805  10.865  0.4327 -0.9621 -1.9849
   69SLPC   C14 5830   1.363   6.813  11.058  0.3124 -0.3841 -0.0172
   69SLPC  H14A 5831   1.406   6.774  11.149 -1.1415 -1.3459  0.2751
   69SLPC  H14B 5832   1.384   6.914  11.027 -1.3761 -0.2606 -0.8043
   69SLPC  H14C 5833   1.256   6.810  11.069  0.3706  1.7664  1.3699
   69SLPC   C15 5834   1.326   6.598  10.957 -0.0085 -0.0388  0.4378
   69SLPC  H15A 5835   1.345   6.558  11.056 -1.4884 -0.7061  0.4643
   69SLPC  H15B 5836   1.220   6.606  10.939  0.2219 -0.9352 -1.4578
   69SLPC  H15C 5837   1.366   6.533  10.881 -1.1479  1.7565 -1.7454
   69SLPC   C12 5838   1.336   6.789  10.807  0.1094 -0.3328  0.5914
   69SLPC  H12A 5839   1.229   6.772  10.811  0.1333 -0.5948  0.1643
   69SLPC  H12B 5840   1.366   6.727  10.724  0.3170  0.1324  0.3170
   69SLPC   C11 5841   1.380   6.937  10.780  0.2447  0.7011  0.7906
   69SLPC  H11A 5842   1.352   6.973  10.679  2.0615 -2.1393 -0.7984
   69SLPC  H11B 5843   1.489   6.944  10.798 -0.1295  3.1113  2.4767
   69SLPC     P 5844   1.384   7.180  10.885  0.0457 -0.4075  0.3742
   69SLPC   O13 5845   1.286   7.282  10.926  0.4126  0.1737  0.6894
   69SLPC   O14 5846   1.512   7.177  10.961 -0.4793  0.6196 -0.4420
   69SLPC   O12 5847   1.329   7.028  10.876  0.0411 -0.1970 -0.4023
   69SLPC   O11 5848   1.423   7.203  10.727 -0.0570 -0.0246 -0.3089
   69SLPC    C1 5849   1.512   7.310  10.703 -0.4236  0.3663  0.0862
   69SLPC    HA 5850   1.448   7.400  10.693 -2.5898 -1.2124 -0.8158
   69SLPC    HB 5851   1.585   7.347  10.778  1.2191 -1.8187 -0.3537
   69SLPC    C2 5852   1.591   7.289  10.570 -1.2073  0.1846 -0.5565
   69SLPC    HS 5853   1.677   7.358  10.576 -1.9674  1.1427 -0.6724
   69SLPC   O21 5854   1.514   7.313  10.463 -0.1214  0.6735  0.5467
   69SLPC   C21 5855   1.512   7.443  10.435 -0.3897  0.1231  0.5699
   69SLPC   O22 5856   1.561   7.532  10.503  0.1788 -0.2679  0.2550
   69SLPC   C22 5857   1.434   7.469  10.302 -0.2521 -0.4445 -0.0008
   69SLPC   H2R 5858   1.329   7.497  10.328 -0.3681 -0.1339 -0.7839
   69SLPC   H2S 5859   1.483   7.555  10.252 -0.1864 -0.4502  0.0547
   69SLPC    C3 5860   1.635   7.142  10.570  0.0444 -0.4555  0.0057
   69SLPC    HX 5861   1.555   7.069  10.544 -1.1608  0.7888  0.1676
   69SLPC    HY 5862   1.676   7.117  10.670 -0.0076  0.4884  0.2638
   69SLPC   O31 5863   1.741   7.121  10.475 -0.3872  0.1672 -0.3632
   69SLPC   C31 5864   1.710   7.075  10.355  0.3100  0.3044  0.2963
   69SLPC   O32 5865   1.600   7.036  10.321  0.0259 -0.1388  0.7334
   69SLPC   C32 5866   1.838   7.068  10.280 -0.2854 -0.4591 -0.7577
   69SLPC   H2X 5867   1.920   7.032  10.345  0.6452 -0.4763 -1.9342
   69SLPC   H2Y 5868   1.872   7.170  10.251  0.5679 -0.3897  0.4250
   69SLPC   C23 5869   1.440   7.360  10.193  0.3970 -0.1847 -0.4569
   69SLPC   H3R 5870   1.416   7.259  10.230 -0.4602  0.0734 -0.3053
   69SLPC   H3S 5871   1.546   7.351  10.160  0.3730  0.4359 -0.7174
   69SLPC   C24 5872   1.351   7.390  10.072 -0.3493 -0.5978  0.2763
   69SLPC   H4R 5873   1.401   7.468  10.012  0.2495  0.3556  1.9884
   69SLPC   H4S 5874   1.252   7.426  10.108  0.7337  1.4418  1.2320
   69SLPC   C25 5875   1.350   7.266   9.987  0.3290  0.4996  0.1649
   69SLPC   H5R 5876   1.316   7.179  10.046  1.0241  0.2523  0.2127
   69SLPC   H5S 5877   1.457   7.254   9.956  0.3523  1.4704 -0.1558
   69SLPC   C26 5878   1.261   7.283   9.868  0.1474 -0.3450  0.7575
   69SLPC   H6R 5879   1.275   7.382   9.819 -1.9088  0.6155  2.0393
   69SLPC   H6S 5880   1.156   7.292   9.905  0.2118 -1.3126  1.1825
   69SLPC   C27 5881   1.286   7.171   9.765 -0.0179  0.3061  0.0513
   69SLPC   H7R 5882   1.253   7.073   9.806 -0.0073  0.0503 -0.5499
   69SLPC   H7S 5883   1.394   7.166   9.739  0.1173  0.2846  0.5986
   69SLPC   C28 5884   1.212   7.201   9.632  0.1354 -0.1995  0.7650
   69SLPC   H8R 5885   1.109   7.240   9.646 -0.3180 -1.0728 -0.0902
   69SLPC   H8S 5886   1.197   7.104   9.579  1.5015 -0.1391  0.2628
   69SLPC   C29 5887   1.286   7.298   9.542 -1.0367 -0.2768 -0.4790
   69SLPC   H9R 5888   1.341   7.380   9.592 -0.5686 -0.3352 -0.9001
   69SLPC  C210 5889   1.269   7.312   9.412 -0.3578 -0.2289  0.1076
   69SLPC  H10R 5890   1.334   7.374   9.348 -0.7130  0.1433  0.1026
   69SLPC  C211 5891   1.186   7.228   9.317  0.0811 -0.6341  0.6405
   69SLPC  H11R 5892   1.153   7.129   9.356  0.0326 -0.9408 -0.1878
   69SLPC  H11S 5893   1.252   7.218   9.228 -1.4433 -0.2211 -0.5489
   69SLPC  C212 5894   1.060   7.305   9.287  0.5108  0.8310 -0.4656
   69SLPC  H12R 5895   0.986   7.334   9.362 -1.1354  1.0642 -2.1453
   69SLPC  C213 5896   1.020   7.342   9.167 -0.2818  0.6024  0.6882
   69SLPC  H13R 5897   0.931   7.405   9.157  0.1727  1.4218  1.6602
   69SLPC  C214 5898   1.091   7.312   9.031  0.6211  0.0391 -1.6192
   69SLPC  H14R 5899   1.179   7.244   9.040 -1.0852 -2.2424 -1.8224
   69SLPC  H14S 5900   1.130   7.410   8.994 -0.0170  0.7345 -0.4672
   69SLPC  C215 5901   1.000   7.236   8.934  0.2490 -0.1423  0.1919
   69SLPC  H15R 5902   0.895   7.273   8.932  0.6337  0.9740  0.4637
   69SLPC  H15S 5903   1.008   7.129   8.964  0.7446  0.3306  1.7603
   69SLPC  C216 5904   1.046   7.256   8.790  0.1186 -0.4722 -0.2508
   69SLPC  H16R 5905   1.123   7.178   8.772  1.3984  1.3213 -2.8786
   69SLPC  H16S 5906   1.085   7.360   8.794 -3.5544  0.9522  1.5725
   69SLPC  C217 5907   0.947   7.241   8.674  0.3553 -0.1574 -0.0606
   69SLPC  H17R 5908   0.998   7.249   8.576  1.3382 -0.3462  0.4310
   69SLPC  H17S 5909   0.875   7.326   8.678  1.1707  0.6714 -2.3067
   69SLPC  C218 5910   0.878   7.101   8.679 -0.5570  0.3013  0.3093
   69SLPC  H18R 5911   0.949   7.017   8.660 -0.2436  0.5645  0.3235
   69SLPC  H18S 5912   0.792   7.084   8.611 -0.2373  2.4886 -0.6602
   69SLPC  H18T 5913   0.836   7.077   8.779  0.8823  0.6506  1.0094
   69SLPC   C33 5914   1.831   6.984  10.147 -0.4153  0.6790 -0.2012
   69SLPC   H3X 5915   1.804   6.878  10.171 -0.7929  1.3088  2.3422
   69SLPC   H3Y 5916   1.933   6.977  10.104  0.8669 -1.8097  2.9980
   69SLPC   C34 5917   1.746   7.060  10.043 -0.8012 -0.1127  0.9456
   69SLPC   H4X 5918   1.774   7.167  10.044 -0.8342 -0.1085  2.1829
   69SLPC   H4Y 5919   1.642   7.056  10.082 -0.9217 -0.7992  0.5798
   69SLPC   C35 5920   1.772   7.004   9.904 -0.6091 -0.1488 -0.5919
   69SLPC   H5X 5921   1.748   6.896   9.905 -0.3317 -0.2041  0.3373
   69SLPC   H5Y 5922   1.877   7.019   9.870  1.4217 -1.4043  4.6045
   69SLPC   C36 5923   1.680   7.073   9.801  0.3924 -0.2507 -0.2331
   69SLPC   H6X 5924   1.692   7.184   9.808 -0.0209 -0.3776  3.1422
   69SLPC   H6Y 5925   1.573   7.050   9.817  0.4579 -0.1576  0.3558
   69SLPC   C37 5926   1.713   7.032   9.658 -0.4126  0.4112  0.1209
   69SLPC   H7X 5927   1.666   6.932   9.645  1.7634 -0.5755 -0.4192
   69SLPC   H7Y 5928   1.823   7.030   9.640 -0.1009  0.5193  1.9034
   69SLPC   C38 5929   1.644   7.104   9.547 -0.1656 -1.0030 -0.3611
   69SLPC   H8X 5930   1.688   7.206   9.543  0.8724 -1.4715 -1.1582
   69SLPC   H8Y 5931   1.535   7.121   9.560 -0.2394 -0.4616 -1.6157
   69SLPC   C39 5932   1.668   7.038   9.418  0.8420 -0.7898  0.2283
   69SLPC   H9X 5933   1.634   6.932   9.417 -0.8857 -0.2740  1.8991
   69SLPC   H9Y 5934   1.775   7.048   9.391  0.5480 -0.4020 -0.7825
   69SLPC  C310 5935   1.594   7.123   9.309  0.9668 -0.2811 -0.1126
   69SLPC  H10X 5936   1.620   7.231   9.315 -7.1610  2.0259 -1.1559
   69SLPC  H10Y 5937   1.485   7.114   9.325  0.4239  2.3449 -2.0929
   69SLPC  C311 5938   1.615   7.077   9.165  0.3381  0.0964 -0.4289
   69SLPC  H11X 5939   1.598   6.969   9.147  3.9083 -0.6155  0.1434
   69SLPC  H11Y 5940   1.715   7.107   9.129  0.0371  0.9634 -0.5722
   69SLPC  C312 5941   1.513   7.147   9.066 -0.2256 -0.0423  0.8588
   69SLPC  H12X 5942   1.513   7.251   9.104 -1.2866  1.1957 -2.3597
   69SLPC  H12Y 5943   1.417   7.092   9.071 -0.2393 -0.1388 -0.3762
   69SLPC  C313 5944   1.573   7.168   8.926 -0.0971  0.5543  0.6727
   69SLPC  H13X 5945   1.611   7.072   8.886 -0.9940 -0.0053  1.1350
   69SLPC  H13Y 5946   1.656   7.240   8.941  0.1852 -0.1470  2.5479
   69SLPC  C314 5947   1.453   7.226   8.846 -0.4079 -0.2254  0.3322
   69SLPC  H14X 5948   1.412   7.323   8.882  0.8633  0.4149  0.0755
   69SLPC  H14Y 5949   1.381   7.148   8.880 -0.1459 -0.4710  0.3237
   69SLPC  C315 5950   1.472   7.227   8.694 -0.5325 -0.3197 -0.6060
   69SLPC  H15X 5951   1.531   7.137   8.667 -0.6508 -0.5920  0.0339
   69SLPC  H15Y 5952   1.525   7.321   8.669  0.0105 -0.8451 -1.4206
   69SLPC  C316 5953   1.340   7.238   8.616 -0.1854  0.3839  0.6885
   69SLPC  H16X 5954   1.278   7.323   8.652  0.7479  0.0096  3.2763
   69SLPC  H16Y 5955   1.281   7.144   8.620  1.1866 -0.6213 -1.4981
   69SLPC  C317 5956   1.369   7.248   8.466 -0.3093 -0.0826  0.1973
   69SLPC  H17X 5957   1.424   7.158   8.430  0.2944  0.3315  0.0863
   69SLPC  H17Y 5958   1.438   7.334   8.470  2.4744 -2.2693  1.3211
   69SLPC  C318 5959   1.244   7.272   8.380 -0.0653  0.2575  0.7238
   69SLPC  H18X 5960   1.192   7.364   8.415  0.3538  0.4554  0.8287
   69SLPC  H18Y 5961   1.173   7.189   8.402  2.2151 -2.0352 -0.2327
   69SLPC  H18Z 5962   1.256   7.277   8.270 -1.8488 -2.0685  0.3680
   70SLPC     N 5963   3.014   3.763  10.521 -0.6423 -0.2401  0.1251
   70SLPC   C13 5964   2.932   3.843  10.609  0.2461  0.1642 -0.3952
   70SLPC  H13A 5965   2.932   3.802  10.709 -0.4928  0.3842 -0.3054
   70SLPC  H13B 5966   2.971   3.943  10.622 -2.1310  1.0736 -0.0810
   70SLPC  H13C 5967   2.832   3.853  10.569  0.2609 -0.7292 -0.6603
   70SLPC   C14 5968   2.931   3.665  10.444 -0.0477  0.8098 -0.0060
   70SLPC  H14A 5969   2.986   3.592  10.387 -0.3617  2.3252 -2.3179
   70SLPC  H14B 5970   2.871   3.606  10.512  2.6400 -0.8707  0.9891
   70SLPC  H14C 5971   2.864   3.720  10.379 -0.5906  1.1372  0.8151
   70SLPC   C15 5972   3.111   3.688  10.602  0.1285  0.4286  0.1764
   70SLPC  H15A 5973   3.147   3.608  10.539  1.2628  0.0623  1.2449
   70SLPC  H15B 5974   3.189   3.756  10.634  0.5720  0.6277 -1.3078
   70SLPC  H15C 5975   3.075   3.646  10.695  0.3945 -1.3199 -0.4945
   70SLPC   C12 5976   3.088   3.862  10.434  0.5094 -0.5091  0.0966
   70SLPC  H12A 5977   3.016   3.925  10.384  0.5944  0.0577  0.6784
   70SLPC  H12B 5978   3.135   3.811  10.351  2.0312  1.4866 -0.3020
   70SLPC   C11 5979   3.202   3.941  10.496  0.0366 -0.6942 -0.2361
   70SLPC  H11A 5980   3.241   3.999  10.410  0.4992 -0.2285  0.2869
   70SLPC  H11B 5981   3.283   3.869  10.517  0.6496 -0.0002 -0.1996
   70SLPC     P 5982   3.281   4.089  10.698  0.1281  0.1491 -0.0112
   70SLPC   O13 5983   3.284   4.029  10.836 -0.2821  0.4233 -0.1401
   70SLPC   O14 5984   3.408   4.096  10.617  0.5789  0.4031  0.1257
   70SLPC   O12 5985   3.168   4.015  10.611  0.3838  0.2293 -0.4287
   70SLPC   O11 5986   3.218   4.234  10.718  0.2814 -0.5001  0.3261
   70SLPC    C1 5987   3.074   4.248  10.711 -0.2981  0.3263  0.1189
   70SLPC    HA 5988   3.023   4.156  10.748  1.9566 -1.5421 -1.2843
   70SLPC    HB 5989   3.039   4.330  10.776  0.3060  0.8591 -0.2221
   70SLPC    C2 5990   3.028   4.276  10.567 -0.9503  0.7153  0.1863
   70SLPC    HS 5991   3.068   4.199  10.498  0.9377  0.2744  1.7522
   70SLPC   O21 5992   3.083   4.411  10.540 -0.7303  0.1214 -0.3935
   70SLPC   C21 5993   3.129   4.428  10.410 -0.2922  0.1138  0.0767
   70SLPC   O22 5994   3.109   4.346  10.320  0.0978 -0.6538 -0.0245
   70SLPC   C22 5995   3.176   4.575  10.395  1.0195 -1.1851 -0.0511
   70SLPC   H2R 5996   3.170   4.626  10.493  1.0162  0.9480 -1.1315
   70SLPC   H2S 5997   3.279   4.558  10.356  0.5854 -1.9767 -0.8855
   70SLPC    C3 5998   2.876   4.268  10.561 -0.1949  0.1562 -0.7508
   70SLPC    HX 5999   2.827   4.331  10.639 -2.6861 -1.5033 -0.9060
   70SLPC    HY 6000   2.858   4.164  10.595  1.9270  0.2354  0.6710
   70SLPC   O31 6001   2.829   4.299  10.424 -0.2437 -0.5503  0.4128
   70SLPC   C31 6002   2.809   4.427  10.404 -0.0344  0.0234 -0.4624
   70SLPC   O32 6003   2.813   4.507  10.492  0.1143 -0.2673  0.0421
   70SLPC   C32 6004   2.758   4.446  10.260 -0.4397 -0.4213  0.3816
   70SLPC   H2X 6005   2.695   4.358  10.237  1.5841 -1.7488 -0.2296
   70SLPC   H2Y 6006   2.849   4.444  10.196 -1.1327 -3.2385 -0.5727
   70SLPC   C23 6007   3.089   4.671  10.309 -0.6393 -0.6993 -0.4030
   70SLPC   H3R 6008   3.099   4.776  10.343  1.6310  0.3578 -3.9734
   70SLPC   H3S 6009   2.980   4.654  10.314 -0.9359  1.1729 -0.3103
   70SLPC   C24 6010   3.132   4.662  10.161 -0.1643  1.1949  0.0476
   70SLPC   H4R 6011   3.117   4.563  10.113 -0.7314  0.4283  1.7765
   70SLPC   H4S 6012   3.241   4.683  10.150  0.4880 -2.1282 -0.2624
   70SLPC   C25 6013   3.057   4.761  10.072 -0.2126  0.0255 -0.4261
   70SLPC   H5R 6014   3.064   4.867  10.105 -0.6440  0.0789 -0.5084
   70SLPC   H5S 6015   2.950   4.733  10.063  0.3756 -2.2828 -0.5183
   70SLPC   C26 6016   3.101   4.756   9.922  0.3829 -0.0538 -0.2197
   70SLPC   H6R 6017   3.208   4.777   9.899  0.6359 -1.6294 -0.5603
   70SLPC   H6S 6018   3.036   4.830   9.871  0.1992  1.4594  2.1555
   70SLPC   C27 6019   3.073   4.614   9.860 -0.4195 -0.3586  0.3246
   70SLPC   H7R 6020   2.980   4.570   9.901 -0.6177 -1.2475 -1.0552
   70SLPC   H7S 6021   3.160   4.550   9.885  0.5075  1.6099  2.3231
   70SLPC   C28 6022   3.059   4.627   9.712  0.4272  0.6865 -0.1755
   70SLPC   H8R 6023   2.962   4.673   9.683 -0.4977 -1.2572 -0.2478
   70SLPC   H8S 6024   3.034   4.524   9.678 -0.5600  0.4268  1.2711
   70SLPC   C29 6025   3.179   4.687   9.643 -0.5270  0.2449  0.1429
   70SLPC   H9R 6026   3.277   4.660   9.685  0.6533  1.9142 -1.5173
   70SLPC  C210 6027   3.176   4.784   9.543 -0.1424 -0.1699  1.1381
   70SLPC  H10R 6028   3.268   4.814   9.492 -1.4027  0.1299 -1.0111
   70SLPC  C211 6029   3.049   4.837   9.478  0.1430 -0.1349  0.3566
   70SLPC  H11R 6030   3.047   4.948   9.472 -2.6737 -0.1859 -0.7239
   70SLPC  H11S 6031   2.960   4.800   9.533 -0.5314  2.5085  1.0972
   70SLPC  C212 6032   3.039   4.790   9.336  0.0588 -0.0276 -0.3093
   70SLPC  H12R 6033   2.995   4.690   9.323 -0.1879  0.0676 -0.2138
   70SLPC  C213 6034   3.095   4.848   9.223  0.4771 -0.3944 -0.6381
   70SLPC  H13R 6035   3.069   4.812   9.122  1.8189 -0.7275 -0.8708
   70SLPC  C214 6036   3.173   4.979   9.213  0.6233 -0.5121  0.6548
   70SLPC  H14R 6037   3.264   4.955   9.154 -0.3981  2.1802 -2.1425
   70SLPC  H14S 6038   3.209   5.036   9.301  1.5798  1.4725 -0.9753
   70SLPC  C215 6039   3.089   5.077   9.121  0.9553  0.5974  0.1346
   70SLPC  H15R 6040   3.142   5.173   9.142  2.5392  0.0630 -1.2689
   70SLPC  H15S 6041   2.983   5.077   9.153  1.4862  0.5235  2.0041
   70SLPC  C216 6042   3.097   5.032   8.973 -0.4944  0.3734 -0.0082
   70SLPC  H16R 6043   3.025   4.949   8.959  0.9428 -0.7948 -0.5145
   70SLPC  H16S 6044   3.197   4.990   8.949 -0.9318 -0.6791  0.0242
   70SLPC  C217 6045   3.053   5.143   8.877 -0.3945 -0.1293  0.1038
   70SLPC  H17R 6046   3.101   5.240   8.903 -0.3096  0.3391 -1.7501
   70SLPC  H17S 6047   2.948   5.168   8.902  0.1366  4.0151 -1.3227
   70SLPC  C218 6048   3.085   5.115   8.735 -0.1536  0.2177  0.1485
   70SLPC  H18R 6049   3.176   5.050   8.732  0.1171  0.4232  2.5986
   70SLPC  H18S 6050   3.093   5.209   8.676  0.8994 -1.1631 -1.9943
   70SLPC  H18T 6051   3.002   5.055   8.692  0.6285 -0.8269  0.0620
   70SLPC   C33 6052   2.673   4.576  10.240 -0.2553 -0.4676 -0.9888
   70SLPC   H3X 6053   2.733   4.670  10.239  2.4485 -2.0329  1.9703
   70SLPC   H3Y 6054   2.608   4.579  10.330  0.7768 -0.3824 -0.2402
   70SLPC   C34 6055   2.582   4.562  10.115  0.1442 -0.2579  0.0127
   70SLPC   H4X 6056   2.515   4.650  10.102 -0.4440 -0.6352  0.5171
   70SLPC   H4Y 6057   2.512   4.476  10.118 -1.4668  1.0001 -0.7759
   70SLPC   C35 6058   2.666   4.562   9.987 -0.1089 -0.0220  0.0304
   70SLPC   H5X 6059   2.719   4.464   9.978  1.0646  0.6769 -0.9048
   70SLPC   H5Y 6060   2.742   4.642   9.978  0.4253 -0.4072  0.9708
   70SLPC   C36 6061   2.588   4.573   9.848  0.0187  0.3607 -0.3184
   70SLPC   H6X 6062   2.531   4.667   9.865  0.7849  0.8105 -0.2245
   70SLPC   H6Y 6063   2.511   4.493   9.843 -0.1159  0.4893 -0.3362
   70SLPC   C37 6064   2.671   4.584   9.712 -0.4337  0.6787 -0.5474
   70SLPC   H7X 6065   2.763   4.524   9.730 -0.7253  0.6729  0.9257
   70SLPC   H7Y 6066   2.699   4.691   9.709 -0.6932  0.7601 -0.0592
   70SLPC   C38 6067   2.605   4.553   9.578  0.2671  0.0826 -0.2809
   70SLPC   H8X 6068   2.517   4.620   9.566 -0.4295 -0.7772 -0.0485
   70SLPC   H8Y 6069   2.563   4.451   9.567 -1.7503  1.1139 -2.9237
   70SLPC   C39 6070   2.700   4.577   9.459  0.0880  0.4555  0.2162
   70SLPC   H9X 6071   2.746   4.678   9.468  1.2527 -0.1671  1.3961
   70SLPC   H9Y 6072   2.644   4.574   9.363  3.0231 -0.9397 -1.4940
   70SLPC  C310 6073   2.815   4.476   9.442 -0.9925 -0.2106  0.7569
   70SLPC  H10X 6074   2.851   4.435   9.539  2.8505  1.9623  0.3667
   70SLPC  H10Y 6075   2.904   4.528   9.401 -1.7741  1.3356  0.9789
   70SLPC  C311 6076   2.783   4.347   9.359  0.1634 -0.1092 -0.0029
   70SLPC  H11X 6077   2.826   4.363   9.258 -0.2168  0.9467 -0.0047
   70SLPC  H11Y 6078   2.674   4.333   9.342  0.2348  0.3106 -0.8033
   70SLPC  C312 6079   2.852   4.211   9.397  0.9149 -0.1667 -0.6045
   70SLPC  H12X 6080   2.958   4.218   9.432  0.5513  0.3567  0.4124
   70SLPC  H12Y 6081   2.852   4.154   9.302 -1.7150  1.7940 -1.8359
   70SLPC  C313 6082   2.773   4.126   9.501  0.4750  0.0881  0.4503
   70SLPC  H13X 6083   2.804   4.020   9.511 -0.4719 -0.2949 -0.6608
   70SLPC  H13Y 6084   2.668   4.123   9.465  0.2348 -1.8464  1.2600
   70SLPC  C314 6085   2.770   4.181   9.646  1.1454 -0.5307 -1.1172
   70SLPC  H14X 6086   2.718   4.279   9.635 -1.5646 -1.8038 -0.2674
   70SLPC  H14Y 6087   2.873   4.196   9.685  0.0788 -1.3052  2.2365
   70SLPC  C315 6088   2.684   4.097   9.740 -0.0798  0.6865 -0.1613
   70SLPC  H15X 6089   2.744   4.008   9.767 -1.2160 -0.3189 -0.8914
   70SLPC  H15Y 6090   2.594   4.080   9.676  0.5517  0.8930 -1.1175
   70SLPC  C316 6091   2.640   4.173   9.865 -0.0302  0.4387 -0.2837
   70SLPC  H16X 6092   2.585   4.269   9.858 -1.2479 -0.1346  1.0763
   70SLPC  H16Y 6093   2.732   4.204   9.920 -0.4385 -0.2233  0.7994
   70SLPC  C317 6094   2.547   4.091   9.951 -0.7345  0.5131 -0.4946
   70SLPC  H17X 6095   2.596   3.991   9.955  0.8252  1.3005  0.7609
   70SLPC  H17Y 6096   2.450   4.071   9.902 -0.4642  0.3662 -0.9721
   70SLPC  C318 6097   2.522   4.153  10.085 -0.0041  0.8858  0.1408
   70SLPC  H18X 6098   2.616   4.195  10.127  1.0617 -1.8855  0.6192
   70SLPC  H18Y 6099   2.488   4.075  10.157 -2.1984  1.9600  0.3295
   70SLPC  H18Z 6100   2.448   4.236  10.085 -0.6044  0.3523 -0.2722
   71SLPC     N 6101   1.957   3.766  10.988 -0.4287 -0.5060 -0.3526
   71SLPC   C13 6102   1.808   3.770  10.967  0.4382  0.2178  0.1356
   71SLPC  H13A 6103   1.788   3.700  10.888  2.6665  1.3163 -1.4617
   71SLPC  H13B 6104   1.754   3.738  11.055  1.8894 -1.1116  0.5774
   71SLPC  H13C 6105   1.773   3.871  10.956 -1.7607 -0.6513 -1.1208
   71SLPC   C14 6106   1.996   3.627  11.027 -0.8213 -0.3764  0.0048
   71SLPC  H14A 6107   2.103   3.624  11.013 -0.7883 -1.4143  0.4088
   71SLPC  H14B 6108   1.965   3.607  11.128 -1.3902  2.2194  0.3623
   71SLPC  H14C 6109   1.951   3.564  10.952 -0.7931  0.2439 -0.5340
   71SLPC   C15 6110   2.003   3.861  11.096  0.1530  0.6163  0.2337
   71SLPC  H15A 6111   2.111   3.864  11.100  0.2592 -1.1141 -1.0849
   71SLPC  H15B 6112   1.963   3.958  11.070 -0.9647 -0.2454 -1.3408
   71SLPC  H15C 6113   1.958   3.843  11.193  0.6360 -1.7494  0.0357
   71SLPC   C12 6114   2.027   3.803  10.859 -0.4735  0.1983 -0.3266
   71SLPC  H12A 6115   2.134   3.811  10.871 -0.6437  4.0179 -0.5824
   71SLPC  H12B 6116   1.985   3.900  10.834 -2.6999 -0.9336 -1.1061
   71SLPC   C11 6117   2.006   3.712  10.737  0.1485  0.0297 -0.3322
   71SLPC  H11A 6118   2.034   3.767  10.645  0.5841 -0.1761 -0.3200
   71SLPC  H11B 6119   1.897   3.692  10.735 -0.4839  2.8160  2.2327
   71SLPC     P 6120   2.232   3.587  10.708 -0.0046  0.1140 -0.0851
   71SLPC   O13 6121   2.301   3.713  10.743  0.3752  0.0497 -0.4999
   71SLPC   O14 6122   2.300   3.471  10.760 -0.4008  0.6015 -0.6973
   71SLPC   O12 6123   2.085   3.598  10.751  0.2196 -0.3158 -0.4289
   71SLPC   O11 6124   2.227   3.584  10.553  0.3252  0.3007 -0.6005
   71SLPC    C1 6125   2.117   3.525  10.482 -1.0766 -0.2490  0.5738
   71SLPC    HA 6126   2.170   3.439  10.435  1.5245  1.3033  0.6354
   71SLPC    HB 6127   2.035   3.482  10.545 -0.2638 -1.3667  0.8894
   71SLPC    C2 6128   2.058   3.611  10.370  0.0675 -0.3306  0.7434
   71SLPC    HS 6129   1.956   3.629  10.410 -0.4794 -0.5260 -0.5643
   71SLPC   O21 6130   2.052   3.524  10.253  0.4863 -0.0552 -0.6374
   71SLPC   C21 6131   1.948   3.441  10.248  0.2886  0.2548  0.5929
   71SLPC   O22 6132   1.873   3.422  10.338  0.4786  0.6018  0.1651
   71SLPC   C22 6133   1.944   3.367  10.114  0.1741 -0.1511  0.2294
   71SLPC   H2R 6134   2.039   3.310  10.114  1.2623  1.6397 -0.9050
   71SLPC   H2S 6135   1.854   3.301  10.113  0.2604 -0.2577 -0.9950
   71SLPC    C3 6136   2.139   3.736  10.343  0.6751  0.2314  0.9667
   71SLPC    HX 6137   2.242   3.708  10.312 -0.0550  1.5781 -3.0753
   71SLPC    HY 6138   2.142   3.794  10.438  1.6783  1.5994  0.1278
   71SLPC   O31 6139   2.072   3.822  10.245 -0.5776  0.1522  0.2851
   71SLPC   C31 6140   2.148   3.860  10.140  0.1142  0.0608  0.2107
   71SLPC   O32 6141   2.259   3.810  10.119 -0.7714 -0.2335  0.1095
   71SLPC   C32 6142   2.085   3.973  10.057 -0.3309  0.5600 -0.2674
   71SLPC   H2X 6143   2.136   4.068  10.084  1.8420 -0.8627  0.7483
   71SLPC   H2Y 6144   1.974   3.968  10.068 -0.6448 -1.6841 -3.6130
   71SLPC   C23 6145   1.968   3.441   9.979 -0.2684  0.4722  0.6423
   71SLPC   H3R 6146   2.055   3.508   9.994 -0.3515  0.9353 -0.8492
   71SLPC   H3S 6147   1.876   3.497   9.952 -0.8245 -0.9616 -0.4926
   71SLPC   C24 6148   2.007   3.335   9.872  0.3679  0.5949 -0.3288
   71SLPC   H4R 6149   2.099   3.282   9.904  1.1430  1.6421 -0.7890
   71SLPC   H4S 6150   2.053   3.390   9.788  2.0414  1.0057  0.8178
   71SLPC   C25 6151   1.891   3.246   9.834  0.3629 -0.2797 -0.2410
   71SLPC   H5R 6152   1.795   3.299   9.815 -0.2121 -1.4852 -0.7104
   71SLPC   H5S 6153   1.872   3.173   9.916 -0.7200  2.0123  1.6184
   71SLPC   C26 6154   1.929   3.178   9.703  0.0787 -0.8805 -0.1146
   71SLPC   H6R 6155   1.884   3.077   9.688  2.0252 -2.1610  2.2636
   71SLPC   H6S 6156   2.038   3.166   9.683  0.1727 -0.9139  0.3996
   71SLPC   C27 6157   1.863   3.250   9.581 -0.3564 -0.2397  0.2846
   71SLPC   H7R 6158   1.911   3.350   9.576  0.8645 -0.8198  0.1519
   71SLPC   H7S 6159   1.754   3.264   9.596 -0.6390 -1.2960 -0.6998
   71SLPC   C28 6160   1.874   3.172   9.443  0.3211  0.2154 -0.0688
   71SLPC   H8R 6161   1.857   3.064   9.467 -0.4237  0.4845  0.6168
   71SLPC   H8S 6162   1.978   3.172   9.405  0.4542  1.1305  0.2945
   71SLPC   C29 6163   1.782   3.227   9.336  0.4768 -0.2738  0.2676
   71SLPC   H9R 6164   1.751   3.332   9.343  1.1744 -0.1827  2.2328
   71SLPC  C210 6165   1.758   3.174   9.209 -0.0140  0.4263 -0.7378
   71SLPC  H10R 6166   1.692   3.237   9.148  0.9964  0.2084 -2.0893
   71SLPC  C211 6167   1.802   3.049   9.141  0.3092  0.2355 -0.4646
   71SLPC  H11R 6168   1.910   3.040   9.169 -0.6981 -1.9481  3.1795
   71SLPC  H11S 6169   1.806   3.063   9.031  0.0847  2.4962 -0.2147
   71SLPC  C212 6170   1.718   2.929   9.191  0.5918 -0.5254  0.4471
   71SLPC  H12R 6171   1.676   2.950   9.291 -3.1807 -1.1676 -0.9167
   71SLPC  C213 6172   1.691   2.812   9.133 -0.3406 -0.3814 -0.0406
   71SLPC  H13R 6173   1.627   2.738   9.184 -1.5798 -0.0068 -1.0214
   71SLPC  C214 6174   1.739   2.764   8.997 -0.6881  0.2825  0.4407
   71SLPC  H14R 6175   1.769   2.658   9.004 -0.0772  0.4297  0.0878
   71SLPC  H14S 6176   1.822   2.823   8.952  0.7645 -1.4228  0.8293
   71SLPC  C215 6177   1.631   2.762   8.888 -0.3613  0.0644  0.0798
   71SLPC  H15R 6178   1.687   2.745   8.794  0.5163  2.8604  0.0528
   71SLPC  H15S 6179   1.587   2.860   8.857 -2.2514 -0.8739 -0.2929
   71SLPC  C216 6180   1.522   2.656   8.909  0.0715 -0.6777  0.2200
   71SLPC  H16R 6181   1.420   2.700   8.913 -0.5677 -2.2233  1.4438
   71SLPC  H16S 6182   1.541   2.598   9.002  0.2512 -1.3171 -0.2140
   71SLPC  C217 6183   1.522   2.561   8.787  0.5009  0.3360  0.0543
   71SLPC  H17R 6184   1.627   2.530   8.767  0.1786 -0.8216  0.1169
   71SLPC  H17S 6185   1.506   2.625   8.698  1.3322 -3.4508 -2.9772
   71SLPC  C218 6186   1.422   2.440   8.769 -0.3945  0.3720  0.7692
   71SLPC  H18R 6187   1.424   2.377   8.861 -1.5858  1.8760  1.8533
   71SLPC  H18S 6188   1.441   2.383   8.676 -1.4030  1.1098  0.1048
   71SLPC  H18T 6189   1.318   2.475   8.755 -1.2588 -2.7675 -1.0544
   71SLPC   C33 6190   2.130   3.945   9.913 -0.0244 -0.3067 -0.0652
   71SLPC   H3X 6191   2.240   3.933   9.919 -0.1427 -1.0172  0.9311
   71SLPC   H3Y 6192   2.099   4.037   9.859  0.1985  0.1718  0.6155
   71SLPC   C34 6193   2.071   3.823   9.853  0.1366  0.4128  0.7170
   71SLPC   H4X 6194   1.960   3.822   9.859 -0.1874 -1.8997 -3.6666
   71SLPC   H4Y 6195   2.112   3.728   9.894  0.1442 -0.4412 -1.2320
   71SLPC   C35 6196   2.086   3.830   9.704  0.0685  0.0895  0.5390
   71SLPC   H5X 6197   2.186   3.871   9.681  0.1621 -1.3055 -1.7765
   71SLPC   H5Y 6198   1.994   3.876   9.664  0.2796  0.8341  0.9103
   71SLPC   C36 6199   2.099   3.685   9.649  0.3460  0.5891  0.0620
   71SLPC   H6X 6200   2.003   3.633   9.671 -0.0556  0.4136 -1.9377
   71SLPC   H6Y 6201   2.185   3.629   9.690 -0.9808 -1.6724 -0.1449
   71SLPC   C37 6202   2.114   3.678   9.490  0.1502 -0.7199  0.5716
   71SLPC   H7X 6203   2.203   3.728   9.446 -2.5774  1.2806 -3.0288
   71SLPC   H7Y 6204   2.020   3.710   9.439 -0.4919  2.0307  3.3288
   71SLPC   C38 6205   2.139   3.537   9.441  0.4214 -0.2279  0.0115
   71SLPC   H8X 6206   2.043   3.483   9.452 -0.1045  0.8215  0.7325
   71SLPC   H8Y 6207   2.205   3.495   9.520 -0.7124 -1.7532  0.1715
   71SLPC   C39 6208   2.195   3.517   9.298 -0.2673 -0.5728  0.6181
   71SLPC   H9X 6209   2.280   3.587   9.283 -0.7773 -0.1684 -0.4952
   71SLPC   H9Y 6210   2.109   3.551   9.236 -0.8137 -0.9626  1.1478
   71SLPC  C310 6211   2.210   3.365   9.249  0.7961 -1.5597 -0.0988
   71SLPC  H10X 6212   2.135   3.302   9.302  0.2239 -0.7721  0.0316
   71SLPC  H10Y 6213   2.313   3.335   9.279  1.4252  1.2486  0.6673
   71SLPC  C311 6214   2.197   3.361   9.096 -0.3951 -0.6235 -0.0114
   71SLPC  H11X 6215   2.243   3.448   9.045 -0.3322 -3.5490 -5.2790
   71SLPC  H11Y 6216   2.088   3.366   9.073  0.0341 -0.2774 -2.0646
   71SLPC  C312 6217   2.253   3.241   9.033  0.1973  0.7366  0.1994
   71SLPC  H12X 6218   2.196   3.153   9.067 -2.2842  1.5923 -1.6142
   71SLPC  H12Y 6219   2.360   3.229   9.061 -0.5435 -2.9114  1.7405
   71SLPC  C313 6220   2.234   3.246   8.886  0.3266  0.5137  0.2576
   71SLPC  H13X 6221   2.141   3.298   8.855  0.5201  1.3362  1.0491
   71SLPC  H13Y 6222   2.242   3.141   8.849 -2.2369  0.9435 -1.6759
   71SLPC  C314 6223   2.361   3.314   8.821  0.6538 -0.0919 -0.1536
   71SLPC  H14X 6224   2.447   3.263   8.870  0.1214 -2.2472 -1.3870
   71SLPC  H14Y 6225   2.358   3.420   8.854 -1.3163 -0.5935  1.3590
   71SLPC  C315 6226   2.366   3.304   8.663 -0.1928 -0.3724  0.7054
   71SLPC  H15X 6227   2.452   3.363   8.626  0.6074 -1.2819  1.1076
   71SLPC  H15Y 6228   2.264   3.334   8.628  0.6372  0.6486 -0.9021
   71SLPC  C316 6229   2.395   3.160   8.610  0.2596  0.1162 -0.1356
   71SLPC  H16X 6230   2.318   3.089   8.646  0.2679  0.3058  0.2533
   71SLPC  H16Y 6231   2.490   3.114   8.646 -1.0347 -2.1771  0.4683
   71SLPC  C317 6232   2.408   3.151   8.457  0.1423 -0.5877  0.3667
   71SLPC  H17X 6233   2.436   3.045   8.442  1.1389 -0.4609  1.2736
   71SLPC  H17Y 6234   2.496   3.212   8.428 -0.6015  0.8592  1.0668
   71SLPC  C318 6235   2.281   3.186   8.393 -0.4819  0.3168 -0.4793
   71SLPC  H18X 6236   2.254   3.293   8.400 -1.2690 -0.0211  2.1583
   71SLPC  H18Y 6237   2.201   3.120   8.435 -0.6116 -0.7270 -2.3389
   71SLPC  H18Z 6238   2.290   3.167   8.284 -4.0442 -2.0991 -0.4647
   72SLPC     N 6239   3.285   1.392  10.913 -0.0138 -0.2355  0.1241
   72SLPC   C13 6240   3.192   1.391  10.797 -0.5297  0.0575  0.1043
   72SLPC  H13A 6241   3.092   1.413  10.830  0.3178  2.2116  1.3387
   72SLPC  H13B 6242   3.207   1.472  10.727  0.6750 -0.0245  0.2609
   72SLPC  H13C 6243   3.195   1.303  10.734  1.8298 -0.8662  1.4388
   72SLPC   C14 6244   3.246   1.275  10.997  0.6050 -0.3981  0.3726
   72SLPC  H14A 6245   3.311   1.273  11.083  0.1331  0.0585  0.7443
   72SLPC  H14B 6246   3.144   1.276  11.033  0.3474  2.6319 -0.3648
   72SLPC  H14C 6247   3.261   1.181  10.946  0.2673 -0.2141 -0.0634
   72SLPC   C15 6248   3.259   1.509  10.993 -0.4674 -0.1344 -0.4853
   72SLPC  H15A 6249   3.307   1.517  11.090 -0.1405 -1.7863 -0.4892
   72SLPC  H15B 6250   3.285   1.591  10.928 -0.3781 -0.9826 -1.5359
   72SLPC  H15C 6251   3.155   1.527  11.014 -0.3396 -2.4732  2.5237
   72SLPC   C12 6252   3.429   1.377  10.860  0.8091  0.2944  0.2751
   72SLPC  H12A 6253   3.440   1.282  10.809 -0.4644  0.1327  0.2831
   72SLPC  H12B 6254   3.498   1.367  10.942 -0.5640  2.7738  1.8047
   72SLPC   C11 6255   3.489   1.482  10.773  0.3907  0.6823 -0.5335
   72SLPC  H11A 6256   3.417   1.505  10.692  0.4593  2.3654 -0.1232
   72SLPC  H11B 6257   3.585   1.447  10.731 -0.2916  0.3560 -1.8549
   72SLPC     P 6258   3.528   1.738  10.802 -0.3514  0.2063  0.3668
   72SLPC   O13 6259   3.628   1.813  10.882 -0.1525 -0.2754  0.2562
   72SLPC   O14 6260   3.572   1.733  10.662  0.0279 -0.0935 -0.1753
   72SLPC   O12 6261   3.514   1.598  10.858 -0.2280  0.2199 -0.1280
   72SLPC   O11 6262   3.381   1.798  10.818  0.3437 -0.0519 -0.2542
   72SLPC    C1 6263   3.279   1.784  10.724 -0.5491  0.1273 -0.2403
   72SLPC    HA 6264   3.302   1.707  10.647 -0.4837  0.0035 -0.0972
   72SLPC    HB 6265   3.187   1.744  10.772  0.6071 -2.8634 -0.4195
   72SLPC    C2 6266   3.234   1.910  10.652  0.8946 -0.4550  0.0698
   72SLPC    HS 6267   3.155   1.886  10.578  0.7361 -0.1535  0.1375
   72SLPC   O21 6268   3.339   1.989  10.587  0.3591 -0.0208 -0.0523
   72SLPC   C21 6269   3.380   1.940  10.469  0.5383  0.9027 -0.2537
   72SLPC   O22 6270   3.329   1.853  10.404  0.1808  0.0993  0.0967
   72SLPC   C22 6271   3.501   2.020  10.423  0.1679  0.9902  1.2735
   72SLPC   H2R 6272   3.473   2.128  10.420 -0.8447  0.6826 -2.9907
   72SLPC   H2S 6273   3.581   1.998  10.497  1.0737 -0.4081 -0.1073
   72SLPC    C3 6274   3.159   1.997  10.757  0.1211  0.1956  0.0182
   72SLPC    HX 6275   3.224   2.048  10.831 -1.1471  0.6700  0.8011
   72SLPC    HY 6276   3.100   1.929  10.822  3.6193 -1.3524  1.6838
   72SLPC   O31 6277   3.072   2.084  10.683  0.2735 -0.4467 -0.7360
   72SLPC   C31 6278   3.094   2.216  10.686 -0.1166 -0.6764  0.0750
   72SLPC   O32 6279   3.184   2.266  10.749 -0.8276 -1.0205  0.2251
   72SLPC   C32 6280   2.999   2.289  10.593  0.3122  0.7269 -0.1438
   72SLPC   H2X 6281   2.980   2.390  10.635  2.5399  0.3982  1.7652
   72SLPC   H2Y 6282   2.904   2.233  10.586  1.2156 -1.0112  0.9728
   72SLPC   C23 6283   3.560   1.980  10.284  0.2483  0.3638 -0.1735
   72SLPC   H3R 6284   3.600   1.877  10.289  0.2604  0.4536  3.3398
   72SLPC   H3S 6285   3.649   2.046  10.270 -0.2564  1.4245  1.4361
   72SLPC   C24 6286   3.473   1.996  10.155  0.8815  0.3522 -0.4240
   72SLPC   H4R 6287   3.432   2.099  10.152  1.0165  0.5943  3.3084
   72SLPC   H4S 6288   3.386   1.928  10.154 -0.6926  2.2741  1.3588
   72SLPC   C25 6289   3.548   1.971  10.020 -0.9586  0.3782  0.4124
   72SLPC   H5R 6290   3.545   1.862   9.999  0.1960  0.2411  0.8584
   72SLPC   H5S 6291   3.655   2.001  10.031 -0.3125 -1.7393  0.3225
   72SLPC   C26 6292   3.479   2.046   9.904  0.1128  0.3843 -0.3802
   72SLPC   H6R 6293   3.471   2.152   9.937  0.3326  0.4344 -0.4941
   72SLPC   H6S 6294   3.376   2.007   9.888 -0.5537  1.7678  0.4055
   72SLPC   C27 6295   3.557   2.041   9.772  0.0452  0.4003 -0.1773
   72SLPC   H7R 6296   3.659   2.074   9.803  2.0495 -2.5545 -3.3283
   72SLPC   H7S 6297   3.513   2.101   9.690  1.8779  2.7594  0.4853
   72SLPC   C28 6298   3.571   1.903   9.703 -0.0111  0.1669 -0.1726
   72SLPC   H8R 6299   3.474   1.879   9.653  1.0766 -3.6479 -0.6524
   72SLPC   H8S 6300   3.585   1.814   9.768  0.4445 -0.9903 -1.8163
   72SLPC   C29 6301   3.686   1.911   9.605 -0.5973 -0.4525  0.1855
   72SLPC   H9R 6302   3.784   1.918   9.653  0.2727  2.1163 -1.8718
   72SLPC  C210 6303   3.688   1.908   9.469  0.4565  0.3448  0.2783
   72SLPC  H10R 6304   3.779   1.946   9.422  1.1933  0.4705  1.7579
   72SLPC  C211 6305   3.571   1.895   9.380 -0.1500  0.1736 -0.2081
   72SLPC  H11R 6306   3.512   1.802   9.396 -1.5833  0.9796 -0.6712
   72SLPC  H11S 6307   3.610   1.872   9.278  3.3151 -2.7366  1.6707
   72SLPC  C212 6308   3.475   2.010   9.376  0.0246 -0.0082 -0.1130
   72SLPC  H12R 6309   3.471   2.088   9.454  1.2833 -1.6705  1.6420
   72SLPC  C213 6310   3.396   2.023   9.272  0.2246  0.1202  0.0660
   72SLPC  H13R 6311   3.331   2.111   9.270  1.6561  1.2303  1.5346
   72SLPC  C214 6312   3.384   1.936   9.149  0.6231  0.1103 -0.2671
   72SLPC  H14R 6313   3.312   1.854   9.170  1.3242 -0.3194  0.4988
   72SLPC  H14S 6314   3.477   1.885   9.117  0.0171 -0.0202 -1.8407
   72SLPC  C215 6315   3.313   2.019   9.034 -0.5738  0.2453  0.0261
   72SLPC  H15R 6316   3.220   2.061   9.076  0.0389  0.4742  1.1587
   72SLPC  H15S 6317   3.292   1.947   8.952 -0.2203 -0.3501  0.4528
   72SLPC  C216 6318   3.404   2.135   8.973  0.3093  0.0720 -0.3609
   72SLPC  H16R 6319   3.419   2.211   9.053  0.8217 -0.1837 -0.2114
   72SLPC  H16S 6320   3.333   2.179   8.901  0.4265  0.1423 -0.4357
   72SLPC  C217 6321   3.529   2.086   8.900  0.1643 -0.0442  0.2525
   72SLPC  H17R 6322   3.498   2.008   8.827  1.0878 -0.6295  0.4816
   72SLPC  H17S 6323   3.610   2.047   8.965  1.4679  0.2252 -1.1995
   72SLPC  C218 6324   3.606   2.197   8.824  0.9363  0.4632 -0.1619
   72SLPC  H18R 6325   3.569   2.200   8.720  2.0563  0.7291 -0.5527
   72SLPC  H18S 6326   3.712   2.172   8.803  0.5098 -1.6098  0.0477
   72SLPC  H18T 6327   3.603   2.293   8.881  0.5270 -0.3780  1.2706
   72SLPC   C33 6328   3.055   2.304  10.449 -0.1802  0.1534 -0.2453
   72SLPC   H3X 6329   3.141   2.374  10.436  0.1204  0.0518  1.1494
   72SLPC   H3Y 6330   2.970   2.359  10.402 -0.2844 -0.0413 -0.2819
   72SLPC   C34 6331   3.101   2.177  10.381 -0.3004  0.6227 -0.1615
   72SLPC   H4X 6332   3.027   2.097  10.402 -0.0011  1.0116  2.5358
   72SLPC   H4Y 6333   3.197   2.131  10.413  0.3279  2.2952  0.3982
   72SLPC   C35 6334   3.111   2.184  10.222  0.1369  0.7819 -0.3649
   72SLPC   H5X 6335   3.216   2.151  10.208 -0.5774 -2.0344  0.4623
   72SLPC   H5Y 6336   3.090   2.287  10.187  0.7964  1.2696  0.6586
   72SLPC   C36 6337   3.011   2.094  10.154  0.0820  0.3404 -0.2698
   72SLPC   H6X 6338   2.907   2.130  10.167  0.4974  1.7986 -0.8494
   72SLPC   H6Y 6339   3.028   1.989  10.186 -3.3828 -0.4419 -0.7783
   72SLPC   C37 6340   3.037   2.084  10.004  0.5343  0.0443  0.7602
   72SLPC   H7X 6341   3.141   2.046   9.989  0.3186 -0.6042  0.8814
   72SLPC   H7Y 6342   3.037   2.193   9.985  2.1004 -0.0154  0.3163
   72SLPC   C38 6343   2.935   1.998   9.923  0.4525  1.2590 -0.2802
   72SLPC   H8X 6344   2.838   2.026   9.968 -0.8577 -2.4467 -0.6399
   72SLPC   H8Y 6345   2.952   1.889   9.940  1.2868  1.6397  1.4155
   72SLPC   C39 6346   2.935   2.030   9.767 -0.1727  0.3926 -0.3776
   72SLPC   H9X 6347   2.912   2.138   9.752  2.1006  1.0361  0.5433
   72SLPC   H9Y 6348   2.853   1.975   9.715 -0.0028  1.1452 -1.4743
   72SLPC  C310 6349   3.070   2.009   9.699  0.0661 -0.0039  1.3437
   72SLPC  H10X 6350   3.078   1.900   9.680  0.0818  0.3732 -0.9868
   72SLPC  H10Y 6351   3.159   2.026   9.763  0.9653  1.3316 -0.2265
   72SLPC  C311 6352   3.075   2.074   9.557  0.0858 -0.7789 -0.7223
   72SLPC  H11X 6353   3.176   2.046   9.521  0.2590 -1.0334 -0.0417
   72SLPC  H11Y 6354   3.090   2.183   9.574 -0.9840 -0.7127 -0.1837
   72SLPC  C312 6355   2.960   2.050   9.455  0.3488  0.0704 -0.8232
   72SLPC  H12X 6356   2.874   2.105   9.499  1.3550  0.7305  0.3210
   72SLPC  H12Y 6357   2.939   1.941   9.443 -1.7914  0.4240 -0.4591
   72SLPC  C313 6358   2.990   2.099   9.308  1.1340 -0.2616  0.2836
   72SLPC  H13X 6359   3.078   2.046   9.267  1.4964  0.0762  0.6199
   72SLPC  H13Y 6360   3.006   2.209   9.311 -1.6868  0.2594 -1.0817
   72SLPC  C314 6361   2.866   2.077   9.227  0.0515  0.0171  0.3919
   72SLPC  H14X 6362   2.822   2.178   9.211 -1.6719 -0.6843  0.6134
   72SLPC  H14Y 6363   2.784   2.024   9.279 -0.2839 -2.3465 -2.4411
   72SLPC  C315 6364   2.883   1.999   9.096 -0.1299  0.1892  0.8977
   72SLPC  H15X 6365   2.919   1.898   9.125 -0.8205 -0.8996 -1.8690
   72SLPC  H15Y 6366   2.977   2.042   9.058 -0.0621 -1.6228 -1.1218
   72SLPC  C316 6367   2.774   2.011   8.989  0.1347 -0.1327 -1.0740
   72SLPC  H16X 6368   2.748   2.119   8.977  1.7262  0.1460 -2.1427
   72SLPC  H16Y 6369   2.678   1.960   9.013  0.2664  1.4434  3.1992
   72SLPC  C317 6370   2.825   1.971   8.848 -0.2625 -0.3251  0.3637
   72SLPC  H17X 6371   2.869   1.870   8.864 -0.3233 -0.4719 -0.4009
   72SLPC  H17Y 6372   2.911   2.038   8.826  0.1409 -1.3233 -1.1249
   72SLPC  C318 6373   2.718   1.972   8.738 -0.3516 -0.3478  0.0036
   72SLPC  H18X 6374   2.669   2.071   8.728 -0.7258 -0.5662 -0.3407
   72SLPC  H18Y 6375   2.634   1.904   8.765  1.3018 -1.9372  1.3056
   72SLPC  H18Z 6376   2.771   1.956   8.642 -1.0363  1.8829 -0.7867
   73SLPC     N 6377   3.876   0.238  11.210 -0.7522  0.2902  0.0333
   73SLPC   C13 6378   3.877   0.368  11.294  0.7444 -0.0732  0.0125
   73SLPC  H13A 6379   3.780   0.415  11.298 -0.6721 -2.9029  0.6029
   73SLPC  H13B 6380   3.906   0.332  11.392  2.0299 -0.0867 -0.3764
   73SLPC  H13C 6381   3.949   0.441  11.260  0.4814  0.4225  0.5112
   73SLPC   C14 6382   3.775   0.140  11.269 -0.4756 -0.0963 -0.2811
   73SLPC  H14A 6383   3.772   0.045  11.218  1.4475 -2.0741  3.1445
   73SLPC  H14B 6384   3.798   0.107  11.369  4.1874 -0.0292 -1.2384
   73SLPC  H14C 6385   3.680   0.190  11.280 -1.1721 -1.3898 -0.4040
   73SLPC   C15 6386   4.006   0.173  11.217  0.1037  0.1791  0.5603
   73SLPC  H15A 6387   4.030   0.158  11.321 -1.6926  1.6910  1.2251
   73SLPC  H15B 6388   4.012   0.085  11.154  2.1008  1.3177 -0.9068
   73SLPC  H15C 6389   4.080   0.234  11.167  1.0917 -1.2578  0.2344
   73SLPC   C12 6390   3.843   0.263  11.065  0.0688 -0.0574  0.3569
   73SLPC  H12A 6391   3.745   0.306  11.056 -0.0460 -0.4216 -0.1481
   73SLPC  H12B 6392   3.852   0.166  11.018  0.5808 -0.7448  1.8444
   73SLPC   C11 6393   3.937   0.364  11.001  0.0032  0.2921  0.7099
   73SLPC  H11A 6394   4.041   0.330  11.020 -0.0134 -0.1439  0.0239
   73SLPC  H11B 6395   3.937   0.464  11.050  0.8704 -0.3354  2.0223
   73SLPC     P 6396   3.785   0.450  10.797  0.0821  0.2576 -0.4210
   73SLPC   O13 6397   3.759   0.565  10.884  0.3709  0.0035 -0.6172
   73SLPC   O14 6398   3.814   0.479  10.657 -0.0170 -0.2019  0.5103
   73SLPC   O12 6399   3.903   0.372  10.866  0.1458 -0.0458  0.1210
   73SLPC   O11 6400   3.670   0.346  10.816 -0.4761  0.2509 -0.2389
   73SLPC    C1 6401   3.671   0.221  10.754 -0.5060  0.0118 -0.0491
   73SLPC    HA 6402   3.771   0.174  10.762  0.3347  1.7896  0.3348
   73SLPC    HB 6403   3.598   0.154  10.804 -2.1655  0.2317 -2.0804
   73SLPC    C2 6404   3.625   0.226  10.609 -0.1862 -0.2686 -0.1695
   73SLPC    HS 6405   3.673   0.310  10.555 -2.0066  0.5323 -0.6019
   73SLPC   O21 6406   3.477   0.241  10.598 -0.2362 -0.0368  0.4432
   73SLPC   C21 6407   3.427   0.355  10.548  0.1176  0.3220 -0.7638
   73SLPC   O22 6408   3.484   0.456  10.530 -0.5481 -0.3729  0.0028
   73SLPC   C22 6409   3.269   0.341  10.534 -0.1595 -0.6488 -0.1943
   73SLPC   H2R 6410   3.234   0.236  10.545 -1.0276 -0.2394  1.0392
   73SLPC   H2S 6411   3.244   0.392  10.629 -1.5620  0.9032 -1.3487
   73SLPC    C3 6412   3.674   0.105  10.527 -0.8394  0.4578 -0.0465
   73SLPC    HX 6413   3.643   0.006  10.567  0.4077 -0.3277 -0.9949
   73SLPC    HY 6414   3.785   0.108  10.531 -0.9226  1.8419  1.5190
   73SLPC   O31 6415   3.620   0.109  10.391  0.4476 -0.7406  0.4297
   73SLPC   C31 6416   3.654   0.216  10.319 -0.0552 -0.2991  0.4237
   73SLPC   O32 6417   3.746   0.290  10.331 -0.5456  0.2201 -0.4623
   73SLPC   C32 6418   3.554   0.207  10.201 -0.5808  0.0890  0.2085
   73SLPC   H2X 6419   3.450   0.198  10.239 -0.2974  0.2915  1.0422
   73SLPC   H2Y 6420   3.582   0.107  10.160  1.0027 -0.6104  2.8311
   73SLPC   C23 6421   3.214   0.425  10.414 -0.0297 -1.0676  0.1442
   73SLPC   H3R 6422   3.275   0.516  10.400 -1.8007  0.0367 -0.5212
   73SLPC   H3S 6423   3.119   0.477  10.437  1.1364  0.7771  0.9141
   73SLPC   C24 6424   3.187   0.344  10.280 -0.2550  0.1229 -0.7677
   73SLPC   H4R 6425   3.279   0.308  10.230  0.5753  0.0805  0.7499
   73SLPC   H4S 6426   3.145   0.413  10.204  0.3878  1.5682  0.1538
   73SLPC   C25 6427   3.090   0.224  10.296  0.3325 -0.3709  0.4786
   73SLPC   H5R 6428   3.000   0.261  10.349  0.4265  0.6947 -0.1033
   73SLPC   H5S 6429   3.133   0.151  10.368  1.7869  0.1297  0.1246
   73SLPC   C26 6430   3.058   0.140  10.173  0.1479 -0.9822  0.4429
   73SLPC   H6R 6431   2.989   0.058  10.202 -0.0232 -1.2258 -0.6125
   73SLPC   H6S 6432   3.152   0.102  10.128 -1.6982 -2.6364 -2.1957
   73SLPC   C27 6433   2.999   0.220  10.054  1.0891 -0.0558  0.2234
   73SLPC   H7R 6434   3.073   0.293  10.017 -1.4897  2.0848 -0.9360
   73SLPC   H7S 6435   2.914   0.276  10.099  0.3396 -0.6552 -0.4127
   73SLPC   C28 6436   2.931   0.150   9.928 -0.5535  0.7417 -0.0559
   73SLPC   H8R 6437   2.890   0.221   9.853 -0.9851  0.3594 -0.1830
   73SLPC   H8S 6438   2.837   0.096   9.954  0.5078 -1.1011  0.0011
   73SLPC   C29 6439   3.023   0.058   9.864 -0.5872  0.6034 -0.6186
   73SLPC   H9R 6440   3.058  -0.024   9.929 -0.9930  1.4646  0.7211
   73SLPC  C210 6441   3.085   0.075   9.747  0.1830  0.1441  0.1767
   73SLPC  H10R 6442   3.158   0.002   9.709 -0.9513 -0.0443 -1.6584
   73SLPC  C211 6443   3.063   0.185   9.647  0.2207  0.1216  0.1418
   73SLPC  H11R 6444   3.165   0.227   9.631  0.6261 -1.3206 -1.0716
   73SLPC  H11S 6445   2.995   0.268   9.676 -1.7807 -1.5388  0.2556
   73SLPC  C212 6446   3.007   0.130   9.512  0.6342  0.5571  0.1545
   73SLPC  H12R 6447   2.899   0.111   9.510  0.7528  0.0246 -3.6699
   73SLPC  C213 6448   3.075   0.126   9.395  0.1781  0.1190  0.5536
   73SLPC  H13R 6449   3.019   0.096   9.304 -0.0514  2.2823 -0.0486
   73SLPC  C214 6450   3.217   0.167   9.363 -0.2800  0.5913 -0.6234
   73SLPC  H14R 6451   3.293   0.126   9.433 -1.8434 -0.5108  0.4487
   73SLPC  H14S 6452   3.229   0.274   9.390 -0.1227  0.5239 -0.4227
   73SLPC  C215 6453   3.269   0.164   9.218 -0.0535  1.0966  0.0246
   73SLPC  H15R 6454   3.272   0.061   9.177  1.2874 -0.0932  2.9018
   73SLPC  H15S 6455   3.373   0.204   9.219 -0.1770  1.4147 -0.2063
   73SLPC  C216 6456   3.178   0.245   9.121  1.0800 -0.2294 -0.5255
   73SLPC  H16R 6457   3.188   0.350   9.153  0.7023 -0.7237  1.2592
   73SLPC  H16S 6458   3.076   0.203   9.128  1.0176 -0.1582 -0.9478
   73SLPC  C217 6459   3.219   0.239   8.976 -0.5901  0.5791  1.4946
   73SLPC  H17R 6460   3.145   0.306   8.928 -0.8304 -1.8298 -1.6333
   73SLPC  H17S 6461   3.209   0.135   8.938  1.4877  1.2578 -1.0510
   73SLPC  C218 6462   3.360   0.292   8.955  0.0227 -0.4810  0.1143
   73SLPC  H18R 6463   3.427   0.228   9.016  0.5232  1.8147  2.0741
   73SLPC  H18S 6464   3.366   0.395   8.997 -1.6590 -0.2796 -0.0982
   73SLPC  H18T 6465   3.391   0.307   8.850 -1.6624  0.3629 -0.2781
   73SLPC   C33 6466   3.570   0.311  10.086 -0.2663 -0.5530  0.1019
   73SLPC   H3X 6467   3.680   0.310  10.075 -0.4608  0.7154 -2.1691
   73SLPC   H3Y 6468   3.539   0.416  10.105  3.0776  0.6605 -0.7633
   73SLPC   C34 6469   3.509   0.273   9.954  0.3652  0.1909  0.0827
   73SLPC   H4X 6470   3.399   0.274   9.970  0.2573  1.8277 -0.6484
   73SLPC   H4Y 6471   3.538   0.167   9.937 -0.5498 -0.6171  3.2474
   73SLPC   C35 6472   3.558   0.368   9.841  0.1491 -0.0185 -0.1180
   73SLPC   H5X 6473   3.666   0.355   9.817 -0.1989 -1.6672 -0.8352
   73SLPC   H5Y 6474   3.551   0.477   9.864  1.5969 -0.0540  0.5499
   73SLPC   C36 6475   3.489   0.330   9.703 -0.2934  0.2391 -1.1411
   73SLPC   H6X 6476   3.380   0.354   9.704 -0.2916  0.3448 -2.6697
   73SLPC   H6Y 6477   3.504   0.225   9.671 -2.5172  0.1444 -2.0029
   73SLPC   C37 6478   3.545   0.420   9.591  0.2664  0.1794  0.2375
   73SLPC   H7X 6479   3.650   0.395   9.565 -0.0087 -1.8762  0.9947
   73SLPC   H7Y 6480   3.536   0.526   9.622 -0.1539  0.1184  0.3288
   73SLPC   C38 6481   3.460   0.408   9.458 -0.9088 -0.1506 -0.3595
   73SLPC   H8X 6482   3.363   0.459   9.477 -1.1947 -1.6393  2.5643
   73SLPC   H8Y 6483   3.442   0.299   9.456  1.1654 -0.7094  4.1341
   73SLPC   C39 6484   3.532   0.463   9.330 -0.1416  0.5581 -0.8365
   73SLPC   H9X 6485   3.467   0.427   9.247 -1.2244 -0.4818  0.4354
   73SLPC   H9Y 6486   3.633   0.417   9.328 -0.8979 -1.1763 -0.7823
   73SLPC  C310 6487   3.542   0.615   9.328  0.2877  0.1465 -0.5071
   73SLPC  H10X 6488   3.575   0.652   9.427  3.2523  0.1460 -1.4631
   73SLPC  H10Y 6489   3.441   0.660   9.312  0.7334  1.9091  1.4444
   73SLPC  C311 6490   3.631   0.670   9.213 -0.2768  0.3127 -0.2564
   73SLPC  H11X 6491   3.594   0.625   9.119 -1.5737 -0.8876  0.8073
   73SLPC  H11Y 6492   3.734   0.630   9.225 -1.1470 -1.1261  2.8302
   73SLPC  C312 6493   3.640   0.814   9.209 -0.4900  0.8478 -0.3241
   73SLPC  H12X 6494   3.686   0.853   9.302  0.0621  0.1462 -0.2923
   73SLPC  H12Y 6495   3.536   0.851   9.216 -0.9326 -0.3249 -0.5668
   73SLPC  C313 6496   3.698   0.872   9.080  1.2594 -0.4630  0.1701
   73SLPC  H13X 6497   3.628   0.835   9.001 -1.2245  1.3040  1.4966
   73SLPC  H13Y 6498   3.800   0.830   9.071  1.1587 -0.4311 -1.2824
   73SLPC  C314 6499   3.684   1.027   9.084  0.4248  0.2458 -0.6373
   73SLPC  H14X 6500   3.724   1.048   9.185 -0.4078 -1.5858  0.0902
   73SLPC  H14Y 6501   3.581   1.063   9.101 -0.9654 -3.4506 -0.8725
   73SLPC  C315 6502   3.757   1.108   8.973  0.1623 -0.1831  0.8259
   73SLPC  H15X 6503   3.866   1.103   8.997  0.4062  0.3933 -0.1582
   73SLPC  H15Y 6504   3.724   1.213   8.984  0.9302  0.3375 -1.5693
   73SLPC  C316 6505   3.738   1.060   8.833  0.6647 -0.4321  0.9079
   73SLPC  H16X 6506   3.740   0.949   8.837  0.7771 -0.4761 -0.1648
   73SLPC  H16Y 6507   3.817   1.099   8.764  1.7503 -2.4412  0.9749
   73SLPC  C317 6508   3.599   1.113   8.774 -0.0713  0.2604  0.2063
   73SLPC  H17X 6509   3.609   1.224   8.775  0.1443  0.2377  0.5893
   73SLPC  H17Y 6510   3.506   1.085   8.829 -0.1225 -0.5562 -0.2843
   73SLPC  C318 6511   3.604   1.071   8.624  0.0233 -0.8514  0.3780
   73SLPC  H18X 6512   3.611   0.963   8.602  0.3341 -0.6907 -0.3232
   73SLPC  H18Y 6513   3.695   1.114   8.577  0.4798  1.1421  2.9328
   73SLPC  H18Z 6514   3.512   1.112   8.577 -0.2618 -1.7326  0.1584
   74SLPC     N 6515   4.553   2.132  10.807 -0.4317 -0.0145  0.2400
   74SLPC   C13 6516   4.426   2.209  10.781  0.0981 -0.1025  0.2898
   74SLPC  H13A 6517   4.395   2.270  10.864 -0.8223  0.4202 -0.4234
   74SLPC  H13B 6518   4.436   2.270  10.692  0.6571  1.1681  1.2142
   74SLPC  H13C 6519   4.344   2.142  10.761  0.6044 -1.1385  1.5837
   74SLPC   C14 6520   4.506   2.005  10.873  0.2326 -0.0795  0.3782
   74SLPC  H14A 6521   4.422   1.968  10.816  1.7237  0.0383 -1.9931
   74SLPC  H14B 6522   4.584   1.931  10.875  0.0158 -0.3006  0.7960
   74SLPC  H14C 6523   4.470   2.023  10.973  0.0307 -1.3708  0.5388
   74SLPC   C15 6524   4.626   2.209  10.906 -0.0264  0.5701  0.9027
   74SLPC  H15A 6525   4.564   2.233  10.992 -0.6616  1.1870  0.2757
   74SLPC  H15B 6526   4.715   2.158  10.940  0.3282  0.5851  0.0114
   74SLPC  H15C 6527   4.642   2.309  10.871  2.3254 -0.8011 -2.1481
   74SLPC   C12 6528   4.631   2.112  10.685 -0.1625 -0.3444 -0.4061
   74SLPC  H12A 6529   4.718   2.052  10.707 -0.6527 -1.4805 -1.4748
   74SLPC  H12B 6530   4.656   2.208  10.641 -3.0323  1.3133  1.4244
   74SLPC   C11 6531   4.561   2.040  10.564  0.7035 -0.7506 -0.0107
   74SLPC  H11A 6532   4.634   2.041  10.480  3.2349 -1.3328  2.1068
   74SLPC  H11B 6533   4.467   2.092  10.536  0.1550 -0.6291  2.0162
   74SLPC     P 6534   4.607   1.780  10.557  0.0600 -0.3364  0.3637
   74SLPC   O13 6535   4.739   1.799  10.628  0.8985  0.3252 -0.1005
   74SLPC   O14 6536   4.521   1.663  10.591  0.4116  0.3663 -0.1243
   74SLPC   O12 6537   4.526   1.904  10.595  0.0947 -0.2945 -0.4788
   74SLPC   O11 6538   4.628   1.795  10.396 -0.2630 -0.0395 -0.0300
   74SLPC    C1 6539   4.532   1.744  10.303 -0.7881  0.6087 -0.0745
   74SLPC    HA 6540   4.541   1.636  10.281  0.1738  0.8294 -0.7972
   74SLPC    HB 6541   4.428   1.759  10.340 -1.5162 -2.8540 -0.5614
   74SLPC    C2 6542   4.534   1.823  10.173 -0.4719 -0.9717  0.9160
   74SLPC    HS 6543   4.444   1.799  10.111 -0.0589  3.0988 -1.4528
   74SLPC   O21 6544   4.657   1.793  10.104  0.2890  0.9526  0.3462
   74SLPC   C21 6545   4.643   1.682  10.031 -0.3290  0.0654  0.3392
   74SLPC   O22 6546   4.542   1.638   9.994  0.0024  0.0279 -1.2482
   74SLPC   C22 6547   4.785   1.628  10.000  0.1312 -0.2451  0.0811
   74SLPC   H2R 6548   4.854   1.622  10.087 -0.2857  2.5199  0.6265
   74SLPC   H2S 6549   4.776   1.528   9.951  0.4751 -1.8296  3.1170
   74SLPC    C3 6550   4.523   1.980  10.188 -0.3231 -0.9474  1.3335
   74SLPC    HX 6551   4.623   2.005  10.230  0.3784  1.2383 -1.5011
   74SLPC    HY 6552   4.436   2.003  10.254 -0.9950 -1.8864  0.7890
   74SLPC   O31 6553   4.509   2.032  10.053  0.1677 -0.0747  0.0069
   74SLPC   C31 6554   4.483   2.166  10.045 -0.9326 -0.1062  0.3522
   74SLPC   O32 6555   4.442   2.242  10.132 -0.1573  0.3336 -0.2917
   74SLPC   C32 6556   4.539   2.203   9.906 -0.5574  1.0238  0.2271
   74SLPC   H2X 6557   4.490   2.141   9.829  3.8488  1.9351 -3.5182
   74SLPC   H2Y 6558   4.648   2.178   9.913  0.5702  3.9248 -4.7433
   74SLPC   C23 6559   4.863   1.720   9.903 -0.8280 -0.2652 -0.4398
   74SLPC   H3R 6560   4.872   1.814   9.961 -1.0729 -0.7949  0.4889
   74SLPC   H3S 6561   4.814   1.735   9.805  1.5971 -1.2253 -1.8453
   74SLPC   C24 6562   4.999   1.671   9.877 -0.8162 -0.0358  0.6411
   74SLPC   H4R 6563   4.988   1.573   9.825 -1.5284  0.7754 -0.7809
   74SLPC   H4S 6564   5.054   1.644   9.969  0.1019  0.1124  0.1393
   74SLPC   C25 6565   5.095   1.757   9.790 -0.3001  0.2767 -0.5936
   74SLPC   H5R 6566   5.147   1.837   9.846  2.8019 -0.5175 -2.2373
   74SLPC   H5S 6567   5.031   1.800   9.710  0.4968  2.9481  0.1427
   74SLPC   C26 6568   5.196   1.678   9.706 -0.4087 -0.1237  0.4151
   74SLPC   H6R 6569   5.136   1.602   9.653 -0.5584  0.4085 -0.1858
   74SLPC   H6S 6570   5.275   1.628   9.767  1.0285  0.7941 -0.6460
   74SLPC   C27 6571   5.270   1.777   9.618 -0.8517  0.2549 -0.1453
   74SLPC   H7R 6572   5.328   1.843   9.685  1.9611 -2.7589  0.5418
   74SLPC   H7S 6573   5.195   1.831   9.556 -0.0137  0.7810 -0.7029
   74SLPC   C28 6574   5.377   1.723   9.516 -0.0057  0.0848 -0.7699
   74SLPC   H8R 6575   5.474   1.694   9.563 -1.0828  1.0447  2.1769
   74SLPC   H8S 6576   5.401   1.801   9.441 -0.2362 -1.0035 -2.0007
   74SLPC   C29 6577   5.327   1.603   9.435 -0.2120  0.2499  0.0587
   74SLPC   H9R 6578   5.301   1.516   9.497  0.3247 -0.3156 -0.4913
   74SLPC  C210 6579   5.299   1.591   9.306 -0.7341  0.1168  0.3193
   74SLPC  H10R 6580   5.251   1.499   9.272 -3.0174  0.8306  1.5297
   74SLPC  C211 6581   5.305   1.702   9.203 -0.8794 -0.1078 -0.0471
   74SLPC  H11R 6582   5.378   1.777   9.240 -2.5981 -0.0404  3.3294
   74SLPC  H11S 6583   5.208   1.755   9.191 -0.6023  0.3116 -0.4862
   74SLPC  C212 6584   5.354   1.636   9.074 -0.8087  0.0513  0.2905
   74SLPC  H12R 6585   5.450   1.586   9.089 -0.0764  1.4318  0.2687
   74SLPC  C213 6586   5.301   1.631   8.953 -0.0439  0.2935  0.1089
   74SLPC  H13R 6587   5.349   1.574   8.872  0.4148  1.4992 -0.4883
   74SLPC  C214 6588   5.173   1.694   8.897  0.2200 -0.0365 -0.0586
   74SLPC  H14R 6589   5.206   1.756   8.811 -0.9555  0.1201 -0.4060
   74SLPC  H14S 6590   5.124   1.763   8.969 -0.1720 -0.9465  0.5539
   74SLPC  C215 6591   5.078   1.591   8.831 -0.1922 -0.2584 -0.4114
   74SLPC  H15R 6592   5.032   1.538   8.917  1.4520  0.3242  0.8653
   74SLPC  H15S 6593   5.127   1.507   8.777 -0.0957 -1.3778  1.3774
   74SLPC  C216 6594   4.960   1.653   8.760 -0.1096 -0.2120  0.2780
   74SLPC  H16R 6595   5.001   1.722   8.683  1.1968 -1.3853 -0.1054
   74SLPC  H16S 6596   4.905   1.718   8.832 -1.0979 -0.1682 -0.5050
   74SLPC  C217 6597   4.853   1.556   8.706 -0.5714  0.0711  0.6494
   74SLPC  H17R 6598   4.764   1.616   8.676  0.3768  0.8047 -0.7564
   74SLPC  H17S 6599   4.817   1.483   8.783 -0.6949 -1.0361 -0.4370
   74SLPC  C218 6600   4.899   1.477   8.584  0.0130  0.0752 -0.7972
   74SLPC  H18R 6601   4.817   1.406   8.559 -1.4475  1.0387  1.1937
   74SLPC  H18S 6602   4.991   1.424   8.618 -1.6085 -1.3453  1.5483
   74SLPC  H18T 6603   4.925   1.545   8.501  0.4342  1.5266  0.5025
   74SLPC   C33 6604   4.527   2.351   9.882 -0.0375  0.6188 -0.1316
   74SLPC   H3X 6605   4.576   2.410   9.963 -0.6222  0.3687  0.4053
   74SLPC   H3Y 6606   4.424   2.391   9.890  0.6965  2.6681 -0.4559
   74SLPC   C34 6607   4.581   2.391   9.750  0.9886 -0.1027 -0.8491
   74SLPC   H4X 6608   4.690   2.373   9.743  0.7535 -1.1478 -2.0383
   74SLPC   H4Y 6609   4.564   2.500   9.734 -1.1899 -0.1970  0.6501
   74SLPC   C35 6610   4.522   2.314   9.634  0.2246  0.5829 -0.4415
   74SLPC   H5X 6611   4.411   2.314   9.636  0.2413  0.3780  2.9789
   74SLPC   H5Y 6612   4.543   2.205   9.642 -0.8319  0.2396 -2.0494
   74SLPC   C36 6613   4.564   2.357   9.490  0.0719 -0.5993  0.2304
   74SLPC   H6X 6614   4.675   2.344   9.488  0.1879  0.3501  0.3735
   74SLPC   H6Y 6615   4.549   2.465   9.471  0.1561 -0.6970 -0.4084
   74SLPC   C37 6616   4.503   2.269   9.377  0.0838  0.6811  0.3580
   74SLPC   H7X 6617   4.392   2.280   9.381 -0.1023 -1.0325  0.1795
   74SLPC   H7Y 6618   4.518   2.159   9.373 -2.1406  0.3516  0.1957
   74SLPC   C38 6619   4.537   2.325   9.239 -0.0908 -0.5358  0.2090
   74SLPC   H8X 6620   4.648   2.329   9.233 -0.2094  0.6094 -1.3899
   74SLPC   H8Y 6621   4.504   2.429   9.220 -0.5225  0.0680  3.9025
   74SLPC   C39 6622   4.487   2.237   9.130 -0.9030 -0.0786  0.0536
   74SLPC   H9X 6623   4.378   2.231   9.148 -0.6474 -0.0871  1.6408
   74SLPC   H9Y 6624   4.526   2.133   9.142  0.5183  0.2894 -1.1351
   74SLPC  C310 6625   4.523   2.283   8.993  0.3237  0.2714 -0.9039
   74SLPC  H10X 6626   4.515   2.192   8.929  2.2701 -1.0513  0.6592
   74SLPC  H10Y 6627   4.630   2.306   8.975  0.5141  1.2490  1.3737
   74SLPC  C311 6628   4.429   2.395   8.948  0.3348  0.3533 -0.0443
   74SLPC  H11X 6629   4.437   2.474   9.026  0.1238 -0.0412  0.3759
   74SLPC  H11Y 6630   4.327   2.354   8.956 -0.3821  1.9573 -0.6941
   74SLPC  C312 6631   4.460   2.453   8.812  0.2462 -0.0041  0.3099
   74SLPC  H12X 6632   4.485   2.367   8.747 -0.1146 -0.3100  0.5730
   74SLPC  H12Y 6633   4.547   2.518   8.790 -0.9778  1.9178  1.0181
   74SLPC  C313 6634   4.344   2.529   8.753 -0.4955 -0.3592  0.1051
   74SLPC  H13X 6635   4.340   2.624   8.810 -0.9582 -0.2471 -0.1147
   74SLPC  H13Y 6636   4.251   2.476   8.782 -0.7362 -0.5098 -0.9295
   74SLPC  C314 6637   4.338   2.557   8.599  0.2167  0.1453 -0.2135
   74SLPC  H14X 6638   4.337   2.457   8.548  1.2086 -0.8372  1.6622
   74SLPC  H14Y 6639   4.433   2.609   8.576  1.0963 -2.6547 -3.4766
   74SLPC  C315 6640   4.225   2.660   8.556  0.4504  0.4604 -0.1182
   74SLPC  H15X 6641   4.246   2.689   8.451 -1.6951  1.7727 -0.2153
   74SLPC  H15Y 6642   4.237   2.753   8.617  1.4818  0.8760 -0.9343
   74SLPC  C316 6643   4.079   2.606   8.557 -0.5421  0.3948 -0.1398
   74SLPC  H16X 6644   4.071   2.548   8.651  1.1963  1.2843  0.5830
   74SLPC  H16Y 6645   4.075   2.538   8.469 -0.6876  1.4490 -0.9597
   74SLPC  C317 6646   3.969   2.711   8.558  0.4409  0.5570 -0.3311
   74SLPC  H17X 6647   4.014   2.796   8.614  0.9391 -0.7600  1.3325
   74SLPC  H17Y 6648   3.879   2.673   8.611  1.1656 -2.1179 -0.9381
   74SLPC  C318 6649   3.930   2.765   8.422 -0.2540  0.3169 -0.3669
   74SLPC  H18X 6650   4.016   2.765   8.352 -0.2215 -4.4387 -0.4799
   74SLPC  H18Y 6651   3.900   2.872   8.432 -2.3914 -0.1747 -1.2491
   74SLPC  H18Z 6652   3.852   2.708   8.368 -1.2498  0.2587  1.1076
   75SLPC     N 6653   2.188   5.633   6.505  0.2046  0.6064  0.4006
   75SLPC   C13 6654   2.093   5.684   6.395  0.3200  0.0151 -0.7749
   75SLPC  H13A 6655   2.136   5.681   6.296 -1.4334  0.2681 -1.5768
   75SLPC  H13B 6656   2.016   5.609   6.395  0.5956 -0.2963  1.4326
   75SLPC  H13C 6657   2.056   5.783   6.419 -1.7801 -0.5999 -1.4105
   75SLPC   C14 6658   2.119   5.631   6.634  0.0749  0.1085  0.1642
   75SLPC  H14A 6659   2.179   5.578   6.707  0.7567 -1.0346 -1.2148
   75SLPC  H14B 6660   2.093   5.731   6.665 -2.2079  0.0147 -1.3142
   75SLPC  H14C 6661   2.022   5.587   6.616 -0.1331  0.2577  0.8840
   75SLPC   C15 6662   2.308   5.724   6.512 -0.6273 -0.0193  0.6685
   75SLPC  H15A 6663   2.285   5.811   6.571 -0.4005 -0.2332  1.0784
   75SLPC  H15B 6664   2.394   5.676   6.557 -0.2319  1.4656  1.5156
   75SLPC  H15C 6665   2.340   5.762   6.416 -2.1175  0.6291  0.4268
   75SLPC   C12 6666   2.234   5.488   6.483  0.3290  0.2615 -0.6126
   75SLPC  H12A 6667   2.318   5.470   6.549 -0.2846  0.9923  0.3745
   75SLPC  H12B 6668   2.269   5.478   6.381 -0.7612 -0.1169 -0.9523
   75SLPC   C11 6669   2.133   5.368   6.493 -0.2834 -0.0626  0.7620
   75SLPC  H11A 6670   2.108   5.346   6.599  0.0177 -1.4724  0.5444
   75SLPC  H11B 6671   2.173   5.274   6.451  1.2573  1.2283 -0.7426
   75SLPC     P 6672   1.872   5.379   6.450 -0.0176  0.3693  0.4707
   75SLPC   O13 6673   1.784   5.459   6.357  0.1460  0.6946 -0.1064
   75SLPC   O14 6674   1.846   5.234   6.457 -0.2353 -0.1945  0.2080
   75SLPC   O12 6675   2.020   5.401   6.408 -0.3087 -0.4029 -0.7462
   75SLPC   O11 6676   1.859   5.436   6.599 -0.0222  0.2630  0.0969
   75SLPC    C1 6677   1.884   5.368   6.730 -0.9918  0.5838 -0.4519
   75SLPC    HA 6678   1.923   5.265   6.719 -1.4708  0.0520  2.6029
   75SLPC    HB 6679   1.936   5.444   6.791  4.1770 -2.2926 -1.0050
   75SLPC    C2 6680   1.746   5.342   6.805 -0.6137  0.0172 -0.0964
   75SLPC    HS 6681   1.704   5.438   6.842 -1.5513 -0.5769  0.4024
   75SLPC   O21 6682   1.776   5.251   6.915  0.0833 -0.0531  0.3691
   75SLPC   C21 6683   1.835   5.315   7.013  0.0280  0.7604 -0.2572
   75SLPC   O22 6684   1.856   5.434   7.025 -0.8546 -0.3059  0.0867
   75SLPC   C22 6685   1.863   5.214   7.128 -0.4272 -0.1269 -1.2667
   75SLPC   H2R 6686   1.777   5.225   7.198 -0.8014 -0.3799 -1.6843
   75SLPC   H2S 6687   1.864   5.111   7.087  1.1465  0.6722 -3.3177
   75SLPC    C3 6688   1.634   5.279   6.716 -0.2275 -0.3000  0.0463
   75SLPC    HX 6689   1.681   5.194   6.663  1.1610  0.4256  0.0864
   75SLPC    HY 6690   1.599   5.360   6.649  0.5986  1.1270  1.2930
   75SLPC   O31 6691   1.525   5.232   6.799  0.7305  0.0865 -0.2544
   75SLPC   C31 6692   1.415   5.206   6.731 -0.3181  0.3073  0.1054
   75SLPC   O32 6693   1.409   5.212   6.609 -0.8644  0.1217  0.1921
   75SLPC   C32 6694   1.293   5.176   6.814  0.2998 -0.6364 -0.1144
   75SLPC   H2X 6695   1.233   5.101   6.758 -2.9757  0.6461  1.5778
   75SLPC   H2Y 6696   1.233   5.269   6.823  2.4275  0.7715 -0.0835
   75SLPC   C23 6697   1.991   5.238   7.201 -0.0260  0.3051 -0.0382
   75SLPC   H3R 6698   1.985   5.327   7.267  1.3733 -0.6975  1.4971
   75SLPC   H3S 6699   2.072   5.272   7.132 -0.3198 -0.1755 -0.6209
   75SLPC   C24 6700   2.034   5.122   7.294  0.1300 -0.2634 -0.1436
   75SLPC   H4R 6701   2.052   5.037   7.225 -0.8818 -1.1268  0.6376
   75SLPC   H4S 6702   1.957   5.087   7.366  0.6527  0.2946  0.6907
   75SLPC   C25 6703   2.163   5.154   7.376  0.5661  0.3596  0.2002
   75SLPC   H5R 6704   2.240   5.198   7.308 -0.7489  2.0210 -0.2510
   75SLPC   H5S 6705   2.191   5.050   7.405  3.1158  0.2573 -2.3799
   75SLPC   C26 6706   2.148   5.245   7.497 -0.4193 -0.1458 -0.1920
   75SLPC   H6R 6707   2.098   5.188   7.578 -0.9100  0.3992 -0.0994
   75SLPC   H6S 6708   2.092   5.337   7.467 -0.6096  0.7041  2.6739
   75SLPC   C27 6709   2.289   5.293   7.542  0.1722 -0.1954  0.0064
   75SLPC   H7R 6710   2.334   5.350   7.457 -0.3675  0.6263  0.2636
   75SLPC   H7S 6711   2.348   5.200   7.555  0.9561  0.2486 -0.3336
   75SLPC   C28 6712   2.286   5.384   7.666 -0.3610  0.1580 -1.4313
   75SLPC   H8R 6713   2.203   5.360   7.736  0.6995  2.9371  0.8642
   75SLPC   H8S 6714   2.282   5.491   7.637  0.8142  1.3445  2.4522
   75SLPC   C29 6715   2.418   5.368   7.727  0.0972 -0.0728 -0.5073
   75SLPC   H9R 6716   2.504   5.375   7.660 -0.2230  2.7324 -0.6928
   75SLPC  C210 6717   2.442   5.324   7.852 -0.6313 -0.1207 -0.1138
   75SLPC  H10R 6718   2.545   5.302   7.884 -0.6201  2.5305  1.7870
   75SLPC  C211 6719   2.334   5.297   7.949 -0.2573  0.1478  0.8639
   75SLPC  H11R 6720   2.256   5.226   7.911 -0.3860 -0.0752  1.5382
   75SLPC  H11S 6721   2.264   5.382   7.960 -1.1731 -0.7604  2.2974
   75SLPC  C212 6722   2.371   5.259   8.089  0.8319 -0.1936  0.2475
   75SLPC  H12R 6723   2.394   5.152   8.103 -0.2003 -0.4683 -0.0509
   75SLPC  C213 6724   2.346   5.340   8.199  0.0405  0.2017  0.7969
   75SLPC  H13R 6725   2.386   5.307   8.296 -1.7079  0.2112  1.5476
   75SLPC  C214 6726   2.295   5.482   8.196 -0.4627 -0.5671 -0.3553
   75SLPC  H14R 6727   2.184   5.479   8.195 -0.4746 -0.2025 -0.2994
   75SLPC  H14S 6728   2.322   5.537   8.104 -0.4270  3.0521  1.7222
   75SLPC  C215 6729   2.344   5.556   8.315 -0.5230 -0.4912  0.5577
   75SLPC  H15R 6730   2.332   5.503   8.412  1.1141 -1.3675  0.2940
   75SLPC  H15S 6731   2.308   5.661   8.321 -1.0597 -0.7509  2.0756
   75SLPC  C216 6732   2.491   5.577   8.295 -0.5806 -0.4759  0.0525
   75SLPC  H16R 6733   2.519   5.588   8.188  2.9757  1.0001  1.0626
   75SLPC  H16S 6734   2.540   5.482   8.328  3.3579  1.4139 -0.0940
   75SLPC  C217 6735   2.560   5.691   8.378 -0.1888 -0.3238  0.9836
   75SLPC  H17R 6736   2.499   5.783   8.366  1.7069  0.6358 -1.5678
   75SLPC  H17S 6737   2.660   5.711   8.333 -0.9155 -1.2595 -1.1147
   75SLPC  C218 6738   2.586   5.647   8.518 -0.3455 -0.1325 -0.2508
   75SLPC  H18R 6739   2.651   5.711   8.582 -0.8349  0.3224 -0.2060
   75SLPC  H18S 6740   2.617   5.541   8.506  2.5548  0.5486  0.8360
   75SLPC  H18T 6741   2.487   5.640   8.567  0.3848 -1.2538  1.1127
   75SLPC   C33 6742   1.331   5.132   6.948 -0.0495 -0.3860 -0.0114
   75SLPC   H3X 6743   1.388   5.037   6.945  0.1903 -0.2248 -0.4714
   75SLPC   H3Y 6744   1.395   5.202   7.006  0.3435  0.1433 -1.0721
   75SLPC   C34 6745   1.209   5.113   7.034  0.4196 -0.0929  0.1050
   75SLPC   H4X 6746   1.144   5.034   6.990  1.4086 -1.2189  0.6281
   75SLPC   H4Y 6747   1.151   5.208   7.030  0.6072 -0.0523 -1.8869
   75SLPC   C35 6748   1.239   5.083   7.181  0.3014  0.3503  0.5894
   75SLPC   H5X 6749   1.290   4.984   7.180 -0.3073 -0.0213  2.9374
   75SLPC   H5Y 6750   1.145   5.062   7.237 -0.4184 -0.5891 -0.9592
   75SLPC   C36 6751   1.331   5.173   7.264  0.5454  0.0733  0.2945
   75SLPC   H6X 6752   1.281   5.263   7.306  0.0974 -1.0526  2.2300
   75SLPC   H6Y 6753   1.424   5.206   7.213  0.0113  0.1369 -0.6402
   75SLPC   C37 6754   1.386   5.104   7.393 -0.1736  0.1643  0.5798
   75SLPC   H7X 6755   1.446   5.177   7.453 -2.6543  0.6718  2.5623
   75SLPC   H7Y 6756   1.445   5.017   7.358 -1.0571 -1.4710  3.0034
   75SLPC   C38 6757   1.269   5.046   7.479 -1.1451  0.2067  0.2767
   75SLPC   H8X 6758   1.222   4.968   7.416  0.6922  0.0495 -0.9320
   75SLPC   H8Y 6759   1.187   5.121   7.487 -0.2337  1.2204  0.1951
   75SLPC   C39 6760   1.305   4.989   7.618 -0.3920 -0.1062 -0.6764
   75SLPC   H9X 6761   1.372   4.906   7.588 -1.7035 -1.8743  1.1097
   75SLPC   H9Y 6762   1.220   4.937   7.668 -1.2695  0.3241 -1.6982
   75SLPC  C310 6763   1.378   5.087   7.711 -0.3264  0.1337 -0.0883
   75SLPC  H10X 6764   1.302   5.162   7.741 -3.2850 -2.7505 -0.0101
   75SLPC  H10Y 6765   1.470   5.136   7.673  0.4659 -1.0707  0.2365
   75SLPC  C311 6766   1.417   5.013   7.839  0.2767  0.3949 -0.6574
   75SLPC  H11X 6767   1.492   4.933   7.823 -0.7215 -0.8900  0.9234
   75SLPC  H11Y 6768   1.321   4.973   7.878  0.2556 -1.1616 -2.2407
   75SLPC  C312 6769   1.493   5.111   7.942  0.0580 -0.0004 -0.0465
   75SLPC  H12X 6770   1.430   5.199   7.967 -1.4051 -1.2561  0.7205
   75SLPC  H12Y 6771   1.590   5.132   7.891  0.0235  1.4363  0.4459
   75SLPC  C313 6772   1.514   5.026   8.074  0.6128  0.5491 -0.4193
   75SLPC  H13X 6773   1.589   4.947   8.050 -1.8652 -1.6122 -1.3634
   75SLPC  H13Y 6774   1.421   4.966   8.082  1.0930 -0.3162 -1.1766
   75SLPC  C314 6775   1.557   5.091   8.204  0.6290  0.7610 -0.5899
   75SLPC  H14X 6776   1.658   5.139   8.197  1.3813 -0.4764  1.4883
   75SLPC  H14Y 6777   1.561   5.009   8.278 -0.7741 -0.5192 -1.8936
   75SLPC  C315 6778   1.457   5.205   8.246  0.7489  0.4795 -0.2656
   75SLPC  H15X 6779   1.356   5.164   8.263  0.1639  1.2245 -1.8594
   75SLPC  H15Y 6780   1.445   5.289   8.174  1.3406 -0.0911 -1.0382
   75SLPC  C316 6781   1.505   5.269   8.378 -0.3692  0.7615  0.3999
   75SLPC  H16X 6782   1.440   5.356   8.400 -1.4511  0.3608 -1.0945
   75SLPC  H16Y 6783   1.607   5.306   8.355  1.6707 -3.3252  2.2470
   75SLPC  C317 6784   1.512   5.171   8.488 -0.3005 -0.5508 -0.1086
   75SLPC  H17X 6785   1.587   5.090   8.478  3.0256  2.4313 -0.2432
   75SLPC  H17Y 6786   1.408   5.136   8.505 -0.9516  1.5970  0.4739
   75SLPC  C318 6787   1.558   5.222   8.624  0.6901 -0.5228  0.4444
   75SLPC  H18X 6788   1.550   5.135   8.692  0.0583 -1.8084 -1.2472
   75SLPC  H18Y 6789   1.495   5.309   8.654  0.2728 -0.2021 -1.2815
   75SLPC  H18Z 6790   1.666   5.243   8.636  0.2731  2.1533 -0.0518
   76SLPC     N 6791   4.054   4.227   6.125  0.0174 -0.3749  0.1130
   76SLPC   C13 6792   3.926   4.296   6.161 -0.2056 -0.2578 -0.2906
   76SLPC  H13A 6793   3.868   4.315   6.072  4.1838  0.2758 -3.1903
   76SLPC  H13B 6794   3.869   4.242   6.235 -1.2639 -1.8691 -2.2625
   76SLPC  H13C 6795   3.962   4.394   6.192  1.6562 -0.5601 -1.4328
   76SLPC   C14 6796   4.133   4.315   6.034  0.6200  0.8989  0.9714
   76SLPC  H14A 6797   4.170   4.403   6.085 -1.8831  2.4867  0.1739
   76SLPC  H14B 6798   4.216   4.257   5.996  1.4330  1.5662  1.7173
   76SLPC  H14C 6799   4.072   4.338   5.947  2.1760  1.2268 -0.0418
   76SLPC   C15 6800   4.020   4.103   6.048  0.2280 -0.0539 -0.2557
   76SLPC  H15A 6801   3.974   4.033   6.116  0.9646  0.6687  1.0119
   76SLPC  H15B 6802   3.951   4.111   5.965 -0.5555 -0.1389  0.3854
   76SLPC  H15C 6803   4.109   4.055   6.012  0.9696  0.0744  1.3627
   76SLPC   C12 6804   4.127   4.193   6.253 -0.0827 -0.1577 -0.0472
   76SLPC  H12A 6805   4.171   4.276   6.306  0.8366  0.1720 -1.3034
   76SLPC  H12B 6806   4.213   4.133   6.228 -0.2175  0.2281 -1.4573
   76SLPC   C11 6807   4.060   4.097   6.359 -0.1365 -0.3750  0.6793
   76SLPC  H11A 6808   3.962   4.149   6.367 -0.2008 -0.4163  0.1604
   76SLPC  H11B 6809   4.096   4.103   6.464 -1.1759  0.6796  0.9854
   76SLPC     P 6810   4.169   3.862   6.315  0.0077  0.0817 -0.0172
   76SLPC   O13 6811   4.128   3.743   6.244  0.3770 -0.3366  0.0321
   76SLPC   O14 6812   4.282   3.932   6.261  0.4291 -0.2073 -0.2984
   76SLPC   O12 6813   4.049   3.959   6.311 -0.2220  0.1481 -0.1854
   76SLPC   O11 6814   4.189   3.827   6.467 -0.0748 -0.1574 -0.3866
   76SLPC    C1 6815   4.062   3.821   6.539  0.5646  0.4027 -0.0613
   76SLPC    HA 6816   4.038   3.921   6.580  0.0131  0.7469 -1.2179
   76SLPC    HB 6817   3.976   3.776   6.486 -0.2158 -0.0988  1.5955
   76SLPC    C2 6818   4.082   3.743   6.669 -0.5538  0.8172 -0.0861
   76SLPC    HS 6819   3.980   3.719   6.704 -0.7402 -1.2383 -1.9578
   76SLPC   O21 6820   4.154   3.835   6.754 -0.1708  0.9117 -0.5317
   76SLPC   C21 6821   4.138   3.822   6.882 -0.2481 -0.4962 -0.0524
   76SLPC   O22 6822   4.073   3.735   6.938 -0.3871 -0.3220 -0.4682
   76SLPC   C22 6823   4.215   3.937   6.957 -0.0630  0.4804  0.4914
   76SLPC   H2R 6824   4.309   3.951   6.899  0.6933  0.7076  1.7760
   76SLPC   H2S 6825   4.152   4.027   6.940 -1.2219 -0.7338 -1.9779
   76SLPC    C3 6826   4.154   3.602   6.650  0.3291 -1.1282  0.2930
   76SLPC    HX 6827   4.257   3.628   6.616 -0.0432  0.0262  0.0088
   76SLPC    HY 6828   4.115   3.541   6.566  0.7622 -0.9202 -0.0628
   76SLPC   O31 6829   4.178   3.524   6.772 -0.1504  0.1681  0.2773
   76SLPC   C31 6830   4.075   3.439   6.804  0.1253  0.2568 -0.1346
   76SLPC   O32 6831   3.968   3.439   6.742  0.1311  0.3264 -0.1062
   76SLPC   C32 6832   4.101   3.351   6.925 -0.7948  0.0754  0.3404
   76SLPC   H2X 6833   4.204   3.310   6.917 -0.9322 -0.1036 -0.5079
   76SLPC   H2Y 6834   4.029   3.266   6.921 -0.7608 -0.0806  2.4337
   76SLPC   C23 6835   4.255   3.902   7.097 -0.3327 -0.5747 -0.4106
   76SLPC   H3R 6836   4.325   3.816   7.093  0.5381  0.1398 -0.9226
   76SLPC   H3S 6837   4.158   3.874   7.142 -1.6125  1.3616 -1.8669
   76SLPC   C24 6838   4.306   4.024   7.174 -0.2285 -0.2404 -0.4089
   76SLPC   H4R 6839   4.229   4.104   7.171 -1.9434 -1.7222  1.7444
   76SLPC   H4S 6840   4.397   4.065   7.127 -1.1364  3.4471  0.8381
   76SLPC   C25 6841   4.339   3.995   7.322 -0.4355  0.4094  1.3543
   76SLPC   H5R 6842   4.423   3.923   7.333  0.7028  1.2801 -1.2067
   76SLPC   H5S 6843   4.255   3.938   7.368 -0.2060 -2.9576 -2.0365
   76SLPC   C26 6844   4.375   4.122   7.404  0.4770 -0.2250 -0.0822
   76SLPC   H6R 6845   4.299   4.203   7.404  0.7600  0.0513  0.9479
   76SLPC   H6S 6846   4.462   4.162   7.348 -0.2986  0.9599 -0.4564
   76SLPC   C27 6847   4.427   4.091   7.555 -0.2987 -0.2181  0.3686
   76SLPC   H7R 6848   4.451   4.187   7.604  1.1383 -0.3205 -0.1119
   76SLPC   H7S 6849   4.520   4.032   7.540  1.0099  1.8790  0.1412
   76SLPC   C28 6850   4.325   4.019   7.646 -0.0281 -0.0619  0.0540
   76SLPC   H8R 6851   4.227   4.071   7.644  0.0998  0.1312 -1.2660
   76SLPC   H8S 6852   4.302   3.919   7.603 -2.2874  0.2965  0.3376
   76SLPC   C29 6853   4.377   3.993   7.784 -0.1571 -0.0293  0.2450
   76SLPC   H9R 6854   4.480   3.956   7.789 -0.4069 -0.6627  0.7947
   76SLPC  C210 6855   4.318   4.019   7.899  0.4095  0.3384  0.0793
   76SLPC  H10R 6856   4.370   3.976   7.987  0.7034  3.3467  1.4381
   76SLPC  C211 6857   4.175   4.066   7.921  0.7099 -0.6307  0.6484
   76SLPC  H11R 6858   4.121   4.066   7.824 -0.5939  0.8306  1.3419
   76SLPC  H11S 6859   4.183   4.174   7.946  0.8588  0.4016 -3.5378
   76SLPC  C212 6860   4.101   3.988   8.030 -0.1771  0.4324  0.0770
   76SLPC  H12R 6861   4.105   3.878   8.022 -0.8945  0.5457 -2.3680
   76SLPC  C213 6862   4.018   4.033   8.131  0.3367 -0.2756  0.9083
   76SLPC  H13R 6863   3.990   3.961   8.209 -0.5369 -1.3383 -0.3614
   76SLPC  C214 6864   3.985   4.178   8.153  0.3154  0.2041 -0.3419
   76SLPC  H14R 6865   3.874   4.180   8.148  0.3322  1.3658 -0.5826
   76SLPC  H14S 6866   4.022   4.249   8.075 -0.7694 -0.1954 -1.2298
   76SLPC  C215 6867   4.029   4.239   8.287  0.6267  0.7201  0.5847
   76SLPC  H15R 6868   3.963   4.207   8.370  0.3664  2.8724  1.2437
   76SLPC  H15S 6869   4.026   4.350   8.281 -0.7955  0.6620  0.0454
   76SLPC  C216 6870   4.170   4.212   8.335 -0.1854  0.0079  0.0350
   76SLPC  H16R 6871   4.180   4.102   8.339 -1.2609 -0.2326 -2.7147
   76SLPC  H16S 6872   4.183   4.254   8.437  0.5729  1.5874 -0.6770
   76SLPC  C217 6873   4.282   4.251   8.241 -0.4548 -0.2634  0.0966
   76SLPC  H17R 6874   4.292   4.361   8.245 -1.6141 -0.1118 -0.9097
   76SLPC  H17S 6875   4.249   4.224   8.139  0.0869  0.8580 -0.3840
   76SLPC  C218 6876   4.419   4.193   8.267 -0.1832 -0.5824  0.1750
   76SLPC  H18R 6877   4.447   4.223   8.370  1.4256 -1.5398  0.0405
   76SLPC  H18S 6878   4.486   4.243   8.194 -0.7702  0.3170  0.2502
   76SLPC  H18T 6879   4.403   4.085   8.243 -1.4280 -0.3018 -0.2664
   76SLPC   C33 6880   4.084   3.422   7.065  0.0422 -0.1429 -0.5962
   76SLPC   H3X 6881   4.031   3.364   7.143  3.1498  0.4393  2.0693
   76SLPC   H3Y 6882   4.025   3.516   7.054  1.8187  1.0968  0.1581
   76SLPC   C34 6883   4.211   3.474   7.136  0.0834  1.4315  0.8695
   76SLPC   H4X 6884   4.253   3.554   7.072  1.9745  0.1931  0.5174
   76SLPC   H4Y 6885   4.286   3.393   7.146 -0.2982  1.2543  2.4306
   76SLPC   C35 6886   4.181   3.526   7.278  0.5291  0.1029  0.3014
   76SLPC   H5X 6887   4.156   3.437   7.339 -0.4598  1.2414  1.5828
   76SLPC   H5Y 6888   4.086   3.583   7.277 -0.5789 -1.7251 -1.5861
   76SLPC   C36 6889   4.294   3.613   7.342 -1.0628 -0.8287 -0.1840
   76SLPC   H6X 6890   4.321   3.697   7.275 -2.1979  1.2004  1.8241
   76SLPC   H6Y 6891   4.385   3.549   7.353 -2.6601 -2.6533  3.2181
   76SLPC   C37 6892   4.259   3.664   7.482 -0.0514 -0.3223  0.2180
   76SLPC   H7X 6893   4.174   3.736   7.479 -2.0921 -2.6728 -0.3044
   76SLPC   H7Y 6894   4.355   3.711   7.512  0.7920 -2.3781  0.7992
   76SLPC   C38 6895   4.205   3.556   7.577 -0.3955  0.4350  0.6706
   76SLPC   H8X 6896   4.279   3.473   7.585  2.3509  2.5991 -1.5805
   76SLPC   H8Y 6897   4.109   3.519   7.535  1.0004 -0.2639 -1.9791
   76SLPC   C39 6898   4.197   3.614   7.721  0.0626  0.1701  0.0669
   76SLPC   H9X 6899   4.130   3.543   7.775  1.2510  0.4280  1.9476
   76SLPC   H9Y 6900   4.132   3.704   7.719  0.5651  0.5086 -1.5094
   76SLPC  C310 6901   4.325   3.607   7.801  0.3667 -0.4209 -1.1055
   76SLPC  H10X 6902   4.385   3.696   7.774  0.3467 -0.2251 -0.4996
   76SLPC  H10Y 6903   4.387   3.517   7.782  1.9864  0.1000  1.4045
   76SLPC  C311 6904   4.289   3.621   7.952  0.3488 -0.7399 -0.3370
   76SLPC  H11X 6905   4.244   3.527   7.990  0.3939  0.4299  2.8344
   76SLPC  H11Y 6906   4.226   3.708   7.981 -0.2513 -1.4105  0.3940
   76SLPC  C312 6907   4.416   3.631   8.040  0.6280 -0.0594 -0.2497
   76SLPC  H12X 6908   4.426   3.741   8.028 -0.4927  0.2369  1.4036
   76SLPC  H12Y 6909   4.508   3.586   7.996  1.9019  1.2736  0.9858
   76SLPC  C313 6910   4.397   3.602   8.192  0.4613  0.4089  0.2557
   76SLPC  H13X 6911   4.485   3.645   8.246 -1.1844  1.0700  2.4965
   76SLPC  H13Y 6912   4.401   3.493   8.213 -0.9775  0.0580 -1.2720
   76SLPC  C314 6913   4.258   3.653   8.245 -0.9458 -0.0757  0.3261
   76SLPC  H14X 6914   4.173   3.585   8.222 -0.8308 -0.7660  1.8639
   76SLPC  H14Y 6915   4.234   3.759   8.220 -0.8171  0.3502  1.9514
   76SLPC  C315 6916   4.276   3.649   8.395  0.7635  0.2348  0.2692
   76SLPC  H15X 6917   4.350   3.723   8.432  0.7405  0.3913  0.0096
   76SLPC  H15Y 6918   4.310   3.551   8.434 -0.0617  0.6716  2.1375
   76SLPC  C316 6919   4.144   3.677   8.478  0.2158  0.5703 -0.4452
   76SLPC  H16X 6920   4.172   3.653   8.583  1.8106 -0.8138 -1.1529
   76SLPC  H16Y 6921   4.062   3.607   8.452 -1.9487  1.4247  3.7503
   76SLPC  C317 6922   4.089   3.817   8.456 -0.5204 -0.2961 -0.0845
   76SLPC  H17X 6923   4.074   3.830   8.347  0.9345  1.5424 -0.0837
   76SLPC  H17Y 6924   4.171   3.884   8.489 -0.7608  0.9908 -2.0155
   76SLPC  C318 6925   3.960   3.854   8.535  0.1976  0.1755 -0.3627
   76SLPC  H18X 6926   3.972   3.805   8.634 -1.4889 -1.7692 -1.0671
   76SLPC  H18Y 6927   3.866   3.813   8.492  0.4158 -0.7397  0.0248
   76SLPC  H18Z 6928   3.948   3.964   8.547  0.2177 -0.0065  1.4420
   77SLPC     N 6929   6.370   2.951   6.101  0.6829  0.2229  0.8085
   77SLPC   C13 6930   6.315   2.836   6.019 -0.1875  1.1815  0.1596
   77SLPC  H13A 6931   6.399   2.806   5.957  1.4738  1.5932  2.1351
   77SLPC  H13B 6932   6.291   2.748   6.077  0.8042  2.8990  3.2618
   77SLPC  H13C 6933   6.233   2.872   5.959  0.6239  0.3813 -1.4855
   77SLPC   C14 6934   6.245   3.034   6.110 -0.7511  0.5308  0.3652
   77SLPC  H14A 6935   6.170   2.973   6.158  0.2572 -0.1127  1.1529
   77SLPC  H14B 6936   6.264   3.122   6.171  0.7954 -0.9392  2.0686
   77SLPC  H14C 6937   6.211   3.060   6.011 -0.0143  1.0742  0.2487
   77SLPC   C15 6938   6.480   3.031   6.029  0.3503  0.0236 -0.4411
   77SLPC  H15A 6939   6.519   3.113   6.087 -0.0033 -0.3419  0.3245
   77SLPC  H15B 6940   6.571   2.974   6.014 -0.0140 -0.1274 -2.1613
   77SLPC  H15C 6941   6.446   3.057   5.930  1.8019  0.0606 -0.9468
   77SLPC   C12 6942   6.423   2.904   6.234  0.1439  0.2609 -0.2001
   77SLPC  H12A 6943   6.470   2.987   6.284  1.0497 -0.1963 -0.2826
   77SLPC  H12B 6944   6.506   2.837   6.213 -0.4869 -0.1307 -1.5144
   77SLPC   C11 6945   6.325   2.845   6.344  0.2496 -0.5957 -0.7049
   77SLPC  H11A 6946   6.248   2.920   6.372 -0.0777 -1.4376  0.6605
   77SLPC  H11B 6947   6.386   2.830   6.435 -1.0131 -1.3466  0.0278
   77SLPC     P 6948   6.319   2.588   6.303  0.0416  0.2220  0.1502
   77SLPC   O13 6949   6.214   2.484   6.307 -0.0389  0.0038 -0.2619
   77SLPC   O14 6950   6.410   2.583   6.186  0.6328  0.6126  0.5100
   77SLPC   O12 6951   6.254   2.725   6.308  0.2490 -0.3996  0.0283
   77SLPC   O11 6952   6.395   2.582   6.436  0.3314  0.1917 -0.2117
   77SLPC    C1 6953   6.387   2.476   6.527  1.2629 -0.1081 -0.2593
   77SLPC    HA 6954   6.292   2.418   6.534  0.7591  1.0066  3.2060
   77SLPC    HB 6955   6.466   2.402   6.503  1.9260  0.7070 -0.6129
   77SLPC    C2 6956   6.415   2.535   6.668 -0.4167 -0.3078 -0.2006
   77SLPC    HS 6957   6.446   2.456   6.741 -0.5408  2.8693  3.4698
   77SLPC   O21 6958   6.302   2.605   6.711  0.5382 -0.1322  0.1478
   77SLPC   C21 6959   6.205   2.539   6.775  0.1918 -0.1808  0.3353
   77SLPC   O22 6960   6.197   2.414   6.779 -0.3484 -0.4747  0.4328
   77SLPC   C22 6961   6.102   2.630   6.847  0.1692  0.3304  0.0176
   77SLPC   H2R 6962   6.133   2.735   6.826  2.1374 -0.0877  0.7601
   77SLPC   H2S 6963   6.009   2.609   6.790 -0.0275  0.2212  0.3788
   77SLPC    C3 6964   6.536   2.631   6.666 -0.6857  0.3047  0.3543
   77SLPC    HX 6965   6.509   2.727   6.617  2.6575  0.5006 -1.3026
   77SLPC    HY 6966   6.610   2.575   6.605 -0.9998 -1.6801  1.7628
   77SLPC   O31 6967   6.592   2.659   6.792  0.0882 -0.0511 -0.3292
   77SLPC   C31 6968   6.524   2.746   6.875 -0.4657  0.3346  0.3831
   77SLPC   O32 6969   6.434   2.819   6.842 -0.3826  0.2088 -0.0372
   77SLPC   C32 6970   6.569   2.715   7.018  0.3836  0.2791  0.0415
   77SLPC   H2X 6971   6.680   2.719   7.018  0.3830  0.5665  1.6963
   77SLPC   H2Y 6972   6.537   2.610   7.038  1.6861 -0.0907  0.2927
   77SLPC   C23 6973   6.095   2.581   6.991  0.2156  0.1472  0.3547
   77SLPC   H3R 6974   6.070   2.473   7.001  0.4280  0.2451  2.0537
   77SLPC   H3S 6975   6.008   2.637   7.031  1.2469  0.6018  2.0101
   77SLPC   C24 6976   6.221   2.631   7.066  0.4621 -0.2065 -0.2465
   77SLPC   H4R 6977   6.253   2.735   7.046 -0.4594  0.0328 -0.4854
   77SLPC   H4S 6978   6.306   2.573   7.021  0.5189 -0.1489 -0.2116
   77SLPC   C25 6979   6.210   2.621   7.214 -1.0920  0.3251 -0.5192
   77SLPC   H5R 6980   6.122   2.681   7.245 -0.1273  0.3397  2.2778
   77SLPC   H5S 6981   6.299   2.671   7.258 -2.2631  0.9776  1.1487
   77SLPC   C26 6982   6.190   2.476   7.262  0.6328 -0.5549 -0.5284
   77SLPC   H6R 6983   6.276   2.418   7.222  1.0500  0.5188 -1.1931
   77SLPC   H6S 6984   6.098   2.434   7.216  0.9307 -0.0501 -1.6040
   77SLPC   C27 6985   6.155   2.477   7.409  0.5988  0.3207 -0.6557
   77SLPC   H7R 6986   6.130   2.380   7.457  2.7992  2.1036  4.5115
   77SLPC   H7S 6987   6.073   2.552   7.414  0.2882 -0.1369  2.4487
   77SLPC   C28 6988   6.269   2.517   7.511 -0.3548 -0.6619 -0.5216
   77SLPC   H8R 6989   6.218   2.490   7.606  1.9401 -1.8824  0.3884
   77SLPC   H8S 6990   6.283   2.622   7.477  1.6417 -0.5532  0.5838
   77SLPC   C29 6991   6.403   2.454   7.510 -0.0580  0.2194  0.0726
   77SLPC   H9R 6992   6.446   2.422   7.414  1.4273 -1.0490  1.1347
   77SLPC  C210 6993   6.477   2.420   7.618  0.3798  0.3470  0.9274
   77SLPC  H10R 6994   6.573   2.370   7.599  0.7322  1.2343  0.3467
   77SLPC  C211 6995   6.437   2.449   7.757  0.5034 -0.4265 -0.3799
   77SLPC  H11R 6996   6.380   2.544   7.749  0.1443 -0.5481  0.6254
   77SLPC  H11S 6997   6.525   2.493   7.810 -0.1507 -2.5039  2.5724
   77SLPC  C212 6998   6.383   2.343   7.853  0.1111 -0.2194  0.2908
   77SLPC  H12R 6999   6.461   2.273   7.887  1.7403  1.7762  0.7534
   77SLPC  C213 7000   6.254   2.330   7.901 -0.2981 -0.2389  0.4931
   77SLPC  H13R 7001   6.223   2.247   7.966  1.9024 -2.0996 -0.7793
   77SLPC  C214 7002   6.146   2.426   7.867 -0.5930 -0.3256  0.0899
   77SLPC  H14R 7003   6.186   2.492   7.787 -1.7427  1.5571  1.0382
   77SLPC  H14S 7004   6.127   2.485   7.959 -3.5397  1.7706 -1.7900
   77SLPC  C215 7005   6.022   2.359   7.811  0.0834  0.2399 -0.4177
   77SLPC  H15R 7006   6.050   2.281   7.738  1.7061  1.1857 -0.8429
   77SLPC  H15S 7007   5.963   2.435   7.755  0.5151 -0.4928 -1.8734
   77SLPC  C216 7008   5.936   2.293   7.922  0.3452  0.2048 -0.0058
   77SLPC  H16R 7009   5.908   2.380   7.987  0.1322  1.0758 -1.2529
   77SLPC  H16S 7010   6.007   2.228   7.977 -0.4432 -1.2550 -0.6849
   77SLPC  C217 7011   5.808   2.226   7.864  0.1501  0.2702 -0.4815
   77SLPC  H17R 7012   5.726   2.300   7.855 -0.0856  0.1229  0.4772
   77SLPC  H17S 7013   5.773   2.163   7.948  1.9108  0.9483  0.7981
   77SLPC  C218 7014   5.822   2.147   7.738  0.0171 -0.4749  0.7402
   77SLPC  H18R 7015   5.902   2.074   7.761  0.9034  0.1481 -0.2768
   77SLPC  H18S 7016   5.861   2.214   7.658  1.0638 -0.8746  0.9059
   77SLPC  H18T 7017   5.731   2.090   7.709  1.7182 -2.4389 -0.9524
   77SLPC   C33 7018   6.520   2.826   7.111 -0.4960 -0.1437 -0.0565
   77SLPC   H3X 7019   6.410   2.841   7.108 -0.3708  0.5834 -1.0947
   77SLPC   H3Y 7020   6.565   2.922   7.078 -0.1107 -0.8136 -1.5246
   77SLPC   C34 7021   6.575   2.814   7.255  0.3325 -0.3193  0.4317
   77SLPC   H4X 7022   6.682   2.842   7.267 -0.0444  2.6368 -2.4577
   77SLPC   H4Y 7023   6.562   2.712   7.297 -0.7399  0.2112  1.4357
   77SLPC   C35 7024   6.487   2.901   7.348  0.6808  0.5844 -0.6945
   77SLPC   H5X 7025   6.379   2.881   7.329 -0.1800  1.9717  2.4511
   77SLPC   H5Y 7026   6.492   3.010   7.331 -0.7082  1.4286  3.6655
   77SLPC   C36 7027   6.511   2.880   7.502  0.7985 -0.3536  0.1042
   77SLPC   H6X 7028   6.620   2.881   7.520  0.8408  1.9356 -0.1631
   77SLPC   H6Y 7029   6.482   2.775   7.528  0.0367 -0.2661 -0.3532
   77SLPC   C37 7030   6.442   2.992   7.577  0.8567 -0.5916  0.0846
   77SLPC   H7X 7031   6.332   2.993   7.557  1.0309  0.0750 -0.8312
   77SLPC   H7Y 7032   6.470   3.091   7.535 -0.8887  0.0495  0.3817
   77SLPC   C38 7033   6.467   2.989   7.722 -0.5188 -0.0610 -0.6324
   77SLPC   H8X 7034   6.420   3.072   7.778  1.8045  0.5998  0.3677
   77SLPC   H8Y 7035   6.576   2.999   7.740 -0.3629 -0.6031 -1.2551
   77SLPC   C39 7036   6.416   2.863   7.792 -0.9954 -0.0596 -0.0444
   77SLPC   H9X 7037   6.483   2.776   7.779  1.3640  1.8957 -1.5075
   77SLPC   H9Y 7038   6.320   2.830   7.749 -1.3005  0.5012  0.1960
   77SLPC  C310 7039   6.397   2.876   7.937 -0.4520 -0.3560 -0.0208
   77SLPC  H10X 7040   6.314   2.950   7.940  0.5753  0.8459 -1.0243
   77SLPC  H10Y 7041   6.482   2.926   7.987 -0.5946 -0.5316  0.4005
   77SLPC  C311 7042   6.360   2.748   8.005  0.0182  0.0303 -0.7791
   77SLPC  H11X 7043   6.413   2.664   7.954 -2.5138 -1.4827 -0.9916
   77SLPC  H11Y 7044   6.252   2.738   7.984 -0.1717 -0.6119  0.4381
   77SLPC  C312 7045   6.382   2.739   8.158 -1.1203 -0.0024  0.1060
   77SLPC  H12X 7046   6.320   2.809   8.218 -0.0145  0.5900  0.5611
   77SLPC  H12Y 7047   6.489   2.730   8.185 -1.2244  2.6576  1.5177
   77SLPC  C313 7048   6.328   2.605   8.217  0.4113  0.1684  0.7822
   77SLPC  H13X 7049   6.353   2.593   8.325 -0.4731  0.7993  1.0561
   77SLPC  H13Y 7050   6.377   2.526   8.156 -0.5715 -0.7866  1.2125
   77SLPC  C314 7051   6.178   2.584   8.206  0.5195  0.5965 -0.1018
   77SLPC  H14X 7052   6.153   2.476   8.216  1.9258  0.3216  0.5627
   77SLPC  H14Y 7053   6.150   2.624   8.107  0.4017 -0.8892 -0.6849
   77SLPC  C315 7054   6.092   2.673   8.304 -0.0428  0.5143 -0.1902
   77SLPC  H15X 7055   6.127   2.778   8.290  0.5868  0.3380  0.0239
   77SLPC  H15Y 7056   6.119   2.638   8.405  1.0785  3.1418  0.4690
   77SLPC  C316 7057   5.941   2.671   8.286  0.4598  0.1964 -0.2162
   77SLPC  H16X 7058   5.912   2.564   8.283  3.0523 -0.5759  0.7755
   77SLPC  H16Y 7059   5.922   2.722   8.189 -2.7860 -0.6947 -0.0847
   77SLPC  C317 7060   5.877   2.723   8.417 -1.1189  0.2294 -0.6570
   77SLPC  H17X 7061   5.912   2.659   8.500 -0.2279  2.5675  0.8246
   77SLPC  H17Y 7062   5.769   2.699   8.417 -1.0845  0.0767 -0.7818
   77SLPC  C318 7063   5.906   2.871   8.433  0.6999 -0.3709 -0.1242
   77SLPC  H18X 7064   6.000   2.894   8.487  1.5080 -2.1050 -0.7459
   77SLPC  H18Y 7065   5.819   2.914   8.487  1.0715 -1.4920  1.3826
   77SLPC  H18Z 7066   5.926   2.920   8.336  2.0835 -1.3036 -0.3169
   78SLPC     N 7067   2.011   4.691   5.946 -0.3949  0.0384 -0.2673
   78SLPC   C13 7068   2.066   4.831   5.985  0.3166 -0.2222  0.2969
   78SLPC  H13A 7069   2.088   4.829   6.091 -1.1226  3.3345  0.7474
   78SLPC  H13B 7070   2.156   4.858   5.932  0.2767 -1.2333 -0.3016
   78SLPC  H13C 7071   1.998   4.913   5.969 -0.3317 -0.7541  0.2582
   78SLPC   C14 7072   2.118   4.592   5.972 -0.8503  0.0832 -0.2179
   78SLPC  H14A 7073   2.086   4.492   5.999  0.9988 -0.3371  0.4802
   78SLPC  H14B 7074   2.183   4.602   5.886 -1.4366  0.6233 -0.6022
   78SLPC  H14C 7075   2.180   4.612   6.058 -1.4614 -1.5053  0.6178
   78SLPC   C15 7076   1.965   4.698   5.802  0.0004  0.0149 -0.7727
   78SLPC  H15A 7077   1.880   4.763   5.799  1.0243  1.3535 -1.3056
   78SLPC  H15B 7078   2.047   4.712   5.733  2.9310 -1.5102  2.2367
   78SLPC  H15C 7079   1.931   4.601   5.770 -1.0172  1.0127 -2.7557
   78SLPC   C12 7080   1.897   4.647   6.042 -0.3226  0.6495 -0.3779
   78SLPC  H12A 7081   1.816   4.712   6.011 -0.9704 -0.3791 -0.8864
   78SLPC  H12B 7082   1.935   4.667   6.141 -1.6938  0.5948  0.1723
   78SLPC   C11 7083   1.839   4.495   6.047  0.5006  0.2798  0.0821
   78SLPC  H11A 7084   1.792   4.492   5.946 -2.0528  0.5058  1.2264
   78SLPC  H11B 7085   1.756   4.504   6.121 -0.5091 -0.9005 -0.8813
   78SLPC     P 7086   1.884   4.241   6.074 -0.4772  0.1673  0.0789
   78SLPC   O13 7087   1.738   4.238   6.087  0.1598 -0.2870 -0.9802
   78SLPC   O14 7088   1.945   4.182   5.949  0.8406  0.0304  0.0204
   78SLPC   O12 7089   1.941   4.396   6.075  0.1033  0.7058  0.0308
   78SLPC   O11 7090   1.963   4.161   6.188  0.0373 -0.6564 -0.6307
   78SLPC    C1 7091   2.081   4.227   6.242 -0.3198  0.2249  0.4850
   78SLPC    HA 7092   2.169   4.159   6.234 -0.3519  0.4245 -1.9404
   78SLPC    HB 7093   2.121   4.314   6.186 -1.1154 -0.0824 -0.5660
   78SLPC    C2 7094   2.072   4.271   6.392  0.0814 -0.4485 -0.7628
   78SLPC    HS 7095   2.175   4.305   6.417 -0.0559 -2.2435  2.4409
   78SLPC   O21 7096   2.036   4.155   6.478 -0.4528 -0.5309  0.6166
   78SLPC   C21 7097   2.092   4.158   6.595 -1.1753 -0.0313 -0.5687
   78SLPC   O22 7098   2.184   4.234   6.625 -0.0843  0.3581  0.4658
   78SLPC   C22 7099   2.035   4.050   6.682  0.4804  0.3063  0.2716
   78SLPC   H2R 7100   1.936   4.017   6.645  0.3823  0.2126  0.6087
   78SLPC   H2S 7101   2.102   3.963   6.665  0.5035  0.5905 -1.0976
   78SLPC    C3 7102   1.972   4.383   6.419 -0.8924 -0.2480  0.1668
   78SLPC    HX 7103   1.878   4.329   6.392 -2.0170  0.7249  2.0313
   78SLPC    HY 7104   1.979   4.467   6.347 -1.9159 -1.9614 -1.9980
   78SLPC   O31 7105   1.955   4.424   6.561 -0.2941 -0.5338  0.6513
   78SLPC   C31 7106   2.051   4.498   6.600  0.0084  0.3641 -0.1437
   78SLPC   O32 7107   2.144   4.548   6.534  0.8530 -0.4804  0.2687
   78SLPC   C32 7108   2.038   4.518   6.747  0.0766 -0.2062 -0.0538
   78SLPC   H2X 7109   2.101   4.442   6.798  0.5085  0.3692  0.2734
   78SLPC   H2Y 7110   1.938   4.489   6.787  0.5762 -0.3931  1.0881
   78SLPC   C23 7111   2.025   4.105   6.826  0.6010  0.1355 -0.0222
   78SLPC   H3R 7112   1.946   4.038   6.866  0.7001  1.0363  1.7243
   78SLPC   H3S 7113   1.987   4.209   6.833  0.6851  0.0640  1.5585
   78SLPC   C24 7114   2.134   4.076   6.926 -0.0796 -0.1277  0.0144
   78SLPC   H4R 7115   2.217   4.141   6.890 -0.2549 -0.2806 -0.6714
   78SLPC   H4S 7116   2.153   3.971   6.895  0.2595 -0.2243  0.5437
   78SLPC   C25 7117   2.100   4.090   7.077 -0.0530 -0.4355 -0.1503
   78SLPC   H5R 7118   2.025   4.010   7.095  0.3684 -0.7138  0.3383
   78SLPC   H5S 7119   2.052   4.189   7.092 -2.7117 -1.6825 -0.0113
   78SLPC   C26 7120   2.220   4.071   7.171 -0.4816  0.6474 -0.2155
   78SLPC   H6R 7121   2.304   4.134   7.135  0.3266 -0.7224 -0.7733
   78SLPC   H6S 7122   2.271   3.973   7.157  4.0722  2.5274  2.2019
   78SLPC   C27 7123   2.186   4.083   7.323  0.3783  0.2321 -0.5155
   78SLPC   H7R 7124   2.109   4.012   7.360  1.4897 -1.0798 -0.6706
   78SLPC   H7S 7125   2.139   4.183   7.331 -0.9130 -0.0838 -3.2338
   78SLPC   C28 7126   2.302   4.082   7.433  0.0726  0.5012  0.4699
   78SLPC   H8R 7127   2.270   4.107   7.536  0.0517  0.6748  0.4223
   78SLPC   H8S 7128   2.369   4.161   7.393 -2.3426  2.8889  1.0459
   78SLPC   C29 7129   2.368   3.944   7.420 -0.4879  0.0283  0.1525
   78SLPC   H9R 7130   2.306   3.854   7.427 -0.5063  0.0441  0.1857
   78SLPC  C210 7131   2.502   3.929   7.421  0.3636  0.1916 -0.3462
   78SLPC  H10R 7132   2.546   3.829   7.412  2.1337  1.0471 -1.4270
   78SLPC  C211 7133   2.611   4.037   7.423  0.4283  0.9682  0.0105
   78SLPC  H11R 7134   2.629   4.065   7.529  0.3511 -0.5024  0.4294
   78SLPC  H11S 7135   2.575   4.124   7.364 -4.4373 -2.5388 -2.5595
   78SLPC  C212 7136   2.744   3.997   7.356  0.5220  0.3412 -0.9121
   78SLPC  H12R 7137   2.757   4.037   7.254  2.6468  3.3036  0.4587
   78SLPC  C213 7138   2.837   3.918   7.416  0.3948  0.4563  0.2728
   78SLPC  H13R 7139   2.930   3.894   7.362  0.7754  1.8696  0.2651
   78SLPC  C214 7140   2.839   3.863   7.555 -0.4986 -0.2925 -0.2502
   78SLPC  H14R 7141   2.758   3.905   7.619  2.7424  1.4196  2.9063
   78SLPC  H14S 7142   2.924   3.887   7.622 -0.8566  1.4742 -0.4134
   78SLPC  C215 7143   2.824   3.711   7.548 -1.1792  0.0934  0.4593
   78SLPC  H15R 7144   2.902   3.669   7.480  0.6683  1.2032  1.8337
   78SLPC  H15S 7145   2.719   3.695   7.516 -0.7756  2.4464 -2.2372
   78SLPC  C216 7146   2.854   3.639   7.686  0.4342 -0.2027  0.5103
   78SLPC  H16R 7147   2.776   3.659   7.762  0.6961  2.8501  0.0287
   78SLPC  H16S 7148   2.944   3.690   7.727 -0.4282  2.0373 -0.3170
   78SLPC  C217 7149   2.866   3.483   7.674 -0.8673  0.3028 -0.5773
   78SLPC  H17R 7150   2.929   3.469   7.584 -0.1193 -1.0989  0.1448
   78SLPC  H17S 7151   2.766   3.437   7.658 -0.9321  0.0781  0.4187
   78SLPC  C218 7152   2.929   3.422   7.803  0.4135  0.2146  0.2133
   78SLPC  H18R 7153   2.858   3.425   7.888 -1.8528  1.1286 -1.6821
   78SLPC  H18S 7154   3.029   3.464   7.826  1.3906 -0.1720 -3.0572
   78SLPC  H18T 7155   2.957   3.317   7.776  0.2412  0.0768  0.5731
   78SLPC   C33 7156   2.065   4.656   6.797  0.3076 -0.2596 -0.3215
   78SLPC   H3X 7157   1.998   4.728   6.746  0.7202 -0.5567 -1.2927
   78SLPC   H3Y 7158   2.171   4.680   6.774  0.2954  2.3652  2.1024
   78SLPC   C34 7159   2.023   4.679   6.942 -0.2141 -0.5364 -0.3988
   78SLPC   H4X 7160   1.920   4.642   6.961 -0.2837 -0.2931 -0.3074
   78SLPC   H4Y 7161   2.021   4.789   6.958  2.0568 -0.4564 -0.4266
   78SLPC   C35 7162   2.116   4.602   7.041 -0.0864 -0.1654  0.0261
   78SLPC   H5X 7163   2.212   4.656   7.043  2.4699 -4.4432 -1.2368
   78SLPC   H5Y 7164   2.133   4.497   7.007 -1.9227  0.5892 -3.4644
   78SLPC   C36 7165   2.057   4.598   7.182  0.4095  0.2533  0.2395
   78SLPC   H6X 7166   1.987   4.513   7.194  4.7402 -3.3077  1.9277
   78SLPC   H6Y 7167   2.010   4.693   7.217 -0.7829  0.3067 -1.4550
   78SLPC   C37 7168   2.168   4.592   7.289 -0.1020  0.2856  1.4063
   78SLPC   H7X 7169   2.246   4.672   7.295  0.7838 -0.1262 -3.0028
   78SLPC   H7Y 7170   2.222   4.495   7.283 -1.4856 -0.3451 -2.0273
   78SLPC   C38 7171   2.111   4.581   7.432  0.1766  0.0131 -0.0994
   78SLPC   H8X 7172   2.042   4.493   7.430 -1.9947  1.6738  0.2969
   78SLPC   H8Y 7173   2.059   4.676   7.455 -0.6337 -0.3655 -0.3154
   78SLPC   C39 7174   2.218   4.538   7.535 -0.5865 -0.7004  0.6399
   78SLPC   H9X 7175   2.304   4.608   7.544  0.1925 -1.7496  1.5338
   78SLPC   H9Y 7176   2.264   4.451   7.484  0.1222  0.1775 -0.2286
   78SLPC  C310 7177   2.170   4.488   7.668  0.1246 -0.3244  0.3931
   78SLPC  H10X 7178   2.098   4.403   7.666  1.5139 -1.5727  1.6931
   78SLPC  H10Y 7179   2.121   4.568   7.728  2.6291  2.4814 -1.1851
   78SLPC  C311 7180   2.271   4.420   7.757  0.1587  0.0245 -0.2105
   78SLPC  H11X 7181   2.338   4.484   7.819  0.7076 -0.7369 -0.0161
   78SLPC  H11Y 7182   2.335   4.363   7.687 -0.9805  0.4358 -1.6196
   78SLPC  C312 7183   2.211   4.322   7.854  0.1412  0.0063 -0.1021
   78SLPC  H12X 7184   2.150   4.254   7.791  0.5084  1.9392 -2.6370
   78SLPC  H12Y 7185   2.141   4.370   7.925 -0.5061 -1.6176  0.3781
   78SLPC  C313 7186   2.307   4.251   7.945 -0.2196  0.2174 -0.2714
   78SLPC  H13X 7187   2.252   4.193   8.022  1.1181 -1.4225 -0.5148
   78SLPC  H13Y 7188   2.371   4.324   7.998 -2.0649  1.4957  0.2630
   78SLPC  C314 7189   2.392   4.144   7.876 -0.3539  0.1052 -0.1627
   78SLPC  H14X 7190   2.440   4.183   7.784 -0.8847 -2.5522 -1.6202
   78SLPC  H14Y 7191   2.327   4.061   7.840  0.1158 -1.2205  1.9525
   78SLPC  C315 7192   2.495   4.087   7.974  0.8763 -0.8679 -0.1266
   78SLPC  H15X 7193   2.443   4.064   8.070 -2.4740  0.0545 -1.6334
   78SLPC  H15Y 7194   2.568   4.167   8.000 -0.0995 -0.5297  1.6554
   78SLPC  C316 7195   2.560   3.961   7.925  0.0161 -0.2251  0.1231
   78SLPC  H16X 7196   2.624   3.986   7.838 -1.4213  1.3878 -0.4996
   78SLPC  H16Y 7197   2.481   3.890   7.892  0.2183 -0.9207  1.1000
   78SLPC  C317 7198   2.651   3.894   8.034  1.0562 -0.4197 -0.0877
   78SLPC  H17X 7199   2.703   3.805   7.994  2.1288  0.5578 -0.8878
   78SLPC  H17Y 7200   2.591   3.862   8.122  1.5349  1.5404  0.9812
   78SLPC  C318 7201   2.757   3.989   8.096  0.1132  0.5213 -0.3505
   78SLPC  H18X 7202   2.822   3.919   8.153  0.0834  0.7246 -0.0662
   78SLPC  H18Y 7203   2.714   4.066   8.164 -0.1862 -0.4301  0.5463
   78SLPC  H18Z 7204   2.814   4.047   8.020  2.4497 -0.2724  0.7634
   79SLPC     N 7205   0.298   5.587   6.187  0.9962 -0.5444 -0.7421
   79SLPC   C13 7206   0.183   5.602   6.089  0.5740  0.6881  0.2259
   79SLPC  H13A 7207   0.152   5.503   6.056  0.5104  0.3471  1.2836
   79SLPC  H13B 7208   0.096   5.649   6.133 -1.6785 -3.2604  0.2610
   79SLPC  H13C 7209   0.217   5.666   6.009  0.7317 -0.9844 -1.0729
   79SLPC   C14 7210   0.415   5.534   6.110 -0.1249 -0.0075  0.1941
   79SLPC  H14A 7211   0.462   5.604   6.044 -0.2269 -1.4145 -1.4171
   79SLPC  H14B 7212   0.497   5.518   6.179 -1.0947  3.3903  2.2626
   79SLPC  H14C 7213   0.384   5.444   6.059  0.0279  1.6161 -2.8579
   79SLPC   C15 7214   0.275   5.491   6.299  0.1069  0.4212  0.6408
   79SLPC  H15A 7215   0.195   5.527   6.361 -0.4920  2.0030 -1.0239
   79SLPC  H15B 7216   0.251   5.388   6.275 -2.4132  0.8304  1.3050
   79SLPC  H15C 7217   0.367   5.497   6.356 -0.0468  2.1673  0.7293
   79SLPC   C12 7218   0.339   5.718   6.257  0.4047 -0.5837  0.0959
   79SLPC  H12A 7219   0.437   5.713   6.303 -1.1631 -1.9476  3.4059
   79SLPC  H12B 7220   0.265   5.759   6.323  0.3068  3.3687 -2.2339
   79SLPC   C11 7221   0.349   5.834   6.151 -0.4206  0.1065 -0.3597
   79SLPC  H11A 7222   0.264   5.839   6.079 -1.7757  1.0475  1.2678
   79SLPC  H11B 7223   0.435   5.817   6.082 -0.5192 -1.7120 -0.0676
   79SLPC     P 7224   0.276   6.041   6.299  0.2773  0.1497  0.1028
   79SLPC   O13 7225   0.353   6.101   6.413 -0.0446 -0.0365 -0.5325
   79SLPC   O14 7226   0.206   6.129   6.202 -0.5528 -0.5304  0.0153
   79SLPC   O12 7227   0.380   5.952   6.221  0.0972  0.0598 -0.3719
   79SLPC   O11 7228   0.171   5.934   6.349  0.1393 -0.2476 -0.4372
   79SLPC    C1 7229   0.057   5.977   6.430  0.7209  0.4238 -0.1735
   79SLPC    HA 7230   0.083   6.061   6.498  0.1174 -1.0095  1.8946
   79SLPC    HB 7231  -0.022   6.017   6.363  1.1385 -0.2022 -1.0550
   79SLPC    C2 7232  -0.012   5.868   6.518 -0.1315 -0.3298 -0.3855
   79SLPC    HS 7233  -0.117   5.897   6.540 -0.5683 -1.0618 -1.4705
   79SLPC   O21 7234   0.059   5.849   6.642  0.2748  0.3158  0.9657
   79SLPC   C21 7235   0.036   5.938   6.733  0.2671  0.1665 -0.5561
   79SLPC   O22 7236  -0.022   6.043   6.710  0.3076  0.1483  0.0245
   79SLPC   C22 7237   0.093   5.897   6.871  0.2627 -0.3806  0.1477
   79SLPC   H2R 7238   0.063   5.795   6.902 -2.3843  0.1039 -0.6819
   79SLPC   H2S 7239   0.204   5.899   6.867  0.3791  2.1497  2.6612
   79SLPC    C3 7240  -0.023   5.730   6.445  0.3520 -0.2384  0.2430
   79SLPC    HX 7241   0.080   5.701   6.414  0.4726 -0.1147  0.5203
   79SLPC    HY 7242  -0.083   5.743   6.353 -1.2851 -0.0833  1.3134
   79SLPC   O31 7243  -0.089   5.633   6.525 -0.2297  0.2854 -0.7342
   79SLPC   C31 7244  -0.008   5.559   6.604  0.1062  0.2970 -0.7042
   79SLPC   O32 7245   0.113   5.568   6.604 -0.8920 -0.5028  0.0204
   79SLPC   C32 7246  -0.088   5.462   6.683  0.2806  0.7770 -0.8579
   79SLPC   H2X 7247  -0.103   5.377   6.614  0.9534  1.5468 -1.9556
   79SLPC   H2Y 7248  -0.191   5.492   6.712 -0.3354 -0.2398 -1.9812
   79SLPC   C23 7249   0.046   5.996   6.978  0.5294  0.7768 -0.0756
   79SLPC   H3R 7250  -0.064   5.990   6.994  0.4766 -0.6190 -0.9834
   79SLPC   H3S 7251   0.085   6.100   6.968 -0.2333  1.2419  1.5180
   79SLPC   C24 7252   0.103   5.952   7.117 -0.0461  0.3828  0.1253
   79SLPC   H4R 7253   0.209   5.919   7.115 -0.7283 -1.8150 -1.5065
   79SLPC   H4S 7254   0.035   5.867   7.135 -1.9143  1.4300 -1.7375
   79SLPC   C25 7255   0.073   6.067   7.223  0.6862  0.3034 -0.4798
   79SLPC   H5R 7256  -0.025   6.105   7.189  0.6295  0.1943 -0.4400
   79SLPC   H5S 7257   0.140   6.155   7.220  0.6860  0.2607 -1.6842
   79SLPC   C26 7258   0.075   6.015   7.366  0.3800 -0.7044  0.1013
   79SLPC   H6R 7259   0.176   6.016   7.410  0.8818  0.5592 -1.0475
   79SLPC   H6S 7260   0.047   5.907   7.359  2.2577 -1.0920 -2.4115
   79SLPC   C27 7261  -0.029   6.079   7.452  0.4965 -0.2427 -0.4472
   79SLPC   H7R 7262  -0.023   6.016   7.544  0.9985  0.0682 -0.2689
   79SLPC   H7S 7263  -0.132   6.074   7.409  0.6616  1.8622 -1.1060
   79SLPC   C28 7264   0.002   6.226   7.495  0.6006  0.1205 -0.7782
   79SLPC   H8R 7265  -0.004   6.282   7.400  1.3864  0.4827 -0.6187
   79SLPC   H8S 7266   0.102   6.220   7.543 -0.1693  0.6223  0.9456
   79SLPC   C29 7267  -0.097   6.269   7.597 -1.2151 -0.1207  0.6171
   79SLPC   H9R 7268  -0.183   6.326   7.558 -2.6929 -0.6278  2.9808
   79SLPC  C210 7269  -0.089   6.248   7.726 -0.5246  0.3004  0.8461
   79SLPC  H10R 7270  -0.164   6.297   7.791 -2.8426 -0.6817 -1.0062
   79SLPC  C211 7271   0.032   6.177   7.785 -0.6804  0.7206 -0.3413
   79SLPC  H11R 7272   0.115   6.243   7.818  0.5204  0.7321 -3.2722
   79SLPC  H11S 7273   0.078   6.110   7.709 -0.1823 -0.4502  0.9730
   79SLPC  C212 7274  -0.017   6.086   7.898 -0.1332 -0.3531 -0.3538
   79SLPC  H12R 7275  -0.124   6.064   7.896  0.1707 -1.8640 -0.7837
   79SLPC  C213 7276   0.061   6.043   8.002  0.4658  0.0032 -0.3906
   79SLPC  H13R 7277   0.005   5.998   8.085 -1.1572  1.2785 -0.7669
   79SLPC  C214 7278   0.204   6.066   8.023  0.5591 -0.0792  1.2397
   79SLPC  H14R 7279   0.224   6.151   8.091 -0.0075  1.0848 -0.0294
   79SLPC  H14S 7280   0.248   6.101   7.927  0.2507 -1.1753  0.6904
   79SLPC  C215 7281   0.262   5.934   8.068 -0.0248 -0.1606 -0.1401
   79SLPC  H15R 7282   0.232   5.852   7.999 -0.0670 -0.2077 -0.0663
   79SLPC  H15S 7283   0.210   5.907   8.163  2.3728  0.0361  1.2545
   79SLPC  C216 7284   0.418   5.933   8.089  0.9196 -0.2723  0.6422
   79SLPC  H16R 7285   0.457   6.035   8.075 -1.9735  1.0094  1.3773
   79SLPC  H16S 7286   0.460   5.879   8.002 -0.8231 -0.9496  0.1907
   79SLPC  C217 7287   0.465   5.848   8.211 -0.4937 -0.5826  0.2166
   79SLPC  H17R 7288   0.564   5.809   8.179  0.8159  3.0407 -0.3832
   79SLPC  H17S 7289   0.396   5.764   8.235 -1.0856 -0.7057 -1.8180
   79SLPC  C218 7290   0.479   5.926   8.341 -0.0833 -0.4409 -0.0258
   79SLPC  H18R 7291   0.534   5.867   8.418  0.1092 -1.6561 -1.0860
   79SLPC  H18S 7292   0.381   5.956   8.386  0.3787  1.9546 -0.5462
   79SLPC  H18T 7293   0.540   6.019   8.338 -2.9231  1.4638 -1.2601
   79SLPC   C33 7294  -0.013   5.414   6.815 -0.3034 -0.2165  0.0059
   79SLPC   H3X 7295   0.097   5.423   6.807 -0.3526 -0.5470 -1.0596
   79SLPC   H3Y 7296  -0.038   5.308   6.837 -0.1149 -0.1105  0.7618
   79SLPC   C34 7297  -0.053   5.500   6.941  1.0699 -0.5869 -1.0338
   79SLPC   H4X 7298  -0.146   5.452   6.979  1.4417  0.6778  1.5394
   79SLPC   H4Y 7299  -0.068   5.601   6.899  0.9802  0.8263  2.2634
   79SLPC   C35 7300   0.047   5.499   7.052 -0.4059  0.0504 -0.2321
   79SLPC   H5X 7301   0.140   5.546   7.014 -0.1038  0.3137  0.8136
   79SLPC   H5Y 7302   0.072   5.396   7.085 -0.4655 -0.0612 -0.5336
   79SLPC   C36 7303  -0.012   5.566   7.174  0.1486  0.9356 -0.9777
   79SLPC   H6X 7304  -0.067   5.656   7.139  0.4687  1.4458 -0.1915
   79SLPC   H6Y 7305   0.066   5.606   7.242 -1.5361  0.1496  1.5039
   79SLPC   C37 7306  -0.101   5.473   7.259  0.2429 -0.8531 -0.1378
   79SLPC   H7X 7307  -0.054   5.380   7.297 -0.7154 -1.0961  0.4686
   79SLPC   H7Y 7308  -0.194   5.456   7.200 -0.7639  1.8164  0.6047
   79SLPC   C38 7309  -0.155   5.551   7.380 -0.2126 -0.1335 -0.1849
   79SLPC   H8X 7310  -0.247   5.513   7.429 -0.6852  0.8091 -0.3306
   79SLPC   H8Y 7311  -0.196   5.643   7.334 -0.5083 -0.1878 -0.0322
   79SLPC   C39 7312  -0.046   5.601   7.480  0.4170 -0.0013  0.2352
   79SLPC   H9X 7313   0.045   5.650   7.440 -0.3881  1.5057  0.1971
   79SLPC   H9Y 7314  -0.008   5.508   7.528  0.2982  0.9983  2.3540
   79SLPC  C310 7315  -0.110   5.690   7.594 -0.5680 -0.0928  0.2754
   79SLPC  H10X 7316  -0.176   5.628   7.657  1.2262 -0.5955  1.7072
   79SLPC  H10Y 7317  -0.172   5.773   7.553 -2.0774 -1.1295  0.4416
   79SLPC  C311 7318  -0.001   5.761   7.679 -0.7047  0.1215  0.0540
   79SLPC  H11X 7319  -0.052   5.844   7.733  1.2176  1.8092 -0.6682
   79SLPC  H11Y 7320   0.059   5.814   7.602 -0.7007  0.7248  0.4627
   79SLPC  C312 7321   0.081   5.670   7.769 -0.4026  0.3795 -0.1096
   79SLPC  H12X 7322   0.159   5.735   7.815 -0.7801  1.1692 -0.5755
   79SLPC  H12Y 7323   0.124   5.589   7.706  0.4095  0.4226  0.3723
   79SLPC  C313 7324  -0.001   5.602   7.883 -0.2182 -0.2451  0.9087
   79SLPC  H13X 7325   0.068   5.535   7.939  1.7210 -0.9091 -2.1267
   79SLPC  H13Y 7326  -0.068   5.524   7.839 -0.1895  0.0074  0.4247
   79SLPC  C314 7327  -0.081   5.692   7.975 -0.1189 -0.8394  0.1892
   79SLPC  H14X 7328  -0.160   5.729   7.907  0.1195 -0.7270 -0.0275
   79SLPC  H14Y 7329  -0.021   5.781   8.003  2.8736 -1.8748 -2.6091
   79SLPC  C315 7330  -0.135   5.619   8.096  0.2718 -0.4084  0.4326
   79SLPC  H15X 7331  -0.186   5.525   8.065 -2.7004  1.8535 -1.8466
   79SLPC  H15Y 7332  -0.221   5.683   8.124  1.4414  1.8579 -0.9722
   79SLPC  C316 7333  -0.057   5.606   8.226 -1.0121  0.0630  0.3959
   79SLPC  H16X 7334  -0.042   5.712   8.255  1.4082 -0.5953  1.6186
   79SLPC  H16Y 7335   0.042   5.558   8.207 -0.7949  1.1247 -1.2353
   79SLPC  C317 7336  -0.128   5.522   8.337 -0.0343  0.5574  0.4174
   79SLPC  H17X 7337  -0.104   5.417   8.310  0.7575  0.2828  2.0847
   79SLPC  H17Y 7338  -0.237   5.536   8.347  0.0157  0.4955  1.0874
   79SLPC  C318 7339  -0.071   5.556   8.474 -0.0007 -0.1785 -0.9140
   79SLPC  H18X 7340   0.033   5.517   8.465  0.1394  0.0331 -0.2377
   79SLPC  H18Y 7341  -0.135   5.515   8.555 -1.1690  2.7412 -0.2986
   79SLPC  H18Z 7342  -0.060   5.666   8.481 -1.2124 -0.1256  0.4567
   80SLPC     N 7343   0.563   3.173   5.922  0.7479  0.0684  0.1326
   80SLPC   C13 7344   0.558   3.030   5.889 -0.2629 -0.3966  0.0978
   80SLPC  H13A 7345   0.552   2.964   5.975 -0.2258 -0.4722  0.0415
   80SLPC  H13B 7346   0.468   3.007   5.834  0.6563  0.0638 -1.6302
   80SLPC  H13C 7347   0.644   3.004   5.830  0.6240 -0.7592  1.5245
   80SLPC   C14 7348   0.446   3.227   6.011 -0.3836  0.5869  0.3324
   80SLPC  H14A 7349   0.466   3.173   6.102  2.0991  0.7634 -0.0541
   80SLPC  H14B 7350   0.452   3.333   6.032  0.1063  0.0475  3.0376
   80SLPC  H14C 7351   0.347   3.210   5.971 -0.8920  1.3159  1.2795
   80SLPC   C15 7352   0.565   3.249   5.798 -0.1739  0.0440  0.3960
   80SLPC  H15A 7353   0.582   3.354   5.819  1.0106  0.5547 -2.8153
   80SLPC  H15B 7354   0.652   3.223   5.739 -1.0855  0.3319 -1.1042
   80SLPC  H15C 7355   0.474   3.246   5.740  0.6841 -1.7591 -0.8897
   80SLPC   C12 7356   0.697   3.199   5.997  0.3534 -0.1137 -0.4629
   80SLPC  H12A 7357   0.703   3.307   6.003 -0.5854 -0.0909  0.4404
   80SLPC  H12B 7358   0.777   3.159   5.937 -1.5137 -2.9532 -1.1401
   80SLPC   C11 7359   0.712   3.158   6.145 -0.4158 -0.3871 -0.1566
   80SLPC  H11A 7360   0.821   3.164   6.167 -0.3678 -1.2699 -0.1230
   80SLPC  H11B 7361   0.692   3.051   6.166  2.1231 -0.9582 -0.4825
   80SLPC     P 7362   0.676   3.380   6.289  0.2927 -0.3054  0.0387
   80SLPC   O13 7363   0.743   3.456   6.182  0.3869 -0.0649  0.1653
   80SLPC   O14 7364   0.561   3.446   6.352 -0.0510  0.4832  0.2332
   80SLPC   O12 7365   0.630   3.240   6.226  0.0834 -0.5676 -0.0558
   80SLPC   O11 7366   0.779   3.334   6.403  0.2149 -0.2697 -0.0696
   80SLPC    C1 7367   0.777   3.219   6.490 -0.7291 -0.2651 -0.1579
   80SLPC    HA 7368   0.692   3.149   6.471 -0.4399 -0.4324 -0.8757
   80SLPC    HB 7369   0.865   3.153   6.474 -2.3771 -2.7761  0.7324
   80SLPC    C2 7370   0.758   3.256   6.640  0.3714  1.1069 -0.2807
   80SLPC    HS 7371   0.749   3.160   6.694  0.8585  0.5612 -1.1566
   80SLPC   O21 7372   0.650   3.352   6.659 -0.5451 -0.2077 -0.3437
   80SLPC   C21 7373   0.534   3.296   6.651 -0.2220  0.2242 -0.3282
   80SLPC   O22 7374   0.511   3.176   6.640  0.6060  0.3535  0.1687
   80SLPC   C22 7375   0.430   3.401   6.670 -0.6834 -0.3103 -0.3559
   80SLPC   H2R 7376   0.476   3.501   6.691  1.3368 -1.1999 -0.4430
   80SLPC   H2S 7377   0.375   3.417   6.575 -0.3117  1.0949 -0.3508
   80SLPC    C3 7378   0.884   3.334   6.705  0.8359  0.0850 -0.7303
   80SLPC    HX 7379   0.880   3.438   6.668 -2.8293  0.6751  1.0563
   80SLPC    HY 7380   0.967   3.272   6.666 -0.2093 -0.9118 -1.4002
   80SLPC   O31 7381   0.869   3.323   6.847 -0.6690 -0.1948 -0.1010
   80SLPC   C31 7382   0.910   3.432   6.922  0.0411 -0.4379  0.0071
   80SLPC   O32 7383   0.926   3.545   6.880 -0.3794 -0.3131  0.4143
   80SLPC   C32 7384   0.914   3.386   7.067 -0.2363  0.1726 -0.0346
   80SLPC   H2X 7385   0.992   3.307   7.077  1.6772  1.7213 -2.0663
   80SLPC   H2Y 7386   0.822   3.330   7.093  0.0516 -0.9875 -1.4290
   80SLPC   C23 7387   0.339   3.375   6.796  0.0872 -0.4702  0.2346
   80SLPC   H3R 7388   0.302   3.270   6.796  1.6225 -1.0517 -1.1318
   80SLPC   H3S 7389   0.254   3.444   6.778  1.0606  0.7036  0.0671
   80SLPC   C24 7390   0.412   3.407   6.928  0.3510 -0.1267  0.3213
   80SLPC   H4R 7391   0.334   3.445   6.997  0.1575  1.0960 -0.5666
   80SLPC   H4S 7392   0.469   3.496   6.894 -0.1689 -0.3509 -1.1860
   80SLPC   C25 7393   0.501   3.297   6.989  0.2418 -0.2075  0.0155
   80SLPC   H5R 7394   0.581   3.278   6.915  0.0421 -1.6936  0.1645
   80SLPC   H5S 7395   0.444   3.204   7.007  1.0237 -1.0738 -1.8637
   80SLPC   C26 7396   0.562   3.347   7.120  0.6332  0.3873 -1.1596
   80SLPC   H6R 7397   0.605   3.448   7.101 -0.1826  0.9330 -0.1980
   80SLPC   H6S 7398   0.638   3.272   7.152 -0.9960  0.2289  2.5911
   80SLPC   C27 7399   0.458   3.347   7.233  0.4747  0.1221 -0.2663
   80SLPC   H7R 7400   0.423   3.242   7.239  1.3391 -0.2864 -2.1643
   80SLPC   H7S 7401   0.379   3.416   7.199 -1.1399 -0.5761  1.9078
   80SLPC   C28 7402   0.512   3.398   7.366  0.1519  0.7916  0.0936
   80SLPC   H8R 7403   0.426   3.402   7.436  1.1348 -2.2245  1.5324
   80SLPC   H8S 7404   0.538   3.504   7.343  1.0221  1.5493  4.1221
   80SLPC   C29 7405   0.635   3.328   7.427  0.3703  0.3224  0.8513
   80SLPC   H9R 7406   0.717   3.302   7.358 -2.2433 -0.9245 -1.8886
   80SLPC  C210 7407   0.657   3.308   7.551 -0.3704 -0.1329 -0.2112
   80SLPC  H10R 7408   0.747   3.251   7.581 -0.0939  0.4971  0.1719
   80SLPC  C211 7409   0.573   3.337   7.671 -0.0006 -0.5436  0.6378
   80SLPC  H11R 7410   0.624   3.281   7.752  0.7154  3.1855  2.8608
   80SLPC  H11S 7411   0.472   3.291   7.663 -0.3033  0.1420  0.5291
   80SLPC  C212 7412   0.557   3.481   7.704  0.0216 -0.3371  0.5061
   80SLPC  H12R 7413   0.516   3.537   7.619 -0.7748 -1.8216 -0.1025
   80SLPC  C213 7414   0.602   3.544   7.815 -0.2937 -0.5847  0.0798
   80SLPC  H13R 7415   0.594   3.654   7.820  0.8746 -0.4244 -1.3647
   80SLPC  C214 7416   0.666   3.489   7.943 -0.2120 -0.0918  0.0656
   80SLPC  H14R 7417   0.773   3.519   7.941  0.0976 -1.0749  1.3242
   80SLPC  H14S 7418   0.661   3.378   7.945  1.5966 -0.1819  0.5772
   80SLPC  C215 7419   0.610   3.528   8.073  0.4909  0.4370  0.3675
   80SLPC  H15R 7420   0.499   3.515   8.076  0.5775 -0.7398 -1.0336
   80SLPC  H15S 7421   0.633   3.637   8.072  0.7467  0.3783 -1.5513
   80SLPC  C216 7422   0.671   3.465   8.206 -0.3491 -0.3590 -0.8067
   80SLPC  H16R 7423   0.782   3.454   8.200 -0.1286  1.5079 -0.3872
   80SLPC  H16S 7424   0.624   3.364   8.209  1.3608 -1.1365  1.7582
   80SLPC  C217 7425   0.636   3.541   8.337  0.4937  0.4308 -0.0123
   80SLPC  H17R 7426   0.528   3.567   8.344  0.6028  0.7881  0.4066
   80SLPC  H17S 7427   0.688   3.638   8.324 -0.6730  1.4431  2.5596
   80SLPC  C218 7428   0.669   3.481   8.467 -0.1602  0.5830 -0.3198
   80SLPC  H18R 7429   0.778   3.475   8.488 -0.0739 -0.3546 -1.0106
   80SLPC  H18S 7430   0.639   3.374   8.470  1.2326  0.1703 -0.5959
   80SLPC  H18T 7431   0.621   3.533   8.553 -1.4065  1.7088 -1.6742
   80SLPC   C33 7432   0.939   3.492   7.181  0.5119  0.2132  0.2663
   80SLPC   H3X 7433   0.854   3.562   7.192  0.4487  0.2118 -0.2087
   80SLPC   H3Y 7434   1.029   3.554   7.161 -0.8009  1.4813 -1.8242
   80SLPC   C34 7435   0.976   3.424   7.322  0.7474  0.1321 -0.3752
   80SLPC   H4X 7436   1.080   3.387   7.314 -0.4995 -3.7571  0.2109
   80SLPC   H4Y 7437   0.917   3.330   7.322  2.6961 -1.1264 -2.2230
   80SLPC   C35 7438   0.968   3.515   7.439  0.0408  0.3545  0.0080
   80SLPC   H5X 7439   0.860   3.541   7.437 -0.2170 -0.6310  0.5070
   80SLPC   H5Y 7440   1.033   3.600   7.409  0.4298 -0.8437 -2.6594
   80SLPC   C36 7441   1.014   3.458   7.572  0.3205  0.4991  0.3815
   80SLPC   H6X 7442   1.123   3.439   7.563  0.1500  0.0588 -0.8695
   80SLPC   H6Y 7443   0.958   3.362   7.579  1.6700 -0.4491 -1.4130
   80SLPC   C37 7444   0.970   3.554   7.688  0.1784 -0.6026  1.0624
   80SLPC   H7X 7445   0.859   3.555   7.692  0.0938  4.0404  0.5817
   80SLPC   H7Y 7446   1.000   3.657   7.659 -1.9270 -0.0350  0.8215
   80SLPC   C38 7447   1.028   3.505   7.815  0.1991  0.2519  0.1301
   80SLPC   H8X 7448   1.135   3.479   7.803  0.0350 -0.3257 -0.1165
   80SLPC   H8Y 7449   0.964   3.418   7.839  1.1621 -1.4768 -3.1914
   80SLPC   C39 7450   1.024   3.621   7.916 -0.8745  0.4847 -0.2519
   80SLPC   H9X 7451   0.917   3.649   7.925 -0.3256  2.7112 -0.2930
   80SLPC   H9Y 7452   1.090   3.701   7.874  1.0241 -0.8514  0.1462
   80SLPC  C310 7453   1.084   3.594   8.049  0.3557 -0.1097  0.5910
   80SLPC  H10X 7454   1.193   3.580   8.035  0.3968 -0.9697  1.6662
   80SLPC  H10Y 7455   1.049   3.496   8.088 -0.7016 -0.1607 -0.4522
   80SLPC  C311 7456   1.066   3.709   8.147 -0.0714  0.2942  0.4539
   80SLPC  H11X 7457   0.957   3.723   8.167 -0.1363  0.3835  0.0380
   80SLPC  H11Y 7458   1.104   3.798   8.092 -1.3630  0.1144 -0.7482
   80SLPC  C312 7459   1.128   3.706   8.289 -0.0500  1.0083 -0.7126
   80SLPC  H12X 7460   1.237   3.711   8.269  0.2203 -0.0694  0.4462
   80SLPC  H12Y 7461   1.113   3.603   8.328 -2.2725  1.4491 -0.3102
   80SLPC  C313 7462   1.065   3.799   8.390  0.0107  0.0140  0.7549
   80SLPC  H13X 7463   0.964   3.763   8.419  1.4377 -1.9341  3.5936
   80SLPC  H13Y 7464   1.061   3.900   8.345  0.7332 -0.9718 -1.6007
   80SLPC  C314 7465   1.141   3.805   8.520 -0.1859  0.0750  0.0250
   80SLPC  H14X 7466   1.248   3.816   8.493 -1.0090  0.0229 -3.4634
   80SLPC  H14Y 7467   1.123   3.717   8.586 -0.6423  0.3380  0.2512
   80SLPC  C315 7468   1.088   3.921   8.605  1.0706  0.4299 -0.2937
   80SLPC  H15X 7469   0.987   3.892   8.641  1.6396 -1.1578  0.0840
   80SLPC  H15Y 7470   1.089   4.019   8.554 -0.7850 -0.8983 -2.9787
   80SLPC  C316 7471   1.160   3.936   8.744 -0.3911 -0.3070  0.0113
   80SLPC  H16X 7472   1.176   3.835   8.788 -0.3467 -0.3340 -0.0667
   80SLPC  H16Y 7473   1.083   3.981   8.810  1.5294  2.5025  0.4378
   80SLPC  C317 7474   1.291   4.028   8.747  0.2401 -0.3321  0.1240
   80SLPC  H17X 7475   1.253   4.130   8.770 -0.2097 -0.1696 -1.2908
   80SLPC  H17Y 7476   1.349   4.023   8.652 -0.5621 -2.6245 -0.2855
   80SLPC  C318 7477   1.378   3.983   8.862  0.4712 -0.9560  0.2316
   80SLPC  H18X 7478   1.338   3.992   8.965 -0.2307 -1.0434 -0.0265
   80SLPC  H18Y 7479   1.470   4.044   8.857 -0.8704  1.1579  0.4934
   80SLPC  H18Z 7480   1.402   3.875   8.852 -0.0369 -1.0918  0.4407
   81SAPS     N 7481   1.348   5.391  11.024 -0.0034  0.0110 -0.1369
   81SAPS   HN1 7482   1.367   5.293  11.053  1.5213  0.4293  0.3312
   81SAPS   HN2 7483   1.269   5.441  11.070  1.3624  2.2774 -0.2131
   81SAPS   HN3 7484   1.319   5.391  10.924 -2.7117 -0.1008  0.6082
   81SAPS   C12 7485   1.469   5.478  11.035  0.3715  0.2528 -0.1963
   81SAPS  H12A 7486   1.467   5.549  10.954  1.8630 -1.8594 -2.1488
   81SAPS   C13 7487   1.462   5.568  11.159 -0.2238 -0.0844  0.1888
   81SAPS  O13A 7488   1.362   5.555  11.234  0.0551 -0.2728 -0.8453
   81SAPS  O13B 7489   1.556   5.649  11.181 -0.1800  0.0798  0.5043
   81SAPS   C11 7490   1.604   5.402  11.032 -0.7201  0.3920 -0.8142
   81SAPS  H11A 7491   1.622   5.341  11.123  2.0274  3.4386  0.7851
   81SAPS  H11B 7492   1.685   5.477  11.022 -0.8819  0.5274 -1.1255
   81SAPS     P 7493   1.702   5.346  10.786 -0.1235  0.5124 -0.0859
   81SAPS   O13 7494   1.839   5.385  10.827 -0.1286  0.3158  0.1633
   81SAPS   O14 7495   1.690   5.219  10.710  0.2825 -0.4564  0.4958
   81SAPS   O12 7496   1.620   5.315  10.921  0.2368 -0.7334 -0.0132
   81SAPS   O11 7497   1.619   5.455  10.708 -0.1753 -0.5873 -0.0073
   81SAPS    C1 7498   1.671   5.581  10.661  0.6068 -0.2049  0.5534
   81SAPS    HA 7499   1.592   5.658  10.675  0.3071 -0.6866  1.5552
   81SAPS    HB 7500   1.758   5.618  10.721 -0.9143  2.4515  1.2027
   81SAPS    C2 7501   1.708   5.579  10.507  0.2035  0.2677  0.8878
   81SAPS    HS 7502   1.612   5.576  10.450  0.3141  0.5042  0.6921
   81SAPS   O21 7503   1.804   5.481  10.470 -0.4081 -0.0350  0.0331
   81SAPS   C21 7504   1.757   5.375  10.410 -0.3781 -0.2728  0.1761
   81SAPS   O22 7505   1.641   5.338  10.401  0.1953  0.4459 -0.0776
   81SAPS   C22 7506   1.883   5.329  10.339 -0.0915  0.0657 -0.3308
   81SAPS   H2R 7507   1.930   5.414  10.285 -0.8732  1.5168  1.2232
   81SAPS   H2S 7508   1.956   5.302  10.418 -0.3926  0.2659  0.0169
   81SAPS    C3 7509   1.776   5.718  10.477 -0.1358 -0.5663  0.0446
   81SAPS    HX 7510   1.874   5.727  10.528 -0.4005  1.9507  0.1926
   81SAPS    HY 7511   1.701   5.793  10.511  0.1205 -0.6641  0.8396
   81SAPS   O31 7512   1.791   5.731  10.329  0.9106 -0.5231 -0.1707
   81SAPS   C31 7513   1.916   5.713  10.283  0.0326  0.3090  0.0799
   81SAPS   O32 7514   2.020   5.691  10.342 -0.3233 -0.7095 -0.1027
   81SAPS   C32 7515   1.902   5.710  10.135 -0.2418  0.0759 -0.1105
   81SAPS   H2X 7516   1.859   5.806  10.099  2.3465  3.1082  4.2376
   81SAPS   H2Y 7517   1.837   5.628  10.100 -2.1433  2.1715 -1.6432
   81SAPS   C23 7518   1.868   5.213  10.223 -0.4091 -0.5319  0.6131
   81SAPS   H3R 7519   1.848   5.113  10.268  0.1457 -0.4942  0.9500
   81SAPS   H3S 7520   1.966   5.215  10.172 -0.6234  1.0429  0.2433
   81SAPS   C24 7521   1.752   5.247  10.126 -0.8474  0.5040 -0.1544
   81SAPS   H4R 7522   1.771   5.351  10.093  5.2452 -0.1359  0.7306
   81SAPS   H4S 7523   1.655   5.240  10.179 -0.2143  1.3269  1.1254
   81SAPS   C25 7524   1.760   5.147  10.010  0.1843 -0.1417 -0.0533
   81SAPS   H5R 7525   1.751   5.040  10.034  0.2148 -0.6543 -2.2203
   81SAPS   C26 7526   1.783   5.171   9.874  0.3262  0.0155  0.1592
   81SAPS   H6R 7527   1.781   5.087   9.802 -0.4870 -1.5971  2.0434
   81SAPS   C27 7528   1.805   5.311   9.820  0.0213  0.5271  0.6471
   81SAPS   H7R 7529   1.771   5.391   9.889  0.1221  2.3336 -1.3436
   81SAPS   H7S 7530   1.741   5.320   9.729 -0.3993 -1.5663  0.7019
   81SAPS   C28 7531   1.945   5.330   9.784  0.0866  0.5975  0.5765
   81SAPS   H8R 7532   2.005   5.342   9.875  0.5094  1.4365  0.1946
   81SAPS   C29 7533   1.997   5.337   9.661 -0.1333  0.7190  0.1266
   81SAPS   H9R 7534   2.104   5.356   9.643  0.0754  0.4160  1.0147
   81SAPS  C210 7535   1.924   5.320   9.526  0.0384  0.2407 -0.7641
   81SAPS  H10R 7536   1.966   5.396   9.457 -0.8230  0.1442 -1.4052
   81SAPS  H10S 7537   1.817   5.346   9.541  0.1070  0.2029 -0.2025
   81SAPS  C211 7538   1.944   5.187   9.461  0.1182 -0.6956  0.1919
   81SAPS  H11R 7539   1.860   5.119   9.485  0.0314 -1.5359 -2.4118
   81SAPS  C212 7540   2.042   5.139   9.387  0.6567  0.0622  0.2728
   81SAPS  H12R 7541   2.025   5.036   9.352 -2.3786 -0.2831  2.4739
   81SAPS  C213 7542   2.177   5.204   9.351 -0.3384  0.4938  0.7784
   81SAPS  H13R 7543   2.238   5.121   9.310 -2.0052 -1.4681  2.1611
   81SAPS  H13S 7544   2.230   5.233   9.444 -1.1039  1.2420  0.9871
   81SAPS  C214 7545   2.156   5.309   9.248  0.0040 -0.0861  0.0489
   81SAPS  H14R 7546   2.115   5.399   9.295  3.0227  0.8968  0.8798
   81SAPS  C215 7547   2.182   5.312   9.115 -0.7186  0.4081 -0.3380
   81SAPS  H15R 7548   2.156   5.400   9.055  1.6478  0.6419 -1.0676
   81SAPS  C216 7549   2.225   5.198   9.019 -0.3662 -0.3676  0.1769
   81SAPS  H16R 7550   2.136   5.165   8.961 -1.0372  1.1025  0.3622
   81SAPS  H16S 7551   2.262   5.107   9.072  1.6887  1.0624  1.2585
   81SAPS  C217 7552   2.336   5.254   8.929 -0.1001  0.1854  0.1775
   81SAPS  H17R 7553   2.423   5.299   8.981 -0.3861  0.6465  0.2691
   81SAPS  H17S 7554   2.303   5.346   8.875  1.2954  0.0599 -0.9103
   81SAPS  C218 7555   2.389   5.155   8.823  0.2981  0.0766  0.2699
   81SAPS  H18R 7556   2.300   5.109   8.773  1.0700  1.0800 -2.1125
   81SAPS  H18S 7557   2.440   5.088   8.895  0.0677  0.4580  0.7943
   81SAPS  C219 7558   2.491   5.227   8.726 -0.2498  0.1190  0.5572
   81SAPS  H19R 7559   2.584   5.252   8.783 -0.3881  0.1710  0.7581
   81SAPS  H19S 7560   2.450   5.324   8.690 -2.0171 -1.0986 -0.7338
   81SAPS  C220 7561   2.527   5.149   8.608 -0.2965  0.2201  0.6126
   81SAPS  H20R 7562   2.440   5.133   8.541  0.0138 -1.2338  0.5307
   81SAPS  H20S 7563   2.561   5.049   8.644  0.3312  1.6455  4.1533
   81SAPS  H20T 7564   2.614   5.189   8.551 -1.5442  1.6763 -0.2890
   81SAPS   C33 7565   2.032   5.668  10.070  0.8905 -0.3644  0.8289
   81SAPS   H3X 7566   2.054   5.565  10.104  0.4677 -0.2720  1.3913
   81SAPS   H3Y 7567   2.122   5.719  10.113  1.7178 -1.8530  0.8944
   81SAPS   C34 7568   2.025   5.664   9.917  0.2362  0.0444  0.2274
   81SAPS   H4X 7569   1.939   5.600   9.890  1.0241 -0.9315 -0.0269
   81SAPS   H4Y 7570   2.113   5.609   9.875 -0.1730  0.1054 -0.7210
   81SAPS   C35 7571   2.011   5.808   9.860 -0.0818 -0.1673  0.2619
   81SAPS   H5X 7572   2.068   5.874   9.928 -0.3737  0.7088 -0.3321
   81SAPS   H5Y 7573   1.908   5.848   9.852 -0.0274 -0.1172 -0.1948
   81SAPS   C36 7574   2.061   5.823   9.717 -0.3864 -0.2438  0.3925
   81SAPS   H6X 7575   2.167   5.791   9.711 -0.8916 -1.7580 -0.8171
   81SAPS   H6Y 7576   2.061   5.932   9.698 -2.4243 -0.5485 -1.6715
   81SAPS   C37 7577   1.968   5.769   9.611  0.7093  0.8576 -0.6110
   81SAPS   H7X 7578   1.867   5.815   9.621  0.7787  1.1047 -1.0405
   81SAPS   H7Y 7579   1.955   5.659   9.619  0.3273  1.0159  1.3547
   81SAPS   C38 7580   2.011   5.802   9.465  0.3728 -0.1271  0.2972
   81SAPS   H8X 7581   2.101   5.742   9.442 -1.2527 -1.5514 -2.5155
   81SAPS   H8Y 7582   2.036   5.909   9.449  0.7990 -0.0932  1.1188
   81SAPS   C39 7583   1.908   5.758   9.359 -0.7358 -0.1521  0.1832
   81SAPS   H9X 7584   1.818   5.823   9.364 -2.0605 -1.9518  0.2894
   81SAPS   H9Y 7585   1.873   5.653   9.366  0.0355 -0.3798  0.6340
   81SAPS  C310 7586   1.974   5.774   9.223  0.3198  0.5671 -0.3542
   81SAPS  H10X 7587   2.057   5.700   9.227  0.7825  1.1156  0.3353
   81SAPS  H10Y 7588   2.010   5.879   9.218 -2.0218  1.4407  0.1663
   81SAPS  C311 7589   1.884   5.763   9.099 -0.2861 -0.3474  0.5137
   81SAPS  H11X 7590   1.951   5.760   9.010  0.1746 -2.2301  0.8944
   81SAPS  H11Y 7591   1.823   5.855   9.090  0.3340  0.0843  0.7780
   81SAPS  C312 7592   1.789   5.649   9.097  1.1182 -0.0545  0.2686
   81SAPS  H12X 7593   1.737   5.660   8.999  1.8222 -0.9966 -0.2160
   81SAPS  H12Y 7594   1.722   5.662   9.185  0.5726  0.5436 -0.2235
   81SAPS  C313 7595   1.866   5.506   9.100 -0.3960 -0.4692  0.0772
   81SAPS  H13X 7596   1.901   5.498   9.205 -0.6867  1.4834  0.3488
   81SAPS  H13Y 7597   1.949   5.516   9.027 -0.7567  2.3827 -0.0306
   81SAPS  C314 7598   1.762   5.399   9.041  0.0780 -0.4243 -0.1648
   81SAPS  H14X 7599   1.761   5.418   8.932 -0.1167 -0.1191 -0.1122
   81SAPS  H14Y 7600   1.661   5.429   9.077  1.1028  1.9192  0.8592
   81SAPS  C315 7601   1.793   5.250   9.070  0.3248 -0.1743 -0.7013
   81SAPS  H15X 7602   1.783   5.242   9.181  2.2394 -0.5497 -0.5430
   81SAPS  H15Y 7603   1.892   5.222   9.028  1.3372  0.9606  0.8640
   81SAPS  C316 7604   1.679   5.163   9.009  0.0011 -0.3834  0.5954
   81SAPS  H16X 7605   1.629   5.219   8.927  0.9786 -0.4369 -0.0563
   81SAPS  H16Y 7606   1.600   5.150   9.085 -0.3751 -1.9633 -0.0685
   81SAPS  C317 7607   1.744   5.038   8.949  0.2981  1.2451 -0.3011
   81SAPS  H17X 7608   1.656   4.976   8.919  0.9157 -0.4667  1.2788
   81SAPS  H17Y 7609   1.802   4.989   9.030  0.2131 -0.7471 -1.4198
   81SAPS  C318 7610   1.830   5.049   8.820  0.5872  0.3071 -0.0740
   81SAPS  H18X 7611   1.879   4.952   8.794  0.3345  0.2021 -0.1635
   81SAPS  H18Y 7612   1.911   5.122   8.842  1.3735  0.0823 -2.0986
   81SAPS  H18Z 7613   1.771   5.078   8.730  1.3590  1.2615 -0.2775
   82SAPS     N 7614   0.457   4.345  11.091 -0.2319  0.3664  0.3804
   82SAPS   HN1 7615   0.479   4.371  11.189  1.2781  0.8441 -0.0642
   82SAPS   HN2 7616   0.381   4.408  11.059 -0.7792 -0.5345 -0.0998
   82SAPS   HN3 7617   0.432   4.245  11.078  1.2348  0.1486 -0.9455
   82SAPS   C12 7618   0.580   4.376  11.013 -1.0383  0.3621  1.6559
   82SAPS  H12A 7619   0.631   4.451  11.070  0.7855 -0.1561  0.7319
   82SAPS   C13 7620   0.676   4.262  10.995 -0.3538  0.0971  0.9974
   82SAPS  O13A 7621   0.651   4.152  11.050 -0.1790  0.7976  0.3500
   82SAPS  O13B 7622   0.774   4.276  10.921  0.3498  0.7705 -0.2755
   82SAPS   C11 7623   0.529   4.435  10.874  0.4586  0.2139  0.7419
   82SAPS  H11A 7624   0.479   4.355  10.814  2.4759 -0.8281  0.4289
   82SAPS  H11B 7625   0.613   4.473  10.812 -1.0854  0.6246 -1.1539
   82SAPS     P 7626   0.344   4.587  10.772  0.3380 -0.0906 -0.0640
   82SAPS   O13 7627   0.199   4.558  10.804  0.1880  0.0747  0.0776
   82SAPS   O14 7628   0.379   4.726  10.764 -0.5984 -0.9241  0.2241
   82SAPS   O12 7629   0.428   4.535  10.895  0.3920 -0.1818  0.1002
   82SAPS   O11 7630   0.383   4.504  10.648  0.3552  0.2853 -0.1581
   82SAPS    C1 7631   0.492   4.553  10.569  0.8110 -0.2182 -0.1413
   82SAPS    HA 7632   0.554   4.630  10.619 -0.2800  1.7652 -1.7497
   82SAPS    HB 7633   0.563   4.468  10.560  0.1824 -0.5424 -2.2783
   82SAPS    C2 7634   0.460   4.615  10.426 -0.4043 -0.3318  0.4521
   82SAPS    HS 7635   0.435   4.721  10.446  1.8973  0.3662 -0.1763
   82SAPS   O21 7636   0.340   4.546  10.369 -0.2058  0.0366 -0.4847
   82SAPS   C21 7637   0.262   4.615  10.293 -0.1163  0.2349  0.5957
   82SAPS   O22 7638   0.280   4.733  10.268  0.1704 -0.3369 -0.3901
   82SAPS   C22 7639   0.164   4.526  10.221 -0.3121 -0.0577 -0.0617
   82SAPS   H2R 7640   0.216   4.446  10.164  0.4954 -0.1934  0.8493
   82SAPS   H2S 7641   0.098   4.477  10.296 -2.2387  0.9476 -1.0772
   82SAPS    C3 7642   0.576   4.617  10.326  0.9412  0.4536  0.1931
   82SAPS    HX 7643   0.584   4.510  10.295  2.7534  0.6616 -0.1108
   82SAPS    HY 7644   0.666   4.640  10.387  1.5786  1.9109 -1.2445
   82SAPS   O31 7645   0.559   4.698  10.211 -0.2634 -0.7653 -0.0055
   82SAPS   C31 7646   0.575   4.828  10.225  0.2705 -0.6671  0.8371
   82SAPS   O32 7647   0.603   4.886  10.331 -0.4771 -0.4130 -0.5171
   82SAPS   C32 7648   0.588   4.884  10.078  0.7294 -0.2383  0.3958
   82SAPS   H2X 7649   0.489   4.866  10.032  0.4142  1.9975  0.1216
   82SAPS   H2Y 7650   0.664   4.829  10.018 -0.2042 -0.7389 -0.3262
   82SAPS   C23 7651   0.073   4.601  10.124  0.3799 -0.3150  0.5710
   82SAPS   H3R 7652   0.044   4.698  10.170 -0.6354  0.4907 -1.6449
   82SAPS   H3S 7653  -0.024   4.547  10.124 -0.7070  1.5953  2.0519
   82SAPS   C24 7654   0.154   4.642   9.995  0.0916  0.8764  0.1777
   82SAPS   H4R 7655   0.214   4.553   9.966 -2.1168 -0.8582  0.7729
   82SAPS   H4S 7656   0.229   4.717  10.028 -0.2537  2.9150 -3.3877
   82SAPS   C25 7657   0.065   4.674   9.881  0.2179  0.3758 -0.7817
   82SAPS   H5R 7658  -0.035   4.627   9.883 -0.6356  2.0974 -1.6773
   82SAPS   C26 7659   0.084   4.772   9.794 -0.8966 -0.6270  0.1961
   82SAPS   H6R 7660   0.016   4.780   9.707 -2.2977  0.5176  1.3759
   82SAPS   C27 7661   0.214   4.856   9.788  0.3026  0.0034  0.1575
   82SAPS   H7R 7662   0.249   4.874   9.892 -0.8904  0.3720  0.5077
   82SAPS   H7S 7663   0.182   4.959   9.761  1.4346  0.7935  1.7873
   82SAPS   C28 7664   0.308   4.786   9.701 -0.0433  0.0392 -0.1660
   82SAPS   H8R 7665   0.381   4.721   9.751  1.6144  0.9953 -1.2835
   82SAPS   C29 7666   0.306   4.785   9.562 -0.6624 -0.2227  0.0329
   82SAPS   H9R 7667   0.391   4.730   9.518  1.9063  2.6467  1.2313
   82SAPS  C210 7668   0.211   4.846   9.467  0.5851 -0.2645  0.2575
   82SAPS  H10R 7669   0.264   4.924   9.408  1.5678 -0.8892  0.3123
   82SAPS  H10S 7670   0.122   4.899   9.507  0.2016 -0.1663 -0.7348
   82SAPS  C211 7671   0.151   4.746   9.363  0.5850 -0.0811 -0.3289
   82SAPS  H11R 7672   0.051   4.708   9.389  0.0204  1.1059 -0.7197
   82SAPS  C212 7673   0.211   4.700   9.251 -0.6399 -0.0808 -0.5381
   82SAPS  H12R 7674   0.149   4.640   9.183 -0.9043  1.7188 -1.9521
   82SAPS  C213 7675   0.347   4.745   9.208 -0.2548  0.8985 -0.0547
   82SAPS  H13R 7676   0.402   4.651   9.183 -1.2334 -0.0426  1.2215
   82SAPS  H13S 7677   0.400   4.788   9.296 -2.0644  0.4492  1.2865
   82SAPS  C214 7678   0.334   4.842   9.090 -0.2943  0.4695 -0.2515
   82SAPS  H14R 7679   0.363   4.942   9.126 -0.9072  0.3990  0.4484
   82SAPS  C215 7680   0.300   4.813   8.970  0.5452  0.6260 -0.7480
   82SAPS  H15R 7681   0.304   4.889   8.891  0.9357  2.1070  0.6610
   82SAPS  C216 7682   0.262   4.677   8.922  0.3947 -0.2714  0.0595
   82SAPS  H16R 7683   0.297   4.597   8.991  0.9697 -1.7900 -1.9625
   82SAPS  H16S 7684   0.305   4.641   8.826  0.5252 -0.7254  0.2849
   82SAPS  C217 7685   0.107   4.661   8.912 -0.7992 -0.6805  0.1066
   82SAPS  H17R 7686   0.071   4.730   8.833  1.7174 -0.3112 -0.7368
   82SAPS  H17S 7687   0.070   4.695   9.012 -0.3808 -0.4123  0.1724
   82SAPS  C218 7688   0.067   4.522   8.870  0.1084  0.3550 -0.5088
   82SAPS  H18R 7689   0.078   4.463   8.963 -0.5672  0.8186 -0.1280
   82SAPS  H18S 7690   0.131   4.475   8.791 -1.3177 -0.1797 -1.3678
   82SAPS  C219 7691  -0.076   4.502   8.824  0.9440 -0.2857 -0.3149
   82SAPS  H19R 7692  -0.104   4.590   8.762 -0.4342  0.1002  0.8220
   82SAPS  H19S 7693  -0.139   4.514   8.916  0.9404 -3.2325  0.1151
   82SAPS  C220 7694  -0.102   4.371   8.752  0.0022  1.1631 -0.0917
   82SAPS  H20R 7695  -0.208   4.357   8.723  0.5206 -0.6086 -1.1680
   82SAPS  H20S 7696  -0.082   4.286   8.820  1.7215  2.7236  1.4399
   82SAPS  H20T 7697  -0.033   4.358   8.666  1.0321  0.5629  0.8113
   82SAPS   C33 7698   0.624   5.034  10.077  0.0175  0.1973  0.7289
   82SAPS   H3X 7699   0.735   5.040  10.079  0.1486 -1.2016 -0.9961
   82SAPS   H3Y 7700   0.592   5.072  10.176 -1.2060 -1.4803  0.9832
   82SAPS   C34 7701   0.557   5.099   9.958  0.3988  0.1835 -0.0192
   82SAPS   H4X 7702   0.577   5.208   9.968  0.4176  0.0253  1.8717
   82SAPS   H4Y 7703   0.447   5.082   9.959  0.1686  1.6023 -0.5134
   82SAPS   C35 7704   0.602   5.028   9.825 -0.0003 -0.6337  0.1627
   82SAPS   H5X 7705   0.581   4.919   9.821 -0.1616 -0.5536 -1.4352
   82SAPS   H5Y 7706   0.712   5.042   9.827  0.0255 -0.5493 -1.5389
   82SAPS   C36 7707   0.566   5.080   9.682 -0.3330  0.4797  0.6048
   82SAPS   H6X 7708   0.585   5.188   9.669  1.2296  0.1840  0.2589
   82SAPS   H6Y 7709   0.460   5.061   9.656 -0.3791  3.4954 -1.6025
   82SAPS   C37 7710   0.655   5.011   9.566 -0.1738 -0.1086 -0.8810
   82SAPS   H7X 7711   0.624   4.904   9.574 -2.1244  0.5540  0.8333
   82SAPS   H7Y 7712   0.763   5.020   9.587  0.2048 -3.3846 -1.1014
   82SAPS   C38 7713   0.608   5.065   9.429 -0.1200 -0.3601 -0.0658
   82SAPS   H8X 7714   0.616   5.175   9.435  0.6317 -0.3328 -1.3579
   82SAPS   H8Y 7715   0.502   5.033   9.428 -1.5254  4.0837 -0.4754
   82SAPS   C39 7716   0.695   5.031   9.308 -0.6271  0.4992 -0.3187
   82SAPS   H9X 7717   0.666   4.931   9.268  0.6919 -0.7677  1.7954
   82SAPS   H9Y 7718   0.801   5.030   9.342 -0.7450  0.3488  0.0457
   82SAPS  C310 7719   0.667   5.134   9.200  0.9603  0.4822  0.3471
   82SAPS  H10X 7720   0.689   5.237   9.235 -0.6011  2.2326 -3.4467
   82SAPS  H10Y 7721   0.559   5.137   9.171  1.4034 -1.4226 -1.5782
   82SAPS  C311 7722   0.739   5.117   9.061  0.5906  0.7554 -0.3093
   82SAPS  H11X 7723   0.705   5.021   9.017  0.4029  0.6343  0.0968
   82SAPS  H11Y 7724   0.848   5.127   9.082  0.3516  3.3943 -0.2415
   82SAPS  C312 7725   0.718   5.227   8.953  0.2760 -0.0284  0.1186
   82SAPS  H12X 7726   0.782   5.211   8.864  0.8242  1.2286  0.2807
   82SAPS  H12Y 7727   0.745   5.327   8.992 -2.5957  0.5295  0.8310
   82SAPS  C313 7728   0.574   5.234   8.894  0.7656  0.5468  0.1635
   82SAPS  H13X 7729   0.504   5.277   8.969 -1.4569 -2.6606  0.0296
   82SAPS  H13Y 7730   0.544   5.129   8.877  2.2319 -0.4008  3.2130
   82SAPS  C314 7731   0.576   5.321   8.761 -1.2878 -0.2631 -0.1115
   82SAPS  H14X 7732   0.656   5.293   8.689 -0.9275 -0.4402  0.3530
   82SAPS  H14Y 7733   0.598   5.429   8.778  0.1005 -0.6339  0.4883
   82SAPS  C315 7734   0.442   5.316   8.675 -0.1845  0.3996  0.3254
   82SAPS  H15X 7735   0.352   5.363   8.720  0.4685  1.6947  0.3137
   82SAPS  H15Y 7736   0.421   5.207   8.673 -2.0865  0.7370  1.0263
   82SAPS  C316 7737   0.442   5.380   8.539 -0.3221 -0.2744  0.3122
   82SAPS  H16X 7738   0.533   5.345   8.485  1.2759  1.3440  1.9247
   82SAPS  H16Y 7739   0.452   5.490   8.551  4.9224 -0.3872 -1.6606
   82SAPS  C317 7740   0.315   5.341   8.462 -0.2265  0.3824  0.3066
   82SAPS  H17X 7741   0.233   5.346   8.536  0.5938 -0.8191  1.3172
   82SAPS  H17Y 7742   0.325   5.235   8.429  1.2424  1.0185 -1.3797
   82SAPS  C318 7743   0.279   5.422   8.336  0.2365  0.6461  0.5075
   82SAPS  H18X 7744   0.356   5.401   8.259 -0.2597  0.5444  0.0397
   82SAPS  H18Y 7745   0.272   5.531   8.359 -1.7595  0.8564 -0.9136
   82SAPS  H18Z 7746   0.179   5.403   8.292  0.1877  0.4521  0.7004
   83SAPS     N 7747   1.418   6.323  11.455  0.1909  0.8595 -0.2135
   83SAPS   HN1 7748   1.336   6.323  11.392 -1.5892  1.0343  2.0602
   83SAPS   HN2 7749   1.454   6.226  11.471  1.0700  1.0582 -0.9125
   83SAPS   HN3 7750   1.371   6.359  11.540 -0.7045 -0.7071 -0.0276
   83SAPS   C12 7751   1.534   6.399  11.413  0.1394 -0.6652 -0.1341
   83SAPS  H12A 7752   1.503   6.493  11.370  0.5926 -0.0222  0.9136
   83SAPS   C13 7753   1.629   6.436  11.527 -0.4797 -0.1034 -0.1271
   83SAPS  O13A 7754   1.612   6.393  11.646  0.1335 -0.2392  0.0378
   83SAPS  O13B 7755   1.745   6.478  11.496  0.1443  0.1816 -0.6074
   83SAPS   C11 7756   1.629   6.324  11.318 -0.4244 -0.0188  0.4368
   83SAPS  H11A 7757   1.688   6.254  11.380 -0.2811 -0.3885 -0.1190
   83SAPS  H11B 7758   1.694   6.399  11.268  1.1741 -1.5831  0.1560
   83SAPS     P 7759   1.615   6.150  11.116 -0.3687 -0.2318 -0.0272
   83SAPS   O13 7760   1.677   6.041  11.197 -0.4571 -0.1760  0.0199
   83SAPS   O14 7761   1.509   6.102  11.016  0.7306  0.1388  0.4802
   83SAPS   O12 7762   1.559   6.261  11.216 -0.0844 -0.4461  0.0711
   83SAPS   O11 7763   1.725   6.240  11.054  0.2684  0.4048  0.3041
   83SAPS    C1 7764   1.706   6.361  10.983 -0.4733 -0.5881 -0.5091
   83SAPS    HA 7765   1.606   6.408  10.991  0.7951  1.8513  1.9153
   83SAPS    HB 7766   1.780   6.437  11.017 -0.9735 -0.7751  1.0225
   83SAPS    C2 7767   1.735   6.341  10.830  0.0946 -0.7734  1.0130
   83SAPS    HS 7768   1.732   6.443  10.784 -1.7549 -1.6818 -0.9947
   83SAPS   O21 7769   1.631   6.259  10.769  0.1275 -0.1239  0.2889
   83SAPS   C21 7770   1.510   6.320  10.751 -0.2324 -0.1004  0.6101
   83SAPS   O22 7771   1.488   6.437  10.774  0.7019  0.2135 -0.7367
   83SAPS   C22 7772   1.412   6.214  10.700 -0.5456  0.8559  0.2127
   83SAPS   H2R 7773   1.467   6.118  10.696 -1.4527  0.3324  0.2157
   83SAPS   H2S 7774   1.333   6.189  10.773 -0.7565 -2.0536 -0.9614
   83SAPS    C3 7775   1.877   6.284  10.804 -0.5873  0.7125 -0.3651
   83SAPS    HX 7776   1.873   6.183  10.851 -0.4357  0.1867 -1.4654
   83SAPS    HY 7777   1.947   6.347  10.863 -3.3579  2.2236  1.4382
   83SAPS   O31 7778   1.904   6.290  10.662 -0.2207 -0.0721  0.4514
   83SAPS   C31 7779   2.005   6.215  10.630 -0.0281  0.0727  0.0986
   83SAPS   O32 7780   2.081   6.156  10.709  0.5059  0.0383  0.5084
   83SAPS   C32 7781   2.032   6.217  10.481 -0.2379  0.0749  0.5519
   83SAPS   H2X 7782   2.142   6.235  10.478 -0.7187  2.9334 -1.4039
   83SAPS   H2Y 7783   1.989   6.311  10.441 -2.6729 -1.4237 -0.4253
   83SAPS   C23 7784   1.357   6.246  10.551 -0.2649  0.2613 -0.2307
   83SAPS   H3R 7785   1.376   6.351  10.520 -0.2990  0.2986 -0.1268
   83SAPS   H3S 7786   1.247   6.230  10.545 -0.4832  1.5819  0.1526
   83SAPS   C24 7787   1.413   6.142  10.447 -0.2734 -0.0962  0.2551
   83SAPS   H4R 7788   1.353   6.159  10.355 -0.2546  2.2061  0.6515
   83SAPS   H4S 7789   1.374   6.046  10.489 -3.0589  1.2866  0.9680
   83SAPS   C25 7790   1.562   6.149  10.419  0.3498 -0.3441 -0.0357
   83SAPS   H5R 7791   1.619   6.171  10.510  0.9283  0.6362 -0.6224
   83SAPS   C26 7792   1.623   6.122  10.302 -0.6561 -0.3981 -0.2842
   83SAPS   H6R 7793   1.731   6.146  10.305 -0.6372 -0.3798 -0.9334
   83SAPS   C27 7794   1.560   6.080  10.167  0.3151  0.9683 -0.2599
   83SAPS   H7R 7795   1.630   6.098  10.082 -0.6569 -0.0788 -1.2997
   83SAPS   H7S 7796   1.464   6.134  10.152 -1.3422 -1.4442  1.3980
   83SAPS   C28 7797   1.525   5.928  10.173 -0.1623  0.2918 -0.5982
   83SAPS   H8R 7798   1.459   5.904  10.258  1.5359 -0.6599  0.4991
   83SAPS   C29 7799   1.542   5.831  10.076  0.2444  0.0035  0.0121
   83SAPS   H9R 7800   1.523   5.724  10.093  0.3077  0.3283  2.2669
   83SAPS  C210 7801   1.598   5.852   9.936 -0.5612  0.1877  0.6840
   83SAPS  H10R 7802   1.693   5.798   9.919 -1.5243 -1.1503 -0.6612
   83SAPS  H10S 7803   1.613   5.962   9.930  3.6774 -0.2621  1.6663
   83SAPS  C211 7804   1.504   5.814   9.829 -0.2158 -0.4482  0.7988
   83SAPS  H11R 7805   1.406   5.864   9.831 -0.0144 -0.0687  1.1049
   83SAPS  C212 7806   1.517   5.726   9.727 -0.6588  0.3878 -0.3416
   83SAPS  H12R 7807   1.429   5.703   9.665 -0.1249  1.0224 -1.3296
   83SAPS  C213 7808   1.643   5.652   9.688  0.1591 -0.7672 -0.9609
   83SAPS  H13R 7809   1.649   5.554   9.741  1.1613 -0.0086  0.3460
   83SAPS  H13S 7810   1.738   5.700   9.718 -0.1367 -1.0120  0.4038
   83SAPS  C214 7811   1.623   5.629   9.538  0.3006  0.4178  0.4047
   83SAPS  H14R 7812   1.666   5.713   9.482 -0.2564  1.1791  1.0883
   83SAPS  C215 7813   1.560   5.527   9.480 -0.3913 -0.2752 -0.3139
   83SAPS  H15R 7814   1.536   5.549   9.375  1.0498  1.8355 -0.2126
   83SAPS  C216 7815   1.499   5.410   9.555 -0.0596 -0.8205  0.4501
   83SAPS  H16R 7816   1.389   5.424   9.558 -0.0740 -1.0203  0.9378
   83SAPS  H16S 7817   1.521   5.405   9.664  1.3827  0.0236  0.2013
   83SAPS  C217 7818   1.532   5.262   9.516 -0.4375 -0.7952 -0.8251
   83SAPS  H17R 7819   1.487   5.200   9.596  0.1856 -1.9994 -1.3968
   83SAPS  H17S 7820   1.642   5.249   9.517 -0.2080  0.9458  1.6736
   83SAPS  C218 7821   1.481   5.221   9.381 -0.4685 -0.2733 -0.4801
   83SAPS  H18R 7822   1.548   5.238   9.294  1.5785 -2.5045  0.5789
   83SAPS  H18S 7823   1.373   5.245   9.379 -0.5352 -0.4041  0.7486
   83SAPS  C219 7824   1.475   5.062   9.369 -0.0743 -0.4076 -0.4578
   83SAPS  H19R 7825   1.468   5.035   9.477 -1.9784  1.5859 -0.0570
   83SAPS  H19S 7826   1.563   5.012   9.324  0.7797  0.1101  0.5999
   83SAPS  C220 7827   1.345   5.014   9.307 -0.6322  0.0751 -0.3190
   83SAPS  H20R 7828   1.356   4.904   9.298  1.7344  0.1607  0.9225
   83SAPS  H20S 7829   1.318   5.062   9.210  0.0145  0.0898 -0.5021
   83SAPS  H20T 7830   1.255   5.032   9.369 -2.1291 -0.5963 -2.2455
   83SAPS   C33 7831   1.999   6.089  10.403 -0.1209 -0.2435  0.0534
   83SAPS   H3X 7832   1.889   6.078  10.416 -0.2034 -0.3496 -0.6975
   83SAPS   H3Y 7833   2.039   6.001  10.458  0.6148  0.0412 -0.0197
   83SAPS   C34 7834   2.045   6.100  10.261 -0.6566 -0.1232 -0.4337
   83SAPS   H4X 7835   2.096   6.004  10.239 -2.0343 -0.6564 -1.3518
   83SAPS   H4Y 7836   2.126   6.177  10.264 -0.7366 -0.0995  2.7914
   83SAPS   C35 7837   1.950   6.129  10.140 -0.5677 -0.7520 -0.0687
   83SAPS   H5X 7838   1.893   6.223  10.159  2.4153  1.6133 -2.2969
   83SAPS   H5Y 7839   1.891   6.038  10.115 -1.3189 -0.0933 -0.7236
   83SAPS   C36 7840   2.040   6.159  10.013  0.7649 -0.0572  0.2134
   83SAPS   H6X 7841   2.123   6.085  10.014  0.2584 -0.6319  0.1114
   83SAPS   H6Y 7842   2.070   6.266  10.015  0.7261 -0.0208 -0.6746
   83SAPS   C37 7843   1.953   6.153   9.882  0.1358  0.8333  0.0814
   83SAPS   H7X 7844   1.853   6.199   9.897 -0.6717 -0.0866 -2.3133
   83SAPS   H7Y 7845   1.928   6.049   9.855 -0.9309  0.5768  1.9708
   83SAPS   C38 7846   2.031   6.221   9.766  0.1421 -0.2999  0.1228
   83SAPS   H8X 7847   2.126   6.165   9.761 -0.7502 -1.9142  0.9051
   83SAPS   H8Y 7848   2.057   6.321   9.806 -1.6517  1.0563 -1.9554
   83SAPS   C39 7849   1.964   6.217   9.632  0.2563  0.3791  0.2924
   83SAPS   H9X 7850   1.867   6.267   9.651  1.1938  1.6021  2.0265
   83SAPS   H9Y 7851   1.955   6.108   9.609  2.3093  0.6653 -2.0807
   83SAPS  C310 7852   2.047   6.305   9.527  0.5475  0.0016 -0.1243
   83SAPS  H10X 7853   2.152   6.273   9.542  0.7700  0.2879 -1.0524
   83SAPS  H10Y 7854   2.060   6.405   9.574 -0.8219 -0.4622  1.2962
   83SAPS  C311 7855   1.988   6.289   9.389 -0.0582 -0.0084 -0.0606
   83SAPS  H11X 7856   1.901   6.358   9.378  0.9723  1.1521 -1.1037
   83SAPS  H11Y 7857   1.951   6.189   9.357 -0.5066  0.1640 -0.0799
   83SAPS  C312 7858   2.088   6.333   9.280  0.4752 -0.6942 -0.3226
   83SAPS  H12X 7859   2.181   6.271   9.279 -0.5406 -2.2703 -2.2127
   83SAPS  H12Y 7860   2.120   6.438   9.293 -2.2467  0.2783 -1.1130
   83SAPS  C313 7861   2.019   6.313   9.141 -0.1074 -0.6139  0.7203
   83SAPS  H13X 7862   2.081   6.370   9.069  0.5268 -1.4112  0.6247
   83SAPS  H13Y 7863   1.922   6.363   9.124  0.2586 -0.6937 -1.8152
   83SAPS  C314 7864   2.027   6.172   9.090 -1.0124 -0.0316 -0.4999
   83SAPS  H14X 7865   1.970   6.100   9.153 -2.1317 -0.3844 -1.8781
   83SAPS  H14Y 7866   2.134   6.142   9.089  0.3181  3.9517  3.2573
   83SAPS  C315 7867   1.960   6.157   8.958 -0.1447 -0.3829  0.3329
   83SAPS  H15X 7868   1.978   6.052   8.928  1.0908 -0.3225  0.8443
   83SAPS  H15Y 7869   2.019   6.224   8.892 -0.3276  0.5909  1.1452
   83SAPS  C316 7870   1.803   6.185   8.949  0.2080 -0.4409  0.5505
   83SAPS  H16X 7871   1.780   6.293   8.964  0.2121 -0.4035  0.2989
   83SAPS  H16Y 7872   1.756   6.117   9.023 -0.7397 -0.9315 -0.4902
   83SAPS  C317 7873   1.749   6.146   8.813  0.0749  0.4245 -0.0153
   83SAPS  H17X 7874   1.811   6.185   8.730  1.4952 -1.9655 -0.1251
   83SAPS  H17Y 7875   1.648   6.192   8.803 -0.0689  0.3140  0.8494
   83SAPS  C318 7876   1.762   5.994   8.794 -0.1981 -0.5500 -0.6020
   83SAPS  H18X 7877   1.725   5.965   8.693  0.0967 -0.6503 -0.6819
   83SAPS  H18Y 7878   1.701   5.934   8.865  1.0562 -1.1511 -0.0062
   83SAPS  H18Z 7879   1.870   5.969   8.785  0.2510  2.0212 -2.7718
   84SAPS     N 7880   3.171   5.907  11.469 -0.4213 -0.0159  0.0572
   84SAPS   HN1 7881   3.167   5.874  11.568 -1.0381 -0.4868 -0.1203
   84SAPS   HN2 7882   3.078   5.945  11.442 -0.9002 -0.6244  0.8478
   84SAPS   HN3 7883   3.197   5.821  11.418 -0.0223  0.9944 -1.4575
   84SAPS   C12 7884   3.270   6.011  11.442 -0.0259  0.2852 -0.3117
   84SAPS  H12A 7885   3.214   6.102  11.427  2.9628  2.4886  1.1437
   84SAPS   C13 7886   3.371   6.037  11.558 -0.0550  0.9178 -0.3315
   84SAPS  O13A 7887   3.371   5.980  11.668 -0.1408 -0.1814 -0.0858
   84SAPS  O13B 7888   3.456   6.128  11.532  0.0087  0.1365  0.1134
   84SAPS   C11 7889   3.349   5.986  11.315 -0.0818  0.0173  0.0330
   84SAPS  H11A 7890   3.418   5.901  11.337  1.4151  1.0009 -0.7759
   84SAPS  H11B 7891   3.408   6.074  11.283  0.8430 -0.1203  1.3019
   84SAPS     P 7892   3.209   6.057  11.109 -0.0696 -0.1505  0.0225
   84SAPS   O13 7893   3.091   6.009  11.043 -0.0532  0.4364  0.3754
   84SAPS   O14 7894   3.199   6.190  11.184 -0.2120 -0.3104 -0.2382
   84SAPS   O12 7895   3.257   5.948  11.211 -0.0465  0.2778  0.2339
   84SAPS   O11 7896   3.332   6.067  11.014  0.4768 -0.0098  0.3566
   84SAPS    C1 7897   3.385   5.943  10.965  0.4139  0.1737  0.4100
   84SAPS    HA 7898   3.404   5.862  11.039 -1.8231 -1.4910 -0.7782
   84SAPS    HB 7899   3.315   5.913  10.884 -0.4913  2.3532  0.3653
   84SAPS    C2 7900   3.511   5.973  10.879  0.5750 -0.3203  0.2607
   84SAPS    HS 7901   3.578   6.026  10.950 -2.2313  0.3582  2.4925
   84SAPS   O21 7902   3.469   6.061  10.773  0.4561  0.0534  0.0164
   84SAPS   C21 7903   3.571   6.126  10.718  0.1488 -0.2882 -0.4469
   84SAPS   O22 7904   3.684   6.121  10.758 -0.0930  0.1728  0.1371
   84SAPS   C22 7905   3.522   6.218  10.609  0.0934  0.8342 -0.5755
   84SAPS   H2R 7906   3.412   6.217  10.592 -0.1305  1.9896  0.7016
   84SAPS   H2S 7907   3.550   6.321  10.638 -1.4893  0.8154  1.1307
   84SAPS    C3 7908   3.579   5.842  10.819  0.1060  0.0647 -0.6134
   84SAPS    HX 7909   3.594   5.772  10.904 -3.4783  0.1054  0.1576
   84SAPS    HY 7910   3.683   5.855  10.782  0.7910 -1.8254  0.5593
   84SAPS   O31 7911   3.489   5.779  10.725  0.6224  0.2048 -0.2695
   84SAPS   C31 7912   3.516   5.793  10.597 -0.1910  0.6433  0.6035
   84SAPS   O32 7913   3.613   5.859  10.557  0.2438  0.2978 -0.0130
   84SAPS   C32 7914   3.414   5.731  10.512 -0.5784 -0.3065  0.8806
   84SAPS   H2X 7915   3.323   5.794  10.515 -0.1676  0.2711  1.1380
   84SAPS   H2Y 7916   3.391   5.631  10.555 -0.6778 -0.4417  0.5172
   84SAPS   C23 7917   3.592   6.191  10.474  0.4999  0.5520 -0.3599
   84SAPS   H3R 7918   3.579   6.083  10.453  1.7706  0.3171  0.0656
   84SAPS   H3S 7919   3.702   6.202  10.476  0.5477 -0.1667  4.2499
   84SAPS   C24 7920   3.560   6.282  10.354 -0.2688 -0.3780  0.9806
   84SAPS   H4R 7921   3.451   6.282  10.330  0.2032  2.1418 -1.5232
   84SAPS   H4S 7922   3.600   6.239  10.259  0.9990  0.1145  1.2828
   84SAPS   C25 7923   3.608   6.428  10.365 -0.6925 -0.6552  0.3544
   84SAPS   H5R 7924   3.542   6.490  10.428  1.2672  2.2309 -0.3690
   84SAPS   C26 7925   3.718   6.481  10.306  0.7578  0.0119 -0.2231
   84SAPS   H6R 7926   3.755   6.579  10.340  2.2820  0.2003 -2.2911
   84SAPS   C27 7927   3.813   6.406  10.216 -0.6713 -0.5492 -0.2948
   84SAPS   H7R 7928   3.836   6.303  10.251  2.0973  0.5503  1.2694
   84SAPS   H7S 7929   3.916   6.447  10.222 -1.0282  0.3132 -0.0373
   84SAPS   C28 7930   3.770   6.397  10.070 -0.3011 -0.7730 -0.0253
   84SAPS   H8R 7931   3.674   6.343  10.066 -0.1445 -1.0377 -0.1847
   84SAPS   C29 7932   3.839   6.439   9.960  0.1334 -0.3150  0.0883
   84SAPS   H9R 7933   3.788   6.429   9.863  0.9333  1.6414 -0.5685
   84SAPS  C210 7934   3.977   6.506   9.958 -0.0147 -0.4257  0.0789
   84SAPS  H10R 7935   4.006   6.533  10.062 -2.4839  0.5329  0.5466
   84SAPS  H10S 7936   3.954   6.604   9.910  1.5482  1.0474  2.1868
   84SAPS  C211 7937   4.085   6.428   9.888 -0.1835 -0.6740 -0.4152
   84SAPS  H11R 7938   4.161   6.391   9.958 -0.0583 -0.6031 -0.5128
   84SAPS  C212 7939   4.098   6.403   9.751 -0.2278 -0.1244 -0.2676
   84SAPS  H12R 7940   4.183   6.346   9.711  0.1410 -0.3814  0.8703
   84SAPS  C213 7941   3.998   6.452   9.647 -0.0169  0.3550 -0.5880
   84SAPS  H13R 7942   4.039   6.545   9.603 -0.1365  0.4763 -0.4431
   84SAPS  H13S 7943   3.906   6.481   9.702  0.4792 -0.5407  0.7617
   84SAPS  C214 7944   3.948   6.351   9.541 -0.1667 -0.3568  0.3921
   84SAPS  H14R 7945   4.020   6.328   9.461  1.3845 -0.0516  1.6791
   84SAPS  C215 7946   3.826   6.290   9.526  0.3208 -0.7294  0.4029
   84SAPS  H15R 7947   3.813   6.209   9.452 -0.1282 -0.9361  0.7058
   84SAPS  C216 7948   3.704   6.305   9.612 -0.2313  0.8696 -0.4598
   84SAPS  H16R 7949   3.621   6.328   9.542 -0.2135  0.0345 -0.7713
   84SAPS  H16S 7950   3.722   6.391   9.679 -0.0427  0.9413 -0.6012
   84SAPS  C217 7951   3.701   6.176   9.691 -0.2235  0.3032 -0.6163
   84SAPS  H17R 7952   3.799   6.166   9.744 -1.5312 -0.4192  1.7220
   84SAPS  H17S 7953   3.682   6.081   9.636 -1.2255  0.2158 -0.1290
   84SAPS  C218 7954   3.588   6.178   9.802 -0.5549 -0.0502 -0.6534
   84SAPS  H18R 7955   3.488   6.150   9.762 -1.4782  1.4976  0.5257
   84SAPS  H18S 7956   3.578   6.281   9.842  0.9071  0.3330 -1.2644
   84SAPS  C219 7957   3.626   6.082   9.913 -0.4840 -0.1102 -0.1461
   84SAPS  H19R 7958   3.730   6.106   9.941 -0.1213 -0.6597 -0.9936
   84SAPS  H19S 7959   3.624   5.982   9.864 -0.3948 -0.4370  0.5143
   84SAPS  C220 7960   3.538   6.082  10.038 -0.0013  0.2632  0.2958
   84SAPS  H20R 7961   3.452   6.014  10.024  0.0017  0.3334 -0.0496
   84SAPS  H20S 7962   3.515   6.183  10.080 -0.3733 -0.3722  1.6415
   84SAPS  H20T 7963   3.591   6.036  10.125  1.1233  0.8530 -0.0637
   84SAPS   C33 7964   3.452   5.713  10.363  0.0038  0.0861 -0.1555
   84SAPS   H3X 7965   3.533   5.637  10.357 -0.1083  0.1159 -2.3047
   84SAPS   H3Y 7966   3.497   5.805  10.321  1.8115 -1.3929 -1.6101
   84SAPS   C34 7967   3.332   5.679  10.269 -0.3022 -0.5962 -0.1526
   84SAPS   H4X 7968   3.256   5.761  10.267 -0.9596 -1.2266 -1.2111
   84SAPS   H4Y 7969   3.275   5.591  10.306  1.8633 -1.9749 -0.0342
   84SAPS   C35 7970   3.375   5.662  10.116  0.6386 -0.6076 -0.3750
   84SAPS   H5X 7971   3.420   5.565  10.086  2.2466  0.4875 -1.5684
   84SAPS   H5Y 7972   3.456   5.736  10.096 -1.6805  2.2470  0.5033
   84SAPS   C36 7973   3.261   5.678  10.021  0.4174  0.0748  0.1627
   84SAPS   H6X 7974   3.209   5.776  10.030 -1.6412 -0.9369 -0.4023
   84SAPS   H6Y 7975   3.186   5.599  10.044  2.0862 -0.9711  2.1607
   84SAPS   C37 7976   3.305   5.659   9.878 -0.5406  0.3039 -0.1429
   84SAPS   H7X 7977   3.212   5.647   9.819 -0.8314 -1.6699  0.6822
   84SAPS   H7Y 7978   3.366   5.566   9.878 -1.0937 -0.0664 -1.0789
   84SAPS   C38 7979   3.392   5.768   9.813  0.1455 -0.2120  1.1765
   84SAPS   H8X 7980   3.488   5.775   9.869 -0.7397  0.3257  2.6782
   84SAPS   H8Y 7981   3.343   5.866   9.829  0.1556 -0.1951  1.1005
   84SAPS   C39 7982   3.413   5.750   9.661  0.4128  0.3844 -0.2549
   84SAPS   H9X 7983   3.315   5.759   9.610  1.6835  1.9466 -2.4811
   84SAPS   H9Y 7984   3.459   5.650   9.647 -0.9476 -0.3574  0.4048
   84SAPS  C310 7985   3.504   5.862   9.608  0.8506  0.4967 -0.7006
   84SAPS  H10X 7986   3.605   5.852   9.654  0.2186 -0.4799  0.5113
   84SAPS  H10Y 7987   3.466   5.964   9.628  0.4416  0.3446 -0.6977
   84SAPS  C311 7988   3.506   5.852   9.460 -0.1910  0.2681 -0.4899
   84SAPS  H11X 7989   3.404   5.822   9.426  0.5786 -1.2036 -1.5650
   84SAPS  H11Y 7990   3.569   5.768   9.425 -0.4427 -0.7764  1.4810
   84SAPS  C312 7991   3.542   5.981   9.385 -1.0489 -0.3920 -0.1111
   84SAPS  H12X 7992   3.634   6.027   9.427 -1.2083  0.0992 -0.2939
   84SAPS  H12Y 7993   3.465   6.058   9.407  0.8406  1.9711 -1.5325
   84SAPS  C313 7994   3.563   5.960   9.240 -0.3697 -0.1962  0.5847
   84SAPS  H13X 7995   3.470   5.931   9.187  0.7483 -0.9543 -1.0096
   84SAPS  H13Y 7996   3.636   5.876   9.238 -0.3486 -0.2317  2.4148
   84SAPS  C314 7997   3.628   6.084   9.166 -0.2771  0.4754  0.1138
   84SAPS  H14X 7998   3.651   6.172   9.230 -1.6903  1.4588 -0.7088
   84SAPS  H14Y 7999   3.544   6.118   9.102 -0.0881  0.8468  0.0588
   84SAPS  C315 8000   3.762   6.049   9.090  0.4427  0.0748  0.2793
   84SAPS  H15X 8001   3.733   5.962   9.027  4.6783 -0.4578 -1.0415
   84SAPS  H15Y 8002   3.832   6.025   9.173 -2.1319  0.0987  2.5409
   84SAPS  C316 8003   3.798   6.168   8.991  0.1803 -0.7220 -0.1133
   84SAPS  H16X 8004   3.831   6.261   9.041  0.4821 -0.7593 -0.2455
   84SAPS  H16Y 8005   3.704   6.193   8.937  0.2035  1.1884  0.6989
   84SAPS  C317 8006   3.911   6.130   8.892  0.6125 -0.5535 -0.5039
   84SAPS  H17X 8007   3.941   6.218   8.831 -2.7425  0.7737 -0.3285
   84SAPS  H17Y 8008   3.881   6.050   8.822 -0.7792 -0.9443  0.5151
   84SAPS  C318 8009   4.037   6.091   8.976  0.4206 -0.4353  0.0572
   84SAPS  H18X 8010   4.113   6.067   8.899  1.8489  1.1280  0.9647
   84SAPS  H18Y 8011   4.028   5.996   9.034  3.9410 -0.6092  0.4299
   84SAPS  H18Z 8012   4.056   6.171   9.050 -0.2949 -0.6502  0.4795
   85SAPS     N 8013   0.163   1.086  11.144  0.0427 -0.0457 -0.1399
   85SAPS   HN1 8014   0.070   1.080  11.098 -0.2797 -2.0149  0.7056
   85SAPS   HN2 8015   0.177   0.998  11.198  0.7920  0.1962  0.0743
   85SAPS   HN3 8016   0.152   1.171  11.203 -0.4861  2.4950 -3.6909
   85SAPS   C12 8017   0.267   1.107  11.043 -0.3636  0.1760  0.6838
   85SAPS  H12A 8018   0.252   1.207  11.006 -3.4022 -0.2318  0.6394
   85SAPS   C13 8019   0.416   1.099  11.077  0.1122  0.0909  0.2772
   85SAPS  O13A 8020   0.453   1.089  11.195  0.3775  0.1148 -0.7488
   85SAPS  O13B 8021   0.505   1.109  10.987 -0.1844 -0.0060 -0.6503
   85SAPS   C11 8022   0.245   0.992  10.932 -0.5892  0.7073  0.1972
   85SAPS  H11A 8023   0.338   0.973  10.874 -0.7269 -1.4092  0.6323
   85SAPS  H11B 8024   0.162   1.030  10.870 -0.6995  0.7262  0.3575
   85SAPS     P 8025   0.307   0.746  11.005  0.4005 -0.1770  0.0582
   85SAPS   O13 8026   0.435   0.785  11.076 -0.2238 -0.0999  0.8279
   85SAPS   O14 8027   0.232   0.629  11.062  0.1116 -0.0834  0.6529
   85SAPS   O12 8028   0.203   0.866  10.999  0.2856 -0.2167  0.1524
   85SAPS   O11 8029   0.331   0.728  10.853 -0.1303 -0.3461  0.3616
   85SAPS    C1 8030   0.234   0.666  10.770 -0.3152  0.9922 -0.0628
   85SAPS    HA 8031   0.227   0.557  10.791 -0.9385  1.0071 -0.1953
   85SAPS    HB 8032   0.136   0.718  10.773 -1.3939 -1.0229  0.5239
   85SAPS    C2 8033   0.299   0.677  10.629 -0.1004  0.5065 -0.8003
   85SAPS    HS 8034   0.402   0.638  10.636 -0.3449  0.3824  2.8061
   85SAPS   O21 8035   0.290   0.800  10.565  0.3827 -0.1258 -0.7250
   85SAPS   C21 8036   0.378   0.894  10.608  0.1284  0.5105 -0.8025
   85SAPS   O22 8037   0.475   0.876  10.676  0.5828  0.6288  0.0993
   85SAPS   C22 8038   0.351   1.018  10.523  0.0566  0.2595  0.2963
   85SAPS   H2R 8039   0.371   0.987  10.418 -1.9906 -0.5005  0.1081
   85SAPS   H2S 8040   0.245   1.051  10.533 -0.4194 -1.3179  0.6632
   85SAPS    C3 8041   0.231   0.578  10.536  0.5603 -0.4191 -0.3311
   85SAPS    HX 8042   0.131   0.625  10.525  0.9325 -0.1205 -2.8110
   85SAPS    HY 8043   0.209   0.481  10.585  0.9576 -1.3732 -1.9974
   85SAPS   O31 8044   0.297   0.569  10.410  0.0052 -0.0008 -0.2897
   85SAPS   C31 8045   0.408   0.494  10.405 -0.5011  0.8995 -0.0770
   85SAPS   O32 8046   0.460   0.441  10.502  0.3075 -0.1307 -0.1242
   85SAPS   C32 8047   0.446   0.468  10.254  0.0951  0.0692 -0.2994
   85SAPS   H2X 8048   0.462   0.569  10.211  0.6574  0.2877  0.3959
   85SAPS   H2Y 8049   0.365   0.408  10.209 -0.0967 -0.9848  1.4231
   85SAPS   C23 8050   0.450   1.128  10.562  0.3949 -0.4515 -0.4068
   85SAPS   H3R 8051   0.555   1.093  10.556 -0.2857 -2.2364 -2.4990
   85SAPS   H3S 8052   0.422   1.153  10.667  1.3250  1.0059 -0.4925
   85SAPS   C24 8053   0.430   1.264  10.487 -0.4336 -0.7508 -0.0034
   85SAPS   H4R 8054   0.476   1.340  10.554 -0.1552 -1.5159  0.6805
   85SAPS   H4S 8055   0.322   1.281  10.468 -0.5374  1.1241  2.0188
   85SAPS   C25 8056   0.511   1.251  10.363  0.0908 -0.0014 -0.5062
   85SAPS   H5R 8057   0.620   1.247  10.374  0.0635 -0.0646 -0.2534
   85SAPS   C26 8058   0.468   1.266  10.237 -0.4986  0.4093 -0.2988
   85SAPS   H6R 8059   0.542   1.248  10.157 -2.2848 -2.7845 -1.3423
   85SAPS   C27 8060   0.328   1.303  10.194  1.1418  1.1334 -0.3974
   85SAPS   H7R 8061   0.277   1.342  10.285 -0.1122 -2.1248  0.3815
   85SAPS   H7S 8062   0.271   1.212  10.163  0.0896  2.0947 -1.2961
   85SAPS   C28 8063   0.312   1.388  10.073 -0.0787 -0.5210  0.4843
   85SAPS   H8R 8064   0.321   1.492  10.108 -1.0647  0.7111 -2.7718
   85SAPS   C29 8065   0.302   1.358   9.939  0.4487 -0.1775  0.2592
   85SAPS   H9R 8066   0.308   1.439   9.864  0.1414 -1.8043 -1.5653
   85SAPS  C210 8067   0.299   1.219   9.876  0.1176  0.8866  0.4778
   85SAPS  H10R 8068   0.203   1.166   9.896  0.9703 -0.0453  2.2814
   85SAPS  H10S 8069   0.362   1.141   9.925  0.2506  0.1191 -0.8840
   85SAPS  C211 8070   0.337   1.213   9.729  0.5198  0.4074 -0.0091
   85SAPS  H11R 8071   0.438   1.173   9.710 -0.0106 -0.4634 -1.0572
   85SAPS  C212 8072   0.269   1.254   9.620 -0.9983  0.3476  1.3094
   85SAPS  H12R 8073   0.306   1.231   9.519  0.3646  3.0167  1.1504
   85SAPS  C213 8074   0.138   1.323   9.614  1.1536 -0.0955  0.0773
   85SAPS  H13R 8075   0.113   1.355   9.717  1.4365  0.9107 -0.1588
   85SAPS  H13S 8076   0.064   1.245   9.585  0.7746  0.1692  0.3318
   85SAPS  C214 8077   0.143   1.431   9.514 -0.5418 -0.4644 -0.8283
   85SAPS  H14R 8078   0.214   1.514   9.523 -0.7425 -0.3315 -0.4636
   85SAPS  C215 8079   0.060   1.433   9.409 -0.4236  1.1475 -0.6390
   85SAPS  H15R 8080   0.079   1.514   9.337  1.1476  1.7138  0.3973
   85SAPS  C216 8081  -0.044   1.332   9.365  0.0667  0.0212 -0.2433
   85SAPS  H16R 8082  -0.122   1.386   9.308 -1.0584  0.0136  1.2697
   85SAPS  H16S 8083  -0.081   1.261   9.443 -2.2014 -0.5611 -1.8063
   85SAPS  C217 8084   0.030   1.232   9.263  0.2159 -0.4890  0.6508
   85SAPS  H17R 8085  -0.051   1.162   9.235 -1.1454 -0.2826  3.8733
   85SAPS  H17S 8086   0.108   1.185   9.327 -0.8160 -1.9039  0.8812
   85SAPS  C218 8087   0.098   1.288   9.135 -0.6706 -0.2057 -0.2176
   85SAPS  H18R 8088   0.168   1.370   9.163  2.5863 -3.2915  1.0597
   85SAPS  H18S 8089   0.019   1.326   9.067 -0.6922  0.8640  0.3921
   85SAPS  C219 8090   0.167   1.175   9.047  0.6128  0.4881  1.1403
   85SAPS  H19R 8091   0.198   1.223   8.952  1.2077 -0.8042  0.6675
   85SAPS  H19S 8092   0.091   1.097   9.025  2.8559 -1.3652 -0.2395
   85SAPS  C220 8093   0.288   1.113   9.109 -1.1222 -0.0427  0.7921
   85SAPS  H20R 8094   0.342   1.047   9.037  2.1301  1.8440  1.4238
   85SAPS  H20S 8095   0.267   1.053   9.200  1.3761 -0.1606  1.3224
   85SAPS  H20T 8096   0.368   1.185   9.136 -0.3387 -0.9959  1.0281
   85SAPS   C33 8097   0.575   0.396  10.220 -0.1242  0.3121  0.0480
   85SAPS   H3X 8098   0.576   0.288  10.246  1.4276  0.1051 -0.8240
   85SAPS   H3Y 8099   0.652   0.436  10.290  1.8657 -0.5905 -1.5701
   85SAPS   C34 8100   0.628   0.429  10.076 -0.2817  0.2400 -0.2958
   85SAPS   H4X 8101   0.721   0.372  10.058  0.0375  0.5520  0.3645
   85SAPS   H4Y 8102   0.651   0.538  10.074  1.2158 -0.0639 -0.1143
   85SAPS   C35 8103   0.534   0.397   9.963 -0.2139  0.3093 -0.6377
   85SAPS   H5X 8104   0.428   0.420   9.987 -0.3104 -1.5787  0.9338
   85SAPS   H5Y 8105   0.524   0.293   9.924 -0.3529  0.0116  0.1720
   85SAPS   C36 8106   0.570   0.457   9.829  0.8342 -0.5650 -0.7946
   85SAPS   H6X 8107   0.661   0.403   9.795  1.7908  0.7403 -0.3348
   85SAPS   H6Y 8108   0.578   0.566   9.847  0.7208 -0.7186  0.2272
   85SAPS   C37 8109   0.472   0.441   9.716 -0.1251  0.5793  0.0665
   85SAPS   H7X 8110   0.372   0.481   9.743  0.1411  1.1195  0.2481
   85SAPS   H7Y 8111   0.474   0.331   9.701  0.5357  0.7275 -0.9120
   85SAPS   C38 8112   0.523   0.503   9.583  0.0292  0.1551 -0.1428
   85SAPS   H8X 8113   0.631   0.483   9.566 -0.0168  0.7211 -1.1740
   85SAPS   H8Y 8114   0.497   0.610   9.597 -2.7557 -0.3876 -0.8754
   85SAPS   C39 8115   0.435   0.469   9.461  0.1163  0.3734  0.3661
   85SAPS   H9X 8116   0.465   0.530   9.374  0.9128  1.9502  1.7331
   85SAPS   H9Y 8117   0.331   0.481   9.498 -0.2056 -2.6947  0.6288
   85SAPS  C310 8118   0.448   0.321   9.421  0.4044 -0.3646  0.3563
   85SAPS  H10X 8119   0.368   0.259   9.467  1.3857 -3.1429 -1.5847
   85SAPS  H10Y 8120   0.553   0.290   9.440  1.4782  2.0625 -1.2587
   85SAPS  C311 8121   0.435   0.289   9.269  0.5338  0.7853  0.2671
   85SAPS  H11X 8122   0.330   0.308   9.235  0.7348 -0.1678 -0.9246
   85SAPS  H11Y 8123   0.468   0.183   9.265 -3.5087 -0.5563 -0.2698
   85SAPS  C312 8124   0.522   0.370   9.172 -0.0775  0.6230  0.0751
   85SAPS  H12X 8125   0.625   0.359   9.212  0.1884 -1.9941 -1.1793
   85SAPS  H12Y 8126   0.499   0.478   9.181  1.3536  1.1556 -2.3206
   85SAPS  C313 8127   0.492   0.322   9.029 -0.3371 -0.6694  0.2871
   85SAPS  H13X 8128   0.381   0.317   9.024 -0.4634  0.8488  1.2944
   85SAPS  H13Y 8129   0.540   0.222   9.032  0.3913 -0.4277 -2.0258
   85SAPS  C314 8130   0.537   0.407   8.902 -0.0222  0.1588  0.3540
   85SAPS  H14X 8131   0.648   0.404   8.900 -0.0322 -0.1910  0.3337
   85SAPS  H14Y 8132   0.513   0.515   8.914 -3.1613 -0.4927  0.4286
   85SAPS  C315 8133   0.479   0.355   8.766 -0.4269  0.5028  0.4727
   85SAPS  H15X 8134   0.471   0.245   8.769  1.7175  0.3467  1.3101
   85SAPS  H15Y 8135   0.552   0.380   8.686 -2.1890 -0.0936 -1.3627
   85SAPS  C316 8136   0.343   0.404   8.723 -0.6922 -0.7498  0.5899
   85SAPS  H16X 8137   0.268   0.386   8.803 -0.7724 -1.3874  0.3754
   85SAPS  H16Y 8138   0.316   0.346   8.632 -0.5221  1.6771 -1.0402
   85SAPS  C317 8139   0.333   0.556   8.698 -0.0324  0.0951  0.2046
   85SAPS  H17X 8140   0.408   0.597   8.627 -0.9119  0.4564 -0.5319
   85SAPS  H17Y 8141   0.338   0.608   8.796  0.8947 -0.9888  0.7453
   85SAPS  C318 8142   0.202   0.588   8.629  0.6557 -0.2459 -0.3032
   85SAPS  H18X 8143   0.123   0.539   8.689 -0.9091 -0.2125 -2.2430
   85SAPS  H18Y 8144   0.195   0.534   8.532  1.7261  1.5630 -1.4227
   85SAPS  H18Z 8145   0.169   0.694   8.613 -4.4446 -1.4628  1.1355
   86SAPS     N 8146   2.534   1.092  11.410 -0.2997 -0.1214 -0.4657
   86SAPS   HN1 8147   2.592   1.109  11.495 -2.1421  2.5807  0.3144
   86SAPS   HN2 8148   2.581   1.148  11.336  0.7932 -1.0051 -0.4415
   86SAPS   HN3 8149   2.440   1.133  11.425  0.5968  2.7172 -2.1908
   86SAPS   C12 8150   2.519   0.951  11.381 -0.1407 -0.2772 -0.1582
   86SAPS  H12A 8151   2.613   0.909  11.348  1.6632  2.3492  1.3744
   86SAPS   C13 8152   2.459   0.855  11.490  0.7607 -0.3541 -0.3535
   86SAPS  O13A 8153   2.449   0.895  11.613 -0.1075  0.4063  0.0492
   86SAPS  O13B 8154   2.465   0.729  11.481 -1.2542 -0.1736 -0.0055
   86SAPS   C11 8155   2.432   0.924  11.251 -0.5041 -0.5147 -0.5677
   86SAPS  H11A 8156   2.330   0.957  11.281  0.1844 -1.1105  2.5141
   86SAPS  H11B 8157   2.421   0.814  11.239 -0.7139 -0.3567 -1.9348
   86SAPS     P 8158   2.497   0.907  11.008  0.0080  0.0648 -0.1681
   86SAPS   O13 8159   2.606   0.815  11.040 -0.0590 -0.4339 -0.0684
   86SAPS   O14 8160   2.360   0.849  10.978  0.1127  0.3531  0.0443
   86SAPS   O12 8161   2.472   0.995  11.137  0.1976  0.2214  0.1814
   86SAPS   O11 8162   2.544   1.007  10.892  0.0356  0.8526 -0.0805
   86SAPS    C1 8163   2.460   1.036  10.783 -0.4616 -0.2307  0.3393
   86SAPS    HA 8164   2.351   1.034  10.806 -0.3562  1.0004  0.9942
   86SAPS    HB 8165   2.471   1.145  10.764  1.0182 -0.6594 -1.2973
   86SAPS    C2 8166   2.511   0.955  10.659  0.3676 -0.6775 -0.0995
   86SAPS    HS 8167   2.447   0.986  10.573  2.8529  2.0304 -1.0521
   86SAPS   O21 8168   2.491   0.812  10.672 -0.3025 -0.1735 -0.3857
   86SAPS   C21 8169   2.366   0.782  10.681 -0.4526 -0.1450 -0.6267
   86SAPS   O22 8170   2.266   0.852  10.670 -0.3179 -0.3415  0.6051
   86SAPS   C22 8171   2.358   0.635  10.729  0.5024 -0.8136 -0.0977
   86SAPS   H2R 8172   2.445   0.631  10.797 -0.2445 -2.1113  0.7993
   86SAPS   H2S 8173   2.261   0.628  10.783  0.4559 -0.7742 -0.1774
   86SAPS    C3 8174   2.660   0.980  10.636 -0.2339 -0.0256  0.0139
   86SAPS    HX 8175   2.720   0.975  10.729  2.3888  0.4909 -1.5917
   86SAPS    HY 8176   2.683   1.078  10.588  1.8979 -0.5011 -0.0058
   86SAPS   O31 8177   2.712   0.888  10.542 -0.6123 -0.7076 -0.4281
   86SAPS   C31 8178   2.764   0.776  10.587 -0.9834 -0.0358 -0.5372
   86SAPS   O32 8179   2.763   0.739  10.705 -0.0699 -0.1643 -0.0859
   86SAPS   C32 8180   2.823   0.706  10.474 -0.0984 -0.5662 -0.6097
   86SAPS   H2X 8181   2.893   0.630  10.514  1.3281 -0.2825 -2.5003
   86SAPS   H2Y 8182   2.895   0.773  10.422 -0.7068  3.1917  3.0749
   86SAPS   C23 8183   2.375   0.531  10.623  0.1825 -0.4931  0.4306
   86SAPS   H3R 8184   2.402   0.434  10.671 -0.0664 -0.7251  0.0998
   86SAPS   H3S 8185   2.466   0.559  10.566  0.3829  0.2743  1.1091
   86SAPS   C24 8186   2.264   0.498  10.520  0.6136 -0.1402  0.0545
   86SAPS   H4R 8187   2.280   0.399  10.473 -0.4922 -0.0195 -0.5966
   86SAPS   H4S 8188   2.261   0.581  10.445  0.0927  0.1272  0.3638
   86SAPS   C25 8189   2.132   0.494  10.593  0.8344 -0.1752  0.0394
   86SAPS   H5R 8190   2.135   0.421  10.675  0.6218 -0.9495 -0.6261
   86SAPS   C26 8191   2.017   0.546  10.547  0.0885  0.7641  0.0929
   86SAPS   H6R 8192   1.929   0.530  10.613 -1.2174 -1.4209 -2.0959
   86SAPS   C27 8193   1.988   0.622  10.419 -0.2453  0.4102 -0.2373
   86SAPS   H7R 8194   1.903   0.572  10.369 -1.2787  1.0071  0.8905
   86SAPS   H7S 8195   2.077   0.599  10.357 -1.0606 -0.9014 -0.9291
   86SAPS   C28 8196   1.950   0.765  10.434  0.4383 -0.2433  0.5910
   86SAPS   H8R 8197   1.969   0.806  10.535  1.3563 -0.9363  0.6948
   86SAPS   C29 8198   1.876   0.844  10.345 -0.1200  0.8263 -1.0466
   86SAPS   H9R 8199   1.844   0.943  10.380  0.9448  0.6345  0.5344
   86SAPS  C210 8200   1.818   0.805  10.212  0.2221  0.1580 -0.5563
   86SAPS  H10R 8201   1.708   0.797  10.226  0.2284 -0.1232 -0.6515
   86SAPS  H10S 8202   1.846   0.703  10.178 -0.5256 -0.8271  1.7093
   86SAPS  C211 8203   1.859   0.898  10.104 -0.2150 -0.2450 -0.1130
   86SAPS  H11R 8204   1.954   0.951  10.117 -0.3934  1.0530 -3.5864
   86SAPS  C212 8205   1.801   0.923   9.985  0.8223 -0.1074  0.0897
   86SAPS  H12R 8206   1.846   1.008   9.931 -1.3782  2.6927  2.4691
   86SAPS  C213 8207   1.673   0.863   9.923 -0.4785  0.1375  0.2541
   86SAPS  H13R 8208   1.616   0.930   9.855 -0.1468 -0.5481 -0.7009
   86SAPS  H13S 8209   1.610   0.837  10.011  0.0464 -2.1474 -0.0208
   86SAPS  C214 8210   1.694   0.742   9.835 -0.3294 -0.9576  0.5012
   86SAPS  H14R 8211   1.687   0.643   9.883  0.4352 -0.7210  1.1164
   86SAPS  C215 8212   1.710   0.745   9.699  0.0319  0.1611  0.2523
   86SAPS  H15R 8213   1.745   0.657   9.644  1.8496 -0.6696  2.6385
   86SAPS  C216 8214   1.706   0.867   9.609 -0.7607 -0.1910  0.3043
   86SAPS  H16R 8215   1.742   0.955   9.666 -1.5745  0.0140  0.5056
   86SAPS  H16S 8216   1.600   0.884   9.583  0.0646  2.2406 -1.6276
   86SAPS  C217 8217   1.801   0.856   9.483  0.2016 -0.0365  0.0990
   86SAPS  H17R 8218   1.904   0.827   9.513  0.3700 -0.5125 -0.8991
   86SAPS  H17S 8219   1.795   0.959   9.442 -2.6037  0.4454  1.6433
   86SAPS  C218 8220   1.751   0.755   9.381 -0.2074  0.1555 -0.7813
   86SAPS  H18R 8221   1.652   0.795   9.351 -0.1449 -0.5789 -1.9959
   86SAPS  H18S 8222   1.731   0.659   9.432  0.2285  1.0009  1.0147
   86SAPS  C219 8223   1.839   0.725   9.259 -0.2076 -0.5322 -0.2209
   86SAPS  H19R 8224   1.941   0.696   9.291 -0.5185 -1.5352 -0.1377
   86SAPS  H19S 8225   1.852   0.823   9.209  1.6254 -0.4558  0.3753
   86SAPS  C220 8226   1.798   0.614   9.153  0.6465  0.2773 -0.8687
   86SAPS  H20R 8227   1.891   0.605   9.091  1.7422  0.5267  0.7108
   86SAPS  H20S 8228   1.711   0.633   9.087 -1.4397 -0.0798  1.6889
   86SAPS  H20T 8229   1.786   0.519   9.209  2.6927  1.4769  1.7257
   86SAPS   C33 8230   2.724   0.639  10.380 -0.0566  0.1190 -0.1676
   86SAPS   H3X 8231   2.667   0.717  10.324  1.0004  0.7930 -0.3406
   86SAPS   H3Y 8232   2.662   0.564  10.432  1.6856 -0.9870  0.3344
   86SAPS   C34 8233   2.814   0.560  10.280  0.3943  0.5670  0.3294
   86SAPS   H4X 8234   2.752   0.474  10.246 -0.1834  0.0722  2.5158
   86SAPS   H4Y 8235   2.901   0.515  10.331 -1.1559 -1.7271  1.0168
   86SAPS   C35 8236   2.864   0.649  10.161 -0.0639 -0.3493  0.5707
   86SAPS   H5X 8237   2.925   0.581  10.097  0.5502  0.3248  0.4251
   86SAPS   H5Y 8238   2.931   0.734  10.187 -0.5324 -0.5070  2.3483
   86SAPS   C36 8239   2.755   0.702  10.062  0.8499  0.1164 -0.7094
   86SAPS   H6X 8240   2.701   0.789  10.106  0.4051 -1.6580  2.3445
   86SAPS   H6Y 8241   2.677   0.626  10.040 -0.9918  1.7249  0.1221
   86SAPS   C37 8242   2.805   0.749   9.928 -0.6764 -0.3256  0.4355
   86SAPS   H7X 8243   2.813   0.658   9.865  0.3540  1.1545 -1.6268
   86SAPS   H7Y 8244   2.894   0.812   9.947  0.1050 -1.2482 -0.0970
   86SAPS   C38 8245   2.697   0.841   9.858  0.6164 -0.4569  0.3140
   86SAPS   H8X 8246   2.706   0.947   9.888 -0.7263 -0.2855  0.1220
   86SAPS   H8Y 8247   2.598   0.810   9.897  1.8295 -1.6877  2.5107
   86SAPS   C39 8248   2.710   0.848   9.707 -0.9314  0.4918  0.3060
   86SAPS   H9X 8249   2.706   0.749   9.657  1.5543  1.5281 -2.0841
   86SAPS   H9Y 8250   2.812   0.886   9.687 -1.0234  0.8047  0.4121
   86SAPS  C310 8251   2.598   0.931   9.639  0.1689  0.6987  0.2897
   86SAPS  H10X 8252   2.583   1.032   9.682  0.0231 -0.0557  2.0511
   86SAPS  H10Y 8253   2.501   0.878   9.646  1.1679 -0.8883  2.3683
   86SAPS  C311 8254   2.619   0.946   9.494  0.4143 -0.1335 -0.6379
   86SAPS  H11X 8255   2.727   0.953   9.471  0.5310 -2.4186 -0.8173
   86SAPS  H11Y 8256   2.560   1.035   9.462 -1.2918 -1.0706 -0.1544
   86SAPS  C312 8257   2.580   0.820   9.405 -0.5022 -0.1683 -0.5412
   86SAPS  H12X 8258   2.475   0.786   9.415 -0.3214 -0.6198 -0.1308
   86SAPS  H12Y 8259   2.646   0.735   9.435  1.8001  0.7611 -2.7817
   86SAPS  C313 8260   2.606   0.836   9.252  0.2499  0.3775  0.5313
   86SAPS  H13X 8261   2.630   0.737   9.210  0.3824  2.0587 -3.5670
   86SAPS  H13Y 8262   2.704   0.887   9.239 -1.2692  4.1331  2.9172
   86SAPS  C314 8263   2.495   0.894   9.162  1.1015 -0.5801 -0.2480
   86SAPS  H14X 8264   2.536   0.931   9.066  2.2615  2.3820  1.3268
   86SAPS  H14Y 8265   2.457   0.990   9.204  1.8397  0.5329 -2.0888
   86SAPS  C315 8266   2.392   0.787   9.130 -0.2029  0.2882 -0.3328
   86SAPS  H15X 8267   2.338   0.755   9.222 -2.0786  1.6426 -0.9180
   86SAPS  H15Y 8268   2.440   0.700   9.081 -0.6753 -0.6446  0.8524
   86SAPS  C316 8269   2.273   0.846   9.054  0.2577  0.2563  0.5653
   86SAPS  H16X 8270   2.306   0.879   8.953  1.2644 -0.6380  0.5967
   86SAPS  H16Y 8271   2.239   0.932   9.115 -3.3823 -0.9821  0.4019
   86SAPS  C317 8272   2.154   0.750   9.046  1.1504  0.8683  0.1410
   86SAPS  H17X 8273   2.123   0.705   9.143  0.6640 -2.4125 -1.4501
   86SAPS  H17Y 8274   2.194   0.660   8.994 -1.3131  0.6610 -1.4725
   86SAPS  C318 8275   2.043   0.798   8.946  0.5190 -0.3867  0.7596
   86SAPS  H18X 8276   2.007   0.892   8.993  1.5282 -0.1146  1.0031
   86SAPS  H18Y 8277   1.956   0.729   8.935 -0.4055  0.9869 -0.5996
   86SAPS  H18Z 8278   2.079   0.817   8.843  0.8543 -1.1519  0.7328
   87SAPS     N 8279   2.624   1.412  11.105  0.0338  0.7070  0.4657
   87SAPS   HN1 8280   2.590   1.496  11.054 -1.4113  0.4255  0.9276
   87SAPS   HN2 8281   2.662   1.342  11.038 -0.1295 -1.3344  2.4573
   87SAPS   HN3 8282   2.544   1.362  11.150  1.2794 -2.2567 -0.5400
   87SAPS   C12 8283   2.738   1.445  11.198  0.1786  0.4519 -0.5838
   87SAPS  H12A 8284   2.697   1.527  11.256 -0.5826  0.3018 -0.9042
   87SAPS   C13 8285   2.787   1.332  11.295 -0.0562 -0.0665  0.0635
   87SAPS  O13A 8286   2.724   1.227  11.300  0.1878  0.6160  0.0572
   87SAPS  O13B 8287   2.873   1.358  11.381 -0.1485 -0.3506 -0.3259
   87SAPS   C11 8288   2.857   1.499  11.118 -0.1391  0.2285 -0.1320
   87SAPS  H11A 8289   2.897   1.415  11.058  1.4749 -0.4713  1.8531
   87SAPS  H11B 8290   2.946   1.525  11.178  0.3733 -1.2036 -0.2513
   87SAPS     P 8291   2.902   1.657  10.920 -0.2807 -0.1887 -0.1500
   87SAPS   O13 8292   3.021   1.723  10.984 -0.0575  0.1756  0.5472
   87SAPS   O14 8293   2.922   1.547  10.827 -0.6425 -0.2842  0.0194
   87SAPS   O12 8294   2.813   1.605  11.035 -0.0563 -0.1535 -0.2101
   87SAPS   O11 8295   2.816   1.772  10.876 -0.4891  0.2415 -0.1326
   87SAPS    C1 8296   2.720   1.738  10.770  0.1108 -0.2138  0.6993
   87SAPS    HA 8297   2.698   1.630  10.757  1.6642 -0.7512  2.4043
   87SAPS    HB 8298   2.623   1.788  10.792  0.2601  0.7537 -0.7811
   87SAPS    C2 8299   2.758   1.801  10.634  0.8814  0.5694 -0.4040
   87SAPS    HS 8300   2.676   1.781  10.561  1.5783  2.8784 -1.8619
   87SAPS   O21 8301   2.887   1.756  10.582  0.0042  1.0227  0.1528
   87SAPS   C21 8302   2.874   1.646  10.502 -0.7864 -0.0481  0.2686
   87SAPS   O22 8303   2.773   1.603  10.454  0.2428  0.5184 -0.1211
   87SAPS   C22 8304   3.006   1.592  10.471 -0.0237  0.4491  0.1752
   87SAPS   H2R 8305   3.082   1.673  10.466 -0.0370  0.3691 -1.8068
   87SAPS   H2S 8306   3.022   1.520  10.554 -0.3846  0.3620  0.1707
   87SAPS    C3 8307   2.761   1.955  10.644  0.0953  0.3496 -0.1218
   87SAPS    HX 8308   2.856   1.981  10.696 -0.1906  0.6843  0.2387
   87SAPS    HY 8309   2.682   1.976  10.719 -0.5874  0.4127 -0.8607
   87SAPS   O31 8310   2.746   2.020  10.518  0.0176 -0.2634  0.0208
   87SAPS   C31 8311   2.629   2.041  10.473  0.1030  1.0015  0.2633
   87SAPS   O32 8312   2.519   2.019  10.529  0.5488  0.2321 -0.0109
   87SAPS   C32 8313   2.644   2.109  10.334 -0.0844 -0.3202 -0.5758
   87SAPS   H2X 8314   2.678   2.032  10.261  0.4402 -0.3695 -0.2816
   87SAPS   H2Y 8315   2.730   2.180  10.332 -0.8558  0.7623  2.1436
   87SAPS   C23 8316   3.022   1.498  10.343 -0.1672 -0.2658  0.4176
   87SAPS   H3R 8317   2.948   1.416  10.339 -0.1344 -0.2782  0.0578
   87SAPS   H3S 8318   3.122   1.449  10.347  0.3797  0.7997 -0.0634
   87SAPS   C24 8319   3.023   1.578  10.211  0.2559  1.0448 -0.1146
   87SAPS   H4R 8320   2.932   1.640  10.203 -0.8262 -0.4490  0.4361
   87SAPS   H4S 8321   3.005   1.504  10.129  1.4898  0.7056 -0.0924
   87SAPS   C25 8322   3.141   1.670  10.189 -0.0683 -0.7925 -0.3346
   87SAPS   H5R 8323   3.134   1.772  10.228  2.1610 -1.2250  1.3081
   87SAPS   C26 8324   3.248   1.628  10.116  0.2487 -0.4277 -0.7009
   87SAPS   H6R 8325   3.334   1.694  10.097 -0.4053 -0.0389 -2.4972
   87SAPS   C27 8326   3.258   1.489  10.062  0.2868 -0.6736  0.0401
   87SAPS   H7R 8327   3.231   1.486   9.954 -1.0421 -2.0369  0.3970
   87SAPS   H7S 8328   3.205   1.416  10.127  0.6474 -1.7009 -0.8147
   87SAPS   C28 8329   3.401   1.449  10.062  0.4795  0.0758  0.0948
   87SAPS   H8R 8330   3.421   1.383  10.147 -3.2014 -0.9032  0.2629
   87SAPS   C29 8331   3.500   1.463   9.965 -0.1055 -0.0389  0.0665
   87SAPS   H9R 8332   3.601   1.427   9.990  1.3169  3.1666 -0.8076
   87SAPS  C210 8333   3.488   1.543   9.838 -0.4222 -0.6050  0.2181
   87SAPS  H10R 8334   3.584   1.598   9.823 -0.5871 -0.0345  1.1917
   87SAPS  H10S 8335   3.410   1.621   9.845  0.2104  0.0332  0.1587
   87SAPS  C211 8336   3.449   1.456   9.723 -0.4811 -0.1273 -0.1601
   87SAPS  H11R 8337   3.515   1.370   9.701 -0.3570  0.2922 -1.4713
   87SAPS  C212 8338   3.360   1.487   9.625 -0.0343  0.8734  0.1052
   87SAPS  H12R 8339   3.341   1.409   9.550 -0.7314 -3.8743  4.8813
   87SAPS  C213 8340   3.274   1.611   9.612 -0.2589  0.1752 -0.5666
   87SAPS  H13R 8341   3.214   1.611   9.519  2.8246  1.5472 -2.6452
   87SAPS  H13S 8342   3.330   1.704   9.590 -1.6128  1.1397  0.0025
   87SAPS  C214 8343   3.178   1.640   9.724  0.6830  0.3046  0.0438
   87SAPS  H14R 8344   3.207   1.717   9.797 -2.6709  0.8472  0.9298
   87SAPS  C215 8345   3.057   1.590   9.743 -0.8655 -0.3675 -0.3684
   87SAPS  H15R 8346   2.986   1.630   9.817 -0.7558  0.7983 -0.8723
   87SAPS  C216 8347   3.008   1.480   9.658  0.5348  0.2980  0.5451
   87SAPS  H16R 8348   2.940   1.415   9.717  1.1787 -1.0904 -0.2200
   87SAPS  H16S 8349   3.088   1.417   9.614 -0.1293  0.6685 -1.2172
   87SAPS  C217 8350   2.926   1.533   9.534  0.1340  0.4089 -0.2059
   87SAPS  H17R 8351   2.869   1.447   9.494  0.7277  0.0425 -0.2530
   87SAPS  H17S 8352   3.006   1.564   9.463 -1.2570  0.4624 -1.7886
   87SAPS  C218 8353   2.834   1.657   9.553  0.0400  0.2318  0.2167
   87SAPS  H18R 8354   2.892   1.750   9.574  1.0968 -0.1445 -0.9362
   87SAPS  H18S 8355   2.764   1.639   9.637  1.1224 -0.0293  1.0785
   87SAPS  C219 8356   2.750   1.685   9.423 -0.0826 -0.0313 -0.2514
   87SAPS  H19R 8357   2.706   1.588   9.393 -1.1927  0.3642  0.0820
   87SAPS  H19S 8358   2.817   1.714   9.339  1.8823 -1.5412  0.7583
   87SAPS  C220 8359   2.653   1.796   9.429  0.4986 -0.2530 -0.5417
   87SAPS  H20R 8360   2.597   1.792   9.526 -0.9553 -3.2985 -1.4561
   87SAPS  H20S 8361   2.587   1.794   9.340  0.3547  2.3475 -0.5437
   87SAPS  H20T 8362   2.695   1.899   9.431 -0.8258  0.3150 -1.2322
   87SAPS   C33 8363   2.516   2.182  10.284  1.0111  0.0713  0.1751
   87SAPS   H3X 8364   2.476   2.263  10.348 -2.0681  0.7382 -2.4475
   87SAPS   H3Y 8365   2.431   2.110  10.278  2.9144 -2.1364 -1.4550
   87SAPS   C34 8366   2.526   2.238  10.143 -0.1691 -0.7953 -0.2783
   87SAPS   H4X 8367   2.621   2.293  10.127  0.3590 -1.5551  0.1962
   87SAPS   H4Y 8368   2.454   2.320  10.122  0.2683 -0.0438  1.1182
   87SAPS   C35 8369   2.516   2.133  10.028  0.3517  0.5066  0.2172
   87SAPS   H5X 8370   2.411   2.100  10.012  0.2230  1.4580 -0.9807
   87SAPS   H5Y 8371   2.588   2.050  10.044  0.3215  0.7057  1.4749
   87SAPS   C36 8372   2.554   2.200   9.888  0.2247 -0.0281  0.2475
   87SAPS   H6X 8373   2.661   2.219   9.867  0.1603  1.1222  0.9681
   87SAPS   H6Y 8374   2.508   2.301   9.899 -3.2631 -1.4273 -0.5981
   87SAPS   C37 8375   2.489   2.130   9.769 -0.0608  0.0503 -0.5336
   87SAPS   H7X 8376   2.379   2.116   9.773 -0.0679 -0.0077 -0.9498
   87SAPS   H7Y 8377   2.535   2.028   9.766  0.3118  0.1092  1.6960
   87SAPS   C38 8378   2.524   2.198   9.642  0.8670  0.1563  0.8711
   87SAPS   H8X 8379   2.633   2.209   9.624  0.2931  1.1562 -2.3543
   87SAPS   H8Y 8380   2.484   2.302   9.641  0.6715  0.1136  2.7439
   87SAPS   C39 8381   2.469   2.120   9.523  0.2616 -0.7913  0.3187
   87SAPS   H9X 8382   2.358   2.126   9.515  0.4220  0.8820 -0.9324
   87SAPS   H9Y 8383   2.498   2.014   9.541  2.1378 -0.6975 -1.9646
   87SAPS  C310 8384   2.525   2.179   9.390  0.3607 -0.3008 -0.4466
   87SAPS  H10X 8385   2.635   2.164   9.403  0.2227  1.7363  3.6233
   87SAPS  H10Y 8386   2.515   2.289   9.378 -0.1431  0.3086  4.3901
   87SAPS  C311 8387   2.458   2.121   9.266 -0.4087 -0.2269 -0.0005
   87SAPS  H11X 8388   2.347   2.125   9.273 -0.3041  0.3132  1.5492
   87SAPS  H11Y 8389   2.478   2.013   9.254  1.4847  0.0783  0.1880
   87SAPS  C312 8390   2.480   2.193   9.138  0.4630  0.0114  0.5989
   87SAPS  H12X 8391   2.588   2.194   9.115 -0.0395  0.0190 -1.9899
   87SAPS  H12Y 8392   2.452   2.301   9.142  1.5836  0.4412 -2.0693
   87SAPS  C313 8393   2.408   2.133   9.020 -0.3220 -0.3347 -0.5055
   87SAPS  H13X 8394   2.298   2.130   9.033  0.0558 -1.4827  2.8887
   87SAPS  H13Y 8395   2.448   2.030   9.007  0.4305  0.0049 -0.9165
   87SAPS  C314 8396   2.439   2.218   8.890 -0.4924  0.3910  0.4781
   87SAPS  H14X 8397   2.549   2.234   8.882 -0.2074 -1.3377  0.7283
   87SAPS  H14Y 8398   2.389   2.317   8.901 -2.6548 -0.7913  1.5851
   87SAPS  C315 8399   2.387   2.159   8.763  0.4831  0.2616  0.2229
   87SAPS  H15X 8400   2.276   2.149   8.763  0.6991 -2.9572  2.6927
   87SAPS  H15Y 8401   2.403   2.049   8.763  0.1155  0.2059  0.2649
   87SAPS  C316 8402   2.442   2.237   8.647  0.0089  0.2106  0.0369
   87SAPS  H16X 8403   2.412   2.198   8.548  0.0394  0.1997  0.0326
   87SAPS  H16Y 8404   2.553   2.237   8.644  0.0031  3.1082 -1.6300
   87SAPS  C317 8405   2.370   2.373   8.635  0.9108  0.1153  0.6827
   87SAPS  H17X 8406   2.441   2.455   8.661 -3.1817  3.8249  0.7107
   87SAPS  H17Y 8407   2.280   2.379   8.700  0.9062 -0.1288  0.6988
   87SAPS  C318 8408   2.323   2.399   8.492  0.1378 -0.0200 -0.4168
   87SAPS  H18X 8409   2.244   2.329   8.457 -0.0834  1.3177 -2.7204
   87SAPS  H18Y 8410   2.410   2.391   8.424 -0.8040 -2.1064 -1.4204
   87SAPS  H18Z 8411   2.287   2.504   8.485 -3.4098 -1.2936 -2.6289
   88SAPS     N 8412   4.793   6.672  10.689 -0.0605  0.2265  0.4856
   88SAPS   HN1 8413   4.730   6.689  10.770 -0.2339  0.8074  0.2258
   88SAPS   HN2 8414   4.766   6.744  10.620  0.3952 -0.2133 -0.1544
   88SAPS   HN3 8415   4.772   6.584  10.638  0.1840  1.4514 -1.7534
   88SAPS   C12 8416   4.933   6.682  10.747 -0.2585  0.7099 -0.1002
   88SAPS  H12A 8417   5.006   6.681  10.667 -0.6215 -0.0723 -0.4344
   88SAPS   C13 8418   4.953   6.820  10.818  0.2519  0.6778 -0.0994
   88SAPS  O13A 8419   4.863   6.908  10.816 -0.1375  0.2159  0.4028
   88SAPS  O13B 8420   5.074   6.850  10.854 -0.0061  0.2492  0.4258
   88SAPS   C11 8421   4.964   6.572  10.845  0.4485 -0.0017  0.0730
   88SAPS  H11A 8422   4.896   6.575  10.932 -0.5040  2.1272 -0.7063
   88SAPS  H11B 8423   5.067   6.586  10.885  0.3726 -1.4146  0.7854
   88SAPS     P 8424   4.995   6.312  10.857 -0.1116 -0.1738 -0.1940
   88SAPS   O13 8425   5.038   6.352  10.994 -0.3235 -0.3746  0.4477
   88SAPS   O14 8426   4.885   6.221  10.838  0.0347 -0.0229 -0.4513
   88SAPS   O12 8427   4.961   6.446  10.780  0.2539  0.2836  0.0103
   88SAPS   O11 8428   5.127   6.254  10.779  0.7080  0.1663  0.1112
   88SAPS    C1 8429   5.245   6.332  10.778 -0.6770  0.2335  0.0492
   88SAPS    HA 8430   5.282   6.343  10.882  0.2380  1.0899 -0.3621
   88SAPS    HB 8431   5.311   6.257  10.729  0.0521  0.7802  0.1904
   88SAPS    C2 8432   5.261   6.457  10.684  0.8799  0.0317  0.4437
   88SAPS    HS 8433   5.204   6.532  10.742 -1.6168  0.7231 -2.7913
   88SAPS   O21 8434   5.190   6.425  10.562  0.1478 -0.2541 -0.0014
   88SAPS   C21 8435   5.153   6.528  10.482 -0.0701  0.1891 -0.5422
   88SAPS   O22 8436   5.181   6.644  10.502  0.1529 -0.6515  0.1114
   88SAPS   C22 8437   5.069   6.485  10.363  0.2383  0.0358 -0.8195
   88SAPS   H2R 8438   5.057   6.582  10.311 -0.2474  0.0943 -0.5972
   88SAPS   H2S 8439   5.121   6.404  10.307 -3.3598 -1.2730 -2.3740
   88SAPS    C3 8440   5.412   6.486  10.656  0.6552  0.6167  0.5252
   88SAPS    HX 8441   5.471   6.497  10.749 -0.1515  0.3398  1.0691
   88SAPS    HY 8442   5.428   6.582  10.601  1.1395  0.7764  0.9401
   88SAPS   O31 8443   5.469   6.374  10.588 -0.1809 -0.1956 -0.7827
   88SAPS   C31 8444   5.474   6.378  10.457  0.0792  0.4142 -0.2064
   88SAPS   O32 8445   5.439   6.477  10.395  0.1004 -0.4528 -0.2121
   88SAPS   C32 8446   5.508   6.244  10.395 -0.0642  0.6212 -0.7599
   88SAPS   H2X 8447   5.514   6.164  10.471  1.4939  0.3160 -1.1972
   88SAPS   H2Y 8448   5.610   6.262  10.356  0.8152  1.5218  1.8670
   88SAPS   C23 8449   4.932   6.440  10.414 -0.2587  0.2046 -0.0788
   88SAPS   H3R 8450   4.886   6.524  10.469  0.9045  2.3582 -2.2739
   88SAPS   H3S 8451   4.932   6.351  10.480  0.6979 -1.1935 -1.8969
   88SAPS   C24 8452   4.836   6.402  10.291  0.3833 -0.2810  0.3498
   88SAPS   H4R 8453   4.745   6.344  10.318  0.5620 -0.6054  0.2506
   88SAPS   H4S 8454   4.902   6.332  10.236 -1.1950 -1.8327  0.3917
   88SAPS   C25 8455   4.803   6.533  10.209 -0.0090  0.4354  1.2357
   88SAPS   H5R 8456   4.750   6.605  10.273 -0.4541 -1.0683  2.5961
   88SAPS   C26 8457   4.835   6.559  10.079  0.2998  0.5293  0.4713
   88SAPS   H6R 8458   4.805   6.657  10.040 -0.7299 -0.3321 -0.9647
   88SAPS   C27 8459   4.901   6.469   9.975 -0.0329  0.0629  0.0883
   88SAPS   H7R 8460   4.840   6.478   9.882 -2.6221  0.9323  1.8249
   88SAPS   H7S 8461   4.897   6.363  10.005  2.8474  0.1596  0.9596
   88SAPS   C28 8462   5.045   6.487   9.949 -0.1982  0.0450 -0.5684
   88SAPS   H8R 8463   5.115   6.496  10.033 -1.9474 -1.3276  1.0778
   88SAPS   C29 8464   5.102   6.496   9.828 -0.6838 -0.2382 -0.4456
   88SAPS   H9R 8465   5.211   6.492   9.815 -0.1850 -1.5567  3.6270
   88SAPS  C210 8466   5.025   6.504   9.693  0.6640  0.3019  0.0888
   88SAPS  H10R 8467   4.940   6.572   9.719  0.2932  0.1089 -0.6001
   88SAPS  H10S 8468   4.966   6.412   9.668  1.3324 -0.8340  2.5874
   88SAPS  C211 8469   5.087   6.570   9.570  0.7095  0.4733  0.7788
   88SAPS  H11R 8470   5.171   6.636   9.594 -0.6809  2.0002  1.5241
   88SAPS  C212 8471   5.057   6.548   9.441  0.2342 -0.4883  0.3936
   88SAPS  H12R 8472   5.099   6.609   9.361  2.3647 -0.7839  1.2697
   88SAPS  C213 8473   4.942   6.467   9.382  0.2934 -0.1182 -1.0629
   88SAPS  H13R 8474   4.865   6.538   9.346  1.6202  1.7824 -0.2069
   88SAPS  H13S 8475   4.888   6.415   9.464  2.9459  0.8143  1.3732
   88SAPS  C214 8476   5.000   6.374   9.281 -0.5085 -0.4835 -0.9439
   88SAPS  H14R 8477   5.059   6.288   9.317  2.5544  0.9548 -2.3756
   88SAPS  C215 8478   4.976   6.377   9.148 -0.3220 -0.5593 -0.4170
   88SAPS  H15R 8479   5.005   6.296   9.081  0.8718 -0.0819 -0.4868
   88SAPS  C216 8480   4.885   6.470   9.077 -0.8192  0.0231  0.6045
   88SAPS  H16R 8481   4.917   6.466   8.971  1.3381 -1.5635  1.2791
   88SAPS  H16S 8482   4.876   6.578   9.100 -1.9422  0.2931 -1.0662
   88SAPS  C217 8483   4.745   6.421   9.090  0.2192 -0.1396  0.4100
   88SAPS  H17R 8484   4.704   6.454   9.188  2.1822  2.1990  0.4757
   88SAPS  H17S 8485   4.731   6.311   9.078 -2.2773  0.3146 -1.1971
   88SAPS  C218 8486   4.649   6.488   8.984  0.3626 -0.9153  0.0653
   88SAPS  H18R 8487   4.676   6.596   8.980 -0.7562 -0.6782 -1.0028
   88SAPS  H18S 8488   4.547   6.478   9.027 -0.1484 -0.5792 -1.0614
   88SAPS  C219 8489   4.649   6.413   8.852 -0.6329  0.3543 -0.1006
   88SAPS  H19R 8490   4.607   6.311   8.864 -1.7539  0.8677  0.4519
   88SAPS  H19S 8491   4.754   6.405   8.817 -0.8550 -2.0702 -0.2930
   88SAPS  C220 8492   4.563   6.486   8.739 -0.0542  0.8539  0.0145
   88SAPS  H20R 8493   4.455   6.466   8.751  0.0163  1.1528  1.2263
   88SAPS  H20S 8494   4.599   6.459   8.637  0.8360  2.0524 -0.0084
   88SAPS  H20T 8495   4.573   6.596   8.753  1.6289  0.7599 -0.2744
   88SAPS   C33 8496   5.422   6.207  10.270  0.1048 -0.4545  0.6321
   88SAPS   H3X 8497   5.325   6.260  10.261  1.5503  2.4083  1.3021
   88SAPS   H3Y 8498   5.402   6.097  10.268 -1.6987 -0.1156 -2.5512
   88SAPS   C34 8499   5.508   6.221  10.135  0.5845  0.5964 -0.9770
   88SAPS   H4X 8500   5.600   6.159  10.127  2.2372  2.5539  1.7812
   88SAPS   H4Y 8501   5.549   6.324  10.146  1.5935 -0.0989  2.1709
   88SAPS   C35 8502   5.424   6.205  10.012  0.0151  0.1492 -0.3159
   88SAPS   H5X 8503   5.345   6.282  10.023 -0.7406 -0.5560 -0.7631
   88SAPS   H5Y 8504   5.376   6.104  10.014  1.3437 -0.4957 -0.4852
   88SAPS   C36 8505   5.515   6.208   9.882  0.1850 -0.3820 -0.0072
   88SAPS   H6X 8506   5.584   6.122   9.873  1.3949  0.5804 -0.1116
   88SAPS   H6Y 8507   5.577   6.298   9.901 -0.8247 -0.2571  3.0917
   88SAPS   C37 8508   5.429   6.219   9.754 -0.1028 -0.3966 -0.1773
   88SAPS   H7X 8509   5.376   6.317   9.751  0.9241  0.2138  1.0858
   88SAPS   H7Y 8510   5.344   6.149   9.763 -0.5348  0.0889 -0.4331
   88SAPS   C38 8511   5.517   6.209   9.628 -0.4084  0.4183 -0.2860
   88SAPS   H8X 8512   5.568   6.111   9.641 -0.4974  0.3213 -0.6592
   88SAPS   H8Y 8513   5.592   6.291   9.637  0.4518 -0.3675 -0.1691
   88SAPS   C39 8514   5.452   6.215   9.493  0.2480  0.5156  0.4736
   88SAPS   H9X 8515   5.363   6.282   9.490  0.9134  1.4889  1.7815
   88SAPS   H9Y 8516   5.434   6.110   9.460  1.8753 -0.5188  2.7619
   88SAPS  C310 8517   5.547   6.274   9.387 -0.1449 -0.1436  0.5873
   88SAPS  H10X 8518   5.645   6.220   9.388  0.1338  0.3080 -0.8200
   88SAPS  H10Y 8519   5.563   6.383   9.402  1.6714 -0.2560 -0.4089
   88SAPS  C311 8520   5.477   6.263   9.253  0.1910  0.3573 -0.4074
   88SAPS  H11X 8521   5.413   6.172   9.248 -1.1613  1.2793 -0.0413
   88SAPS  H11Y 8522   5.556   6.249   9.176  2.5045  2.2006  1.5480
   88SAPS  C312 8523   5.405   6.389   9.226 -0.1940  0.2324  0.0112
   88SAPS  H12X 8524   5.474   6.475   9.213  2.5233 -1.8769  0.0387
   88SAPS  H12Y 8525   5.329   6.406   9.305  0.1127 -1.5017  0.7090
   88SAPS  C313 8526   5.331   6.382   9.092  0.6532  0.2937 -0.3057
   88SAPS  H13X 8527   5.257   6.465   9.094 -0.0834 -0.3836  0.6308
   88SAPS  H13Y 8528   5.282   6.282   9.089  1.5670 -0.1365 -1.7211
   88SAPS  C314 8529   5.426   6.399   8.971  0.3222 -0.0770 -0.0393
   88SAPS  H14X 8530   5.511   6.327   8.979  0.7722  0.4923  0.3619
   88SAPS  H14Y 8531   5.475   6.498   8.977 -3.6383  2.1671 -2.6796
   88SAPS  C315 8532   5.363   6.392   8.829 -0.4775  0.0159 -0.6246
   88SAPS  H15X 8533   5.277   6.462   8.820 -0.8205 -0.3415 -0.1169
   88SAPS  H15Y 8534   5.313   6.293   8.825 -1.2149  0.3644 -0.1993
   88SAPS  C316 8535   5.470   6.387   8.718 -0.2390  0.5308  0.2415
   88SAPS  H16X 8536   5.546   6.318   8.759  1.2107  0.9093 -1.7287
   88SAPS  H16Y 8537   5.517   6.487   8.706  0.8313 -0.0367 -0.3039
   88SAPS  C317 8538   5.414   6.338   8.583  0.6002 -0.1191 -0.3731
   88SAPS  H17X 8539   5.370   6.237   8.599  1.8920 -0.5578  0.5728
   88SAPS  H17Y 8540   5.501   6.319   8.516 -0.0243  0.6127 -1.3866
   88SAPS  C318 8541   5.306   6.419   8.516 -0.6623 -0.3299 -0.1818
   88SAPS  H18X 8542   5.324   6.529   8.517  0.1237 -0.4420 -1.3139
   88SAPS  H18Y 8543   5.214   6.405   8.577  0.1734  1.0513  1.4267
   88SAPS  H18Z 8544   5.286   6.383   8.413 -0.8333 -1.1316  0.1290
   89SAPS     N 8545   5.275   2.378  11.143  0.1273 -0.1905 -0.1309
   89SAPS   HN1 8546   5.241   2.436  11.064  1.2811  0.2162 -0.3341
   89SAPS   HN2 8547   5.223   2.418  11.225 -0.2270 -1.9431  0.5094
   89SAPS   HN3 8548   5.375   2.403  11.161  0.6259 -2.4465  0.3113
   89SAPS   C12 8549   5.259   2.234  11.138  0.0112  0.4034 -1.1978
   89SAPS  H12A 8550   5.325   2.188  11.065  1.2015 -2.6211  1.6624
   89SAPS   C13 8551   5.285   2.163  11.275 -0.5135 -0.7332 -0.4612
   89SAPS  O13A 8552   5.317   2.230  11.377  0.0720 -0.1955 -0.1847
   89SAPS  O13B 8553   5.269   2.040  11.279 -1.1741  0.1589  0.2995
   89SAPS   C11 8554   5.105   2.203  11.107 -0.0408  0.3735 -0.3614
   89SAPS  H11A 8555   5.047   2.263  11.181 -0.2787 -1.2781  0.8324
   89SAPS  H11B 8556   5.082   2.098  11.138  3.0710 -0.4205 -0.5716
   89SAPS     P 8557   5.082   2.141  10.859 -0.3282  0.5401 -0.1773
   89SAPS   O13 8558   5.180   2.036  10.898  0.6313  0.1105  0.4964
   89SAPS   O14 8559   4.953   2.086  10.806 -0.4759  0.0473  0.4361
   89SAPS   O12 8560   5.054   2.232  10.981  0.6220  0.1449 -0.6924
   89SAPS   O11 8561   5.147   2.247  10.760 -0.0930 -0.4039  0.0320
   89SAPS    C1 8562   5.106   2.385  10.748  0.0962 -0.9365  0.4072
   89SAPS    HA 8563   5.101   2.425  10.852 -0.3523 -1.4577  0.5884
   89SAPS    HB 8564   5.188   2.436  10.692  1.0235 -0.8291  1.8307
   89SAPS    C2 8565   4.968   2.416  10.680  1.0971 -0.0664 -0.1722
   89SAPS    HS 8566   4.896   2.353  10.736  1.5215 -0.4334 -0.0349
   89SAPS   O21 8567   4.979   2.384  10.542  0.7770 -0.1252  0.1332
   89SAPS   C21 8568   4.871   2.344  10.485 -0.3714  0.0413 -0.5101
   89SAPS   O22 8569   4.760   2.320  10.530  0.6067 -0.2555  0.0087
   89SAPS   C22 8570   4.884   2.362  10.334  0.3657 -0.0127 -0.3108
   89SAPS   H2R 8571   4.816   2.444  10.302  3.8062  3.8088  1.7591
   89SAPS   H2S 8572   4.989   2.386  10.308 -0.0257  0.4582 -1.5155
   89SAPS    C3 8573   4.927   2.563  10.705  0.1725 -0.0184  0.3891
   89SAPS    HX 8574   4.911   2.588  10.812 -0.4101  1.2618  0.0084
   89SAPS    HY 8575   4.836   2.599  10.652 -0.2032  2.7180  2.7617
   89SAPS   O31 8576   5.035   2.651  10.671  0.3935  0.2224  0.4528
   89SAPS   C31 8577   5.040   2.687  10.545  0.0328 -0.4783  0.8532
   89SAPS   O32 8578   4.960   2.648  10.463  0.0352 -0.5384  0.1828
   89SAPS   C32 8579   5.176   2.761  10.523  1.1509  0.1212  0.0238
   89SAPS   H2X 8580   5.260   2.690  10.539  1.9354  0.6719 -1.5926
   89SAPS   H2Y 8581   5.191   2.837  10.603  0.2244 -0.5126  0.8171
   89SAPS   C23 8582   4.852   2.233  10.254 -0.2550 -0.1485 -0.5109
   89SAPS   H3R 8583   4.750   2.194  10.273 -1.2583  2.5330 -0.2181
   89SAPS   H3S 8584   4.923   2.151  10.280 -0.2475  0.1219  0.3277
   89SAPS   C24 8585   4.874   2.242  10.105 -0.0502  0.4051  0.1816
   89SAPS   H4R 8586   4.974   2.291  10.104 -0.3926  1.1067 -0.1709
   89SAPS   H4S 8587   4.795   2.304  10.057 -0.2377 -0.3892 -0.5397
   89SAPS   C25 8588   4.892   2.109  10.026 -0.2438  0.4383 -0.4262
   89SAPS   H5R 8589   4.857   2.020  10.082  1.7047 -0.3630 -0.4373
   89SAPS   C26 8590   4.967   2.089   9.917  0.8780 -0.1063  0.2743
   89SAPS   H6R 8591   4.972   1.994   9.861  2.0216  1.6194 -2.6453
   89SAPS   C27 8592   5.039   2.199   9.837 -0.2617  0.7789 -0.7044
   89SAPS   H7R 8593   5.040   2.284   9.909  0.1208 -0.0140  0.2380
   89SAPS   H7S 8594   4.987   2.229   9.744 -0.1816 -2.8562 -1.9918
   89SAPS   C28 8595   5.176   2.167   9.808 -0.7498  0.4543  0.1513
   89SAPS   H8R 8596   5.254   2.173   9.885 -0.0193 -0.0506 -0.5341
   89SAPS   C29 8597   5.230   2.125   9.689 -0.2081 -0.4067  0.0759
   89SAPS   H9R 8598   5.335   2.092   9.687  0.1590  0.7807 -0.1877
   89SAPS  C210 8599   5.160   2.133   9.558 -0.4677  0.0923 -0.5133
   89SAPS  H10R 8600   5.149   2.239   9.526  0.6915 -0.5076 -3.0315
   89SAPS  H10S 8601   5.054   2.100   9.566 -0.6719  0.4086 -1.8259
   89SAPS  C211 8602   5.229   2.063   9.446 -0.1586  0.4445 -0.1846
   89SAPS  H11R 8603   5.318   2.003   9.467 -0.2563 -0.5585 -2.4072
   89SAPS  C212 8604   5.193   2.066   9.316  0.0320  0.7359  0.2722
   89SAPS  H12R 8605   5.248   1.998   9.249 -1.7861 -1.7353  1.2199
   89SAPS  C213 8606   5.064   2.129   9.269  0.0159 -0.4969 -0.5589
   89SAPS  H13R 8607   5.078   2.149   9.160 -1.1105 -0.1019 -0.6391
   89SAPS  H13S 8608   5.034   2.225   9.316  0.2584 -1.3927  1.4981
   89SAPS  C214 8609   4.946   2.038   9.300 -0.4070 -0.6612  0.3703
   89SAPS  H14R 8610   4.941   2.001   9.403  0.3321  0.9074  0.9937
   89SAPS  C215 8611   4.842   2.007   9.219  0.5759 -0.5504  0.1278
   89SAPS  H15R 8612   4.764   1.933   9.241  0.9636 -0.8157  0.6350
   89SAPS  C216 8613   4.825   2.057   9.074 -0.3701  0.2123  0.1936
   89SAPS  H16R 8614   4.896   2.142   9.060  2.9801 -2.1637  2.0414
   89SAPS  H16S 8615   4.723   2.091   9.044 -0.9247 -3.8814 -2.9889
   89SAPS  C217 8616   4.877   1.952   8.972  0.0742 -0.2609  0.2928
   89SAPS  H17R 8617   4.805   1.868   8.967 -0.4597  0.2703 -1.3480
   89SAPS  H17S 8618   4.966   1.901   9.014  1.2221  1.3683 -0.0807
   89SAPS  C218 8619   4.898   2.019   8.829  0.6890  0.0948  0.6415
   89SAPS  H18R 8620   4.956   1.945   8.769 -0.4246  0.8094 -1.3476
   89SAPS  H18S 8621   4.972   2.099   8.847  2.2017 -1.2895  0.7103
   89SAPS  C219 8622   4.775   2.063   8.750  0.8117 -0.4612  0.3893
   89SAPS  H19R 8623   4.715   2.122   8.824 -1.8091 -0.3938 -1.7142
   89SAPS  H19S 8624   4.714   1.973   8.728  0.1838  0.3727 -1.3390
   89SAPS  C220 8625   4.790   2.146   8.621 -0.5316 -0.5963 -0.2194
   89SAPS  H20R 8626   4.690   2.166   8.577  0.7032  1.5648 -2.1222
   89SAPS  H20S 8627   4.860   2.106   8.545 -0.8022  0.8709 -1.2577
   89SAPS  H20T 8628   4.825   2.247   8.652  1.0397 -1.2909  0.3253
   89SAPS   C33 8629   5.181   2.819  10.387  0.3649  0.2785  0.4717
   89SAPS   H3X 8630   5.162   2.740  10.310  1.9082 -1.4405  1.8271
   89SAPS   H3Y 8631   5.276   2.859  10.348  0.4701 -0.7749 -0.3986
   89SAPS   C34 8632   5.077   2.932  10.361  0.1413  0.7231 -0.8201
   89SAPS   H4X 8633   5.118   3.024  10.408  0.0354  0.8336 -0.9465
   89SAPS   H4Y 8634   4.985   2.905  10.417  1.4697  1.3421  1.7596
   89SAPS   C35 8635   5.028   2.945  10.214  0.1594  0.7486 -0.1195
   89SAPS   H5X 8636   4.960   3.032  10.201  2.7962  2.4430 -3.4125
   89SAPS   H5Y 8637   4.973   2.853  10.185  0.2172  1.1085 -1.3984
   89SAPS   C36 8638   5.138   2.969  10.107 -0.6313  0.1239  0.5040
   89SAPS   H6X 8639   5.200   2.877  10.106 -0.4543  0.2431  0.4934
   89SAPS   H6Y 8640   5.200   3.057  10.132 -0.6269  0.9624 -2.2196
   89SAPS   C37 8641   5.082   3.009   9.969  0.5412  0.3529  0.0100
   89SAPS   H7X 8642   5.023   3.103   9.967 -0.4118 -0.2217  0.8484
   89SAPS   H7Y 8643   5.001   2.942   9.934 -0.5383  1.3973  0.4822
   89SAPS   C38 8644   5.201   3.037   9.874  0.3596  0.0118  0.4079
   89SAPS   H8X 8645   5.267   2.949   9.858 -0.2106 -0.2673 -0.4163
   89SAPS   H8Y 8646   5.266   3.118   9.913  1.6916 -0.5984 -0.5126
   89SAPS   C39 8647   5.165   3.088   9.732 -0.2807 -0.2001  0.5017
   89SAPS   H9X 8648   5.261   3.099   9.676 -1.3669  0.2711 -1.2953
   89SAPS   H9Y 8649   5.116   3.187   9.732  0.1220  0.0144 -1.0903
   89SAPS  C310 8650   5.090   2.990   9.632 -0.9876  0.0960 -0.2668
   89SAPS  H10X 8651   4.983   3.005   9.658 -1.2034  0.3078 -1.2419
   89SAPS  H10Y 8652   5.123   2.885   9.649 -0.0211  0.3901 -0.2883
   89SAPS  C311 8653   5.101   3.028   9.477 -0.2866 -0.2058 -0.0557
   89SAPS  H11X 8654   5.202   3.075   9.475 -0.3442 -0.0873 -2.0447
   89SAPS  H11Y 8655   5.018   3.095   9.445  0.4545  0.5675 -0.4229
   89SAPS  C312 8656   5.077   2.907   9.379  0.1901 -0.7870  0.6593
   89SAPS  H12X 8657   4.996   2.860   9.438  0.1780 -0.1278  1.1713
   89SAPS  H12Y 8658   5.167   2.842   9.374  1.3148  0.8492 -1.0914
   89SAPS  C313 8659   5.040   2.940   9.238  0.0952  0.6760 -0.2185
   89SAPS  H13X 8660   4.943   2.993   9.246  0.3779  1.3734 -1.2935
   89SAPS  H13Y 8661   5.022   2.843   9.187 -1.3146  0.5034  0.5904
   89SAPS  C314 8662   5.147   3.023   9.168 -0.2481 -0.2208 -0.3463
   89SAPS  H14X 8663   5.245   2.976   9.193  0.4332  0.1782 -2.2038
   89SAPS  H14Y 8664   5.142   3.127   9.206 -0.7364 -1.3121  2.6980
   89SAPS  C315 8665   5.129   3.031   9.024  0.4368 -0.7018  0.1123
   89SAPS  H15X 8666   5.148   2.940   8.963  0.3221  0.4248 -1.6540
   89SAPS  H15Y 8667   5.205   3.098   8.977  0.6280 -1.1433 -0.2106
   89SAPS  C316 8668   4.998   3.090   8.983  0.6918 -0.5977  0.5934
   89SAPS  H16X 8669   4.994   3.188   9.035 -0.7458 -2.0449  3.3560
   89SAPS  H16Y 8670   4.917   3.025   9.022  2.9886 -3.3789  0.9551
   89SAPS  C317 8671   5.004   3.105   8.826  0.9657  0.7983  0.2125
   89SAPS  H17X 8672   4.987   3.006   8.778  0.8358  0.5379  0.7946
   89SAPS  H17Y 8673   5.110   3.118   8.794  0.4687 -1.5697 -2.5771
   89SAPS  C318 8674   4.903   3.199   8.769 -0.0336 -0.3403 -0.9087
   89SAPS  H18X 8675   4.917   3.296   8.821 -1.6282 -1.2022  1.1826
   89SAPS  H18Y 8676   4.796   3.171   8.772 -0.8290  2.5321 -1.3225
   89SAPS  H18Z 8677   4.922   3.216   8.661  1.3215 -0.4539 -0.7027
   90SAPS     N 8678   0.162   2.451  10.460 -0.4859  0.4999  0.3073
   90SAPS   HN1 8679   0.239   2.484  10.521 -0.6665 -0.3069  0.9789
   90SAPS   HN2 8680   0.196   2.377  10.395  1.1094 -2.3271  4.2093
   90SAPS   HN3 8681   0.115   2.525  10.403  0.3848  0.3898 -0.5765
   90SAPS   C12 8682   0.081   2.384  10.555  0.1018  0.6252 -0.5164
   90SAPS  H12A 8683   0.152   2.348  10.628 -1.4824  2.0597  1.8025
   90SAPS   C13 8684  -0.010   2.476  10.637 -0.9417  0.0150  0.3975
   90SAPS  O13A 8685   0.024   2.598  10.642 -0.5437  0.4977 -0.3763
   90SAPS  O13B 8686  -0.069   2.419  10.734 -0.2342  0.1965 -0.0549
   90SAPS   C11 8687  -0.011   2.272  10.488 -0.1459  0.7632  0.2081
   90SAPS  H11A 8688  -0.076   2.322  10.412 -0.5051  1.2866  0.8593
   90SAPS  H11B 8689  -0.077   2.216  10.558  0.3477  0.2723  0.2866
   90SAPS     P 8690   0.138   2.055  10.504  0.1670 -0.1382  0.1844
   90SAPS   O13 8691   0.238   2.124  10.588  0.8146 -0.3028  0.7450
   90SAPS   O14 8692   0.046   1.971  10.581 -0.3087  0.2028  0.1200
   90SAPS   O12 8693   0.060   2.165  10.421  0.1030  0.3259  0.7010
   90SAPS   O11 8694   0.202   1.970  10.390 -0.2429  0.0227 -0.2008
   90SAPS    C1 8695   0.120   1.889  10.304  0.1894 -0.6952  0.1727
   90SAPS    HA 8696   0.046   1.834  10.365 -1.8156  1.2558 -0.4254
   90SAPS    HB 8697   0.077   1.957  10.227  1.7296  0.1578  0.0302
   90SAPS    C2 8698   0.207   1.796  10.220 -0.5457 -0.6598 -0.5025
   90SAPS    HS 8699   0.280   1.746  10.288 -0.3033 -0.9405 -0.9675
   90SAPS   O21 8700   0.270   1.887  10.124  0.2478  0.6494  0.0267
   90SAPS   C21 8701   0.369   1.831  10.054  0.0439 -0.4987 -0.6898
   90SAPS   O22 8702   0.409   1.715  10.080 -0.2578 -0.4720  0.2087
   90SAPS   C22 8703   0.424   1.930   9.952  0.2129  0.3184  0.0291
   90SAPS   H2R 8704   0.332   1.983   9.917  0.6383  0.2089 -1.2717
   90SAPS   H2S 8705   0.485   2.011   9.998 -2.2820  3.1981 -1.5688
   90SAPS    C3 8706   0.118   1.692  10.144 -0.0764  0.2795 -0.4073
   90SAPS    HX 8707   0.079   1.621  10.220 -0.4336 -0.2161 -1.0425
   90SAPS    HY 8708   0.177   1.630  10.072 -3.5958 -0.7337 -2.5453
   90SAPS   O31 8709   0.000   1.757  10.085 -0.8270  0.1213  0.5395
   90SAPS   C31 8710   0.014   1.790   9.956  0.2934  0.4607  0.6365
   90SAPS   O32 8711   0.109   1.759   9.889  0.4006 -0.7144  0.4757
   90SAPS   C32 8712  -0.112   1.867   9.913  0.2837  0.4698  1.0768
   90SAPS   H2X 8713  -0.114   1.965   9.966  0.5879  1.6178 -1.0110
   90SAPS   H2Y 8714  -0.206   1.830   9.958 -0.1208 -0.1502 -0.2718
   90SAPS   C23 8715   0.513   1.859   9.837  0.0528  0.1878 -1.2011
   90SAPS   H3R 8716   0.604   1.813   9.882 -1.1003 -1.7521 -0.7979
   90SAPS   H3S 8717   0.548   1.952   9.788  0.4288  1.7100  1.8242
   90SAPS   C24 8718   0.433   1.767   9.744 -0.1985  0.5123 -0.1087
   90SAPS   H4R 8719   0.396   1.675   9.793  1.4562  0.7587  1.6562
   90SAPS   H4S 8720   0.517   1.720   9.690 -2.1545 -1.6883 -1.3138
   90SAPS   C25 8721   0.337   1.834   9.649 -0.3645  0.3643  0.5140
   90SAPS   H5R 8722   0.238   1.851   9.693 -0.2440  1.0927  0.5224
   90SAPS   C26 8723   0.353   1.875   9.523  0.4767 -0.1797 -0.0221
   90SAPS   H6R 8724   0.270   1.920   9.467  1.0059  1.3161  0.3559
   90SAPS   C27 8725   0.479   1.859   9.444  0.1790  0.5128  0.0112
   90SAPS   H7R 8726   0.560   1.817   9.506  1.3867  0.1546 -1.7627
   90SAPS   H7S 8727   0.523   1.958   9.422  1.0472  0.2190  0.4302
   90SAPS   C28 8728   0.463   1.771   9.321  0.4155  0.5439  0.3771
   90SAPS   H8R 8729   0.390   1.690   9.318 -0.8005  1.6465 -0.3427
   90SAPS   C29 8730   0.536   1.779   9.212 -0.8641 -0.3161 -0.1655
   90SAPS   H9R 8731   0.531   1.703   9.132 -0.3927  1.2519 -1.7224
   90SAPS  C210 8732   0.645   1.884   9.168  0.1472 -0.1542  0.3470
   90SAPS  H10R 8733   0.669   1.955   9.250  1.8374  2.8855 -2.6436
   90SAPS  H10S 8734   0.600   1.945   9.087  2.7133 -1.1010 -1.8831
   90SAPS  C211 8735   0.758   1.798   9.122 -0.0380 -0.1968 -0.5554
   90SAPS  H11R 8736   0.775   1.705   9.178 -1.8504 -1.5115 -2.1245
   90SAPS  C212 8737   0.831   1.813   9.012 -0.1550 -0.0628  0.1860
   90SAPS  H12R 8738   0.902   1.737   8.976  0.5326  0.8579 -0.4500
   90SAPS  C213 8739   0.819   1.923   8.906 -0.0696 -0.8454 -0.0466
   90SAPS  H13R 8740   0.922   1.942   8.871 -0.3499  0.6550 -0.0661
   90SAPS  H13S 8741   0.783   2.015   8.955 -0.6090 -1.0384 -0.0706
   90SAPS  C214 8742   0.728   1.872   8.797 -0.5797  0.1286  0.1946
   90SAPS  H14R 8743   0.621   1.895   8.797 -0.6137 -0.0342  0.6206
   90SAPS  C215 8744   0.766   1.781   8.706  0.6954 -0.2693  0.2591
   90SAPS  H15R 8745   0.686   1.750   8.637  0.0326 -3.4028  2.3721
   90SAPS  C216 8746   0.900   1.722   8.677 -0.0942 -0.4403 -0.7975
   90SAPS  H16R 8747   0.966   1.746   8.763 -0.1553  0.8708 -1.1052
   90SAPS  H16S 8748   0.947   1.784   8.597  1.7836 -0.7887  0.0033
   90SAPS  C217 8749   0.910   1.570   8.650 -0.3165  0.2524 -0.6816
   90SAPS  H17R 8750   0.847   1.541   8.563 -1.3549  1.1600 -0.2429
   90SAPS  H17S 8751   0.872   1.522   8.743  3.4266 -1.2322  0.1516
   90SAPS  C218 8752   1.047   1.523   8.610 -0.5238  0.0041 -0.6338
   90SAPS  H18R 8753   1.094   1.600   8.545 -1.2238 -1.2305 -2.6589
   90SAPS  H18S 8754   1.043   1.423   8.560 -0.6396 -0.5133  0.4124
   90SAPS  C219 8755   1.141   1.511   8.733  0.1068 -0.5983 -0.6319
   90SAPS  H19R 8756   1.112   1.429   8.801  1.4963 -1.5983 -1.2242
   90SAPS  H19S 8757   1.156   1.606   8.789 -0.7645  0.3075 -1.8823
   90SAPS  C220 8758   1.282   1.465   8.702  0.0801 -0.1317 -0.1165
   90SAPS  H20R 8759   1.340   1.436   8.793  0.5040 -1.5605 -0.8351
   90SAPS  H20S 8760   1.330   1.551   8.650 -1.8428  0.7573 -0.4755
   90SAPS  H20T 8761   1.280   1.372   8.642 -1.0038  0.2878 -0.7418
   90SAPS   C33 8762  -0.115   1.885   9.765 -0.1227  0.2567  0.3526
   90SAPS   H3X 8763  -0.012   1.895   9.724 -1.2328  1.3998 -2.2651
   90SAPS   H3Y 8764  -0.168   1.981   9.747 -1.0662  0.1071  2.2448
   90SAPS   C34 8765  -0.185   1.786   9.667 -0.0496 -0.1404 -0.1831
   90SAPS   H4X 8766  -0.288   1.767   9.704  0.3457  0.3149  1.1775
   90SAPS   H4Y 8767  -0.121   1.697   9.685 -0.2271 -0.0468  0.8913
   90SAPS   C35 8768  -0.166   1.834   9.520  0.3460  1.0371  0.2202
   90SAPS   H5X 8769  -0.180   1.945   9.526  1.2877  1.2005 -0.6289
   90SAPS   H5Y 8770  -0.243   1.787   9.455  0.9139 -0.4969  0.6383
   90SAPS   C36 8771  -0.024   1.799   9.464  0.3698 -0.8163  0.0156
   90SAPS   H6X 8772   0.001   1.691   9.470  2.5542 -0.3365 -0.0481
   90SAPS   H6Y 8773   0.053   1.867   9.507 -0.9518  1.3292 -0.9138
   90SAPS   C37 8774  -0.014   1.832   9.315  0.4440 -0.3294 -0.1856
   90SAPS   H7X 8775   0.091   1.817   9.283  1.3798  0.5627  2.3730
   90SAPS   H7Y 8776  -0.059   1.932   9.296 -1.4096 -0.9131  0.9801
   90SAPS   C38 8777  -0.092   1.735   9.225  0.5248  0.4830 -1.3559
   90SAPS   H8X 8778  -0.198   1.761   9.246  0.1723  0.5319 -3.1030
   90SAPS   H8Y 8779  -0.083   1.629   9.258 -0.2199  0.6844 -0.4823
   90SAPS   C39 8780  -0.057   1.749   9.080  0.1666  0.7350  0.7341
   90SAPS   H9X 8781  -0.026   1.851   9.050  2.8690 -0.2708 -0.0593
   90SAPS   H9Y 8782  -0.144   1.703   9.028  1.3743 -0.2792 -0.4454
   90SAPS  C310 8783   0.057   1.652   9.053  0.5529 -0.2193 -0.2301
   90SAPS  H10X 8784   0.022   1.554   9.091 -0.4562  0.3925  0.4519
   90SAPS  H10Y 8785   0.147   1.685   9.111 -0.8959  0.6820  1.5774
   90SAPS  C311 8786   0.091   1.645   8.904  0.6681  0.0844 -0.3171
   90SAPS  H11X 8787   0.127   1.747   8.878  1.5904  0.1268  1.0527
   90SAPS  H11Y 8788  -0.001   1.631   8.843 -1.1185  2.5620  1.6907
   90SAPS  C312 8789   0.186   1.537   8.871  0.8989  0.0016  1.1003
   90SAPS  H12X 8790   0.169   1.509   8.765  0.7995 -2.3660  1.7273
   90SAPS  H12Y 8791   0.157   1.441   8.920  0.4868  0.5365  1.9200
   90SAPS  C313 8792   0.331   1.566   8.896  0.0247  0.1199  0.0848
   90SAPS  H13X 8793   0.344   1.600   9.001  1.7136 -1.0781  0.3008
   90SAPS  H13Y 8794   0.369   1.651   8.836 -0.6430  1.0430  0.9740
   90SAPS  C314 8795   0.425   1.454   8.858 -0.2053  0.8036 -0.2149
   90SAPS  H14X 8796   0.409   1.366   8.925 -0.3314 -0.7345 -2.2137
   90SAPS  H14Y 8797   0.528   1.490   8.875 -1.8676  4.6166  2.3168
   90SAPS  C315 8798   0.402   1.404   8.714 -0.5716  0.3294  0.1678
   90SAPS  H15X 8799   0.397   1.493   8.647  0.8222  1.2956  1.3012
   90SAPS  H15Y 8800   0.301   1.359   8.716  0.4524 -2.1519 -1.8706
   90SAPS  C316 8801   0.504   1.303   8.658 -0.1066 -0.2111 -0.4189
   90SAPS  H16X 8802   0.455   1.244   8.578 -2.6264 -3.0211  3.0525
   90SAPS  H16Y 8803   0.537   1.225   8.730  2.4315  2.3867  1.3536
   90SAPS  C317 8804   0.635   1.372   8.606 -0.7711  0.3563 -0.0473
   90SAPS  H17X 8805   0.694   1.396   8.697  0.8310 -1.1557 -0.6535
   90SAPS  H17Y 8806   0.606   1.457   8.541 -1.1992 -1.6186 -2.5259
   90SAPS  C318 8807   0.728   1.280   8.521  0.2675  0.4432 -0.1593
   90SAPS  H18X 8808   0.675   1.254   8.427  3.2078  0.9234 -2.0336
   90SAPS  H18Y 8809   0.756   1.186   8.575  0.0237 -0.7281 -2.0213
   90SAPS  H18Z 8810   0.825   1.322   8.485  0.2876 -0.4314 -1.1670
   91SAPS     N 8811   4.912   0.102   5.602 -0.0889  0.4428  0.5238
   91SAPS   HN1 8812   4.849   0.184   5.605  1.4137  1.6064  0.9978
   91SAPS   HN2 8813   4.931   0.081   5.502 -0.8069 -2.0225  0.8655
   91SAPS   HN3 8814   4.858   0.022   5.640 -0.4863  0.9751  1.0794
   91SAPS   C12 8815   5.040   0.125   5.675  0.5467 -0.5661 -0.3000
   91SAPS  H12A 8816   5.112   0.048   5.652 -0.7708 -1.7173 -0.7026
   91SAPS   C13 8817   5.111   0.250   5.629  0.0819 -0.9302  0.3633
   91SAPS  O13A 8818   5.056   0.321   5.539  0.5819 -0.1629 -0.0777
   91SAPS  O13B 8819   5.231   0.277   5.659  0.4302  0.0581  0.2407
   91SAPS   C11 8820   5.008   0.131   5.829  0.0563  0.0568  0.0497
   91SAPS  H11A 8821   4.918   0.196   5.833 -0.5831 -0.9363  2.0037
   91SAPS  H11B 8822   5.086   0.192   5.880  1.3451 -0.2536 -1.5141
   91SAPS     P 8823   4.956   0.011   6.052  0.2786 -0.0162  0.0143
   91SAPS   O13 8824   4.836   0.094   6.070 -0.2294 -0.0847 -0.5293
   91SAPS   O14 8825   4.942  -0.125   6.109  0.1409  0.0169 -0.7466
   91SAPS   O12 8826   4.998   0.005   5.895 -0.1171  0.4465  0.0009
   91SAPS   O11 8827   5.071   0.078   6.130 -0.3547 -0.1410 -0.6941
   91SAPS    C1 8828   5.062   0.209   6.178  0.9747  0.0080 -0.1606
   91SAPS    HA 8829   5.059   0.282   6.095 -0.9110  0.0565 -0.0840
   91SAPS    HB 8830   4.966   0.225   6.231  1.3544 -0.6636  0.7449
   91SAPS    C2 8831   5.168   0.245   6.286 -0.9033 -0.2118  0.1981
   91SAPS    HS 8832   5.269   0.236   6.243 -0.8861 -2.9389  0.7623
   91SAPS   O21 8833   5.136   0.156   6.398  1.2211 -0.5469 -0.3460
   91SAPS   C21 8834   5.227   0.059   6.427  0.1233 -0.0650 -0.8646
   91SAPS   O22 8835   5.321   0.030   6.357 -0.4905 -0.1425 -0.3587
   91SAPS   C22 8836   5.173  -0.018   6.546 -0.0169 -0.6724  0.1581
   91SAPS   H2R 8837   5.065   0.006   6.559  0.4443  2.6462 -1.4446
   91SAPS   H2S 8838   5.197  -0.124   6.522  0.5130 -0.3059 -0.9567
   91SAPS    C3 8839   5.159   0.393   6.324 -0.1705 -0.2083 -0.6003
   91SAPS    HX 8840   5.051   0.403   6.348 -0.4188  1.1338 -2.1932
   91SAPS    HY 8841   5.181   0.459   6.237  3.9867  0.9769  1.2275
   91SAPS   O31 8842   5.254   0.419   6.440 -0.0118 -0.8334  0.5099
   91SAPS   C31 8843   5.198   0.409   6.554  0.0611  0.9618  0.5368
   91SAPS   O32 8844   5.084   0.384   6.588 -0.4568 -0.1223  0.0405
   91SAPS   C32 8845   5.299   0.403   6.664  0.0276 -0.6005  0.9340
   91SAPS   H2X 8846   5.389   0.461   6.636  1.7470 -3.1859  0.9359
   91SAPS   H2Y 8847   5.320   0.296   6.687  0.0711 -0.9542 -0.6844
   91SAPS   C23 8848   5.242   0.020   6.678  0.2822 -0.1255 -0.0250
   91SAPS   H3R 8849   5.207   0.121   6.705  1.0564  0.1693 -0.1190
   91SAPS   H3S 8850   5.351   0.038   6.666 -0.1598  4.9587  2.4091
   91SAPS   C24 8851   5.191  -0.074   6.785  0.2491 -0.1444 -0.0344
   91SAPS   H4R 8852   5.243  -0.063   6.882  0.8438 -0.4614 -0.3174
   91SAPS   H4S 8853   5.215  -0.177   6.752 -1.2654 -0.5753  0.1907
   91SAPS   C25 8854   5.045  -0.058   6.804  0.1283 -0.4129  0.1884
   91SAPS   H5R 8855   4.982  -0.120   6.740 -2.6479  1.3061  1.1541
   91SAPS   C26 8856   4.971   0.004   6.903  0.3935 -0.3335  0.1763
   91SAPS   H6R 8857   4.861   0.005   6.911  0.3124  2.6745 -0.5728
   91SAPS   C27 8858   5.037   0.085   7.019  0.0959 -0.0933  0.4659
   91SAPS   H7R 8859   5.142   0.106   6.992  0.3338 -1.0008  0.6873
   91SAPS   H7S 8860   5.036   0.016   7.106  0.4914 -2.6730 -1.5309
   91SAPS   C28 8861   4.968   0.215   7.045 -0.2995 -0.1475  0.1154
   91SAPS   H8R 8862   4.928   0.270   6.959 -0.6275  0.7664  0.8293
   91SAPS   C29 8863   4.929   0.266   7.165  0.0014  0.2019 -0.1054
   91SAPS   H9R 8864   4.878   0.363   7.164 -0.7576 -0.1974 -1.7540
   91SAPS  C210 8865   4.957   0.209   7.301 -0.1386  0.0111  0.6863
   91SAPS  H10R 8866   4.923   0.103   7.308 -0.4289  0.0689  0.2366
   91SAPS  H10S 8867   4.880   0.261   7.363 -1.7895  2.5296 -3.2861
   91SAPS  C211 8868   5.094   0.236   7.355 -0.2846 -0.2948 -0.3088
   91SAPS  H11R 8869   5.158   0.278   7.276 -1.0784  0.9670 -0.2917
   91SAPS  C212 8870   5.130   0.230   7.488  0.4270 -0.4671  0.9390
   91SAPS  H12R 8871   5.224   0.277   7.519 -1.0381  1.5261  2.5349
   91SAPS  C213 8872   5.040   0.195   7.611  0.2105  0.1029 -0.1814
   91SAPS  H13R 8873   5.109   0.147   7.683 -0.4108  0.5636  0.7338
   91SAPS  H13S 8874   4.962   0.126   7.572  1.6015 -1.9716  0.5840
   91SAPS  C214 8875   4.987   0.330   7.660 -0.3264  0.4237 -0.3146
   91SAPS  H14R 8876   4.932   0.383   7.581 -0.7090  0.3823 -0.0758
   91SAPS  C215 8877   4.984   0.365   7.788  0.2401 -0.6067  0.1037
   91SAPS  H15R 8878   4.928   0.455   7.816  1.7233  0.5653 -0.5947
   91SAPS  C216 8879   5.034   0.285   7.898  0.4656  0.3628 -0.7660
   91SAPS  H16R 8880   5.055   0.178   7.875 -1.1562 -0.4274  1.2800
   91SAPS  H16S 8881   4.955   0.293   7.976 -0.2410  0.9940 -1.5358
   91SAPS  C217 8882   5.166   0.349   7.966 -0.0613  0.0534 -0.3189
   91SAPS  H17R 8883   5.238   0.367   7.883  1.9104 -0.6693  1.2049
   91SAPS  H17S 8884   5.211   0.279   8.039  2.8602  1.1730 -0.9826
   91SAPS  C218 8885   5.136   0.489   8.036  0.0629  0.1904  0.2625
   91SAPS  H18R 8886   5.069   0.483   8.124  3.4467 -0.6734  2.8581
   91SAPS  H18S 8887   5.089   0.560   7.964  0.8630  0.5420  0.0722
   91SAPS  C219 8888   5.267   0.561   8.075  0.6775 -0.0247  0.1230
   91SAPS  H19R 8889   5.318   0.583   7.979  0.7239 -1.7890 -0.2828
   91SAPS  H19S 8890   5.336   0.487   8.122 -0.6669 -2.2058 -1.2048
   91SAPS  C220 8891   5.237   0.677   8.177  0.8204 -0.2219  0.3346
   91SAPS  H20R 8892   5.327   0.715   8.230  1.0652 -1.1875  0.6176
   91SAPS  H20S 8893   5.172   0.648   8.262  1.1829  0.5104  0.8665
   91SAPS  H20T 8894   5.176   0.754   8.125 -1.5385 -0.0419  3.2646
   91SAPS   C33 8895   5.242   0.436   6.806  0.2124  0.6528  0.3389
   91SAPS   H3X 8896   5.159   0.372   6.842  0.6316 -0.5322 -0.7963
   91SAPS   H3Y 8897   5.197   0.537   6.791 -1.3623 -0.2840 -1.4238
   91SAPS   C34 8898   5.356   0.440   6.904 -0.4796  0.1028  0.0373
   91SAPS   H4X 8899   5.442   0.505   6.873  0.2732 -1.0717 -0.3672
   91SAPS   H4Y 8900   5.391   0.335   6.902 -0.7075  0.0472 -1.0894
   91SAPS   C35 8901   5.305   0.481   7.044  0.0314 -0.2781  0.0796
   91SAPS   H5X 8902   5.222   0.414   7.074  0.8974 -1.1198  0.6264
   91SAPS   H5Y 8903   5.266   0.585   7.044  2.6743  0.7443  1.0263
   91SAPS   C36 8904   5.426   0.480   7.140 -0.1584 -0.1623 -0.7133
   91SAPS   H6X 8905   5.511   0.536   7.096  0.9076 -0.5974  0.7375
   91SAPS   H6Y 8906   5.474   0.382   7.162  0.8919  1.1161  3.2278
   91SAPS   C37 8907   5.397   0.546   7.273  0.7453  0.6526 -0.0319
   91SAPS   H7X 8908   5.316   0.488   7.323 -0.1993  0.5768 -1.6172
   91SAPS   H7Y 8909   5.357   0.646   7.248  1.8202  0.8518 -0.9701
   91SAPS   C38 8910   5.519   0.551   7.366 -0.2416 -0.5050  0.6419
   91SAPS   H8X 8911   5.566   0.652   7.369 -0.1723 -0.5464  0.9314
   91SAPS   H8Y 8912   5.595   0.478   7.332  2.4088  1.8042  1.4063
   91SAPS   C39 8913   5.482   0.511   7.512 -0.3946 -0.0465  0.4529
   91SAPS   H9X 8914   5.432   0.412   7.506 -0.0496 -0.2208  0.4376
   91SAPS   H9Y 8915   5.418   0.587   7.562  1.4265  1.8553 -0.0088
   91SAPS  C310 8916   5.607   0.484   7.599 -0.3425 -1.0929  0.0638
   91SAPS  H10X 8917   5.680   0.409   7.562 -0.6758  0.6421 -4.4575
   91SAPS  H10Y 8918   5.562   0.435   7.689 -0.0603  2.0660  2.0017
   91SAPS  C311 8919   5.675   0.621   7.641 -0.5984  0.6296  0.4128
   91SAPS  H11X 8920   5.587   0.690   7.640 -0.7653  0.4323 -3.9727
   91SAPS  H11Y 8921   5.740   0.657   7.559 -1.7026 -1.5045 -1.4422
   91SAPS  C312 8922   5.734   0.629   7.783 -0.2014  0.1204 -0.0306
   91SAPS  H12X 8923   5.651   0.614   7.856 -0.9325  0.1516 -0.8395
   91SAPS  H12Y 8924   5.771   0.734   7.786  0.9530 -0.3024  0.5626
   91SAPS  C313 8925   5.852   0.532   7.800 -0.0728 -0.4468 -0.1394
   91SAPS  H13X 8926   5.922   0.541   7.714 -0.1171  1.0487 -0.0286
   91SAPS  H13Y 8927   5.811   0.430   7.817 -2.0944  0.1010 -1.6075
   91SAPS  C314 8928   5.939   0.579   7.914  0.0818  0.5229 -0.4329
   91SAPS  H14X 8929   5.980   0.679   7.886  1.7131 -0.1350 -0.4939
   91SAPS  H14Y 8930   6.021   0.504   7.920  0.5032  1.0254  0.3485
   91SAPS  C315 8931   5.865   0.577   8.051 -0.1212 -0.2961  0.1163
   91SAPS  H15X 8932   5.794   0.663   8.054  1.3367  0.9423 -0.4823
   91SAPS  H15Y 8933   5.944   0.583   8.129  0.7487 -2.4126 -0.5748
   91SAPS  C316 8934   5.798   0.446   8.099  0.0247  0.0814 -0.3386
   91SAPS  H16X 8935   5.875   0.366   8.098  0.6956  0.7215 -0.8583
   91SAPS  H16Y 8936   5.716   0.411   8.033 -0.3659 -1.0527  0.7379
   91SAPS  C317 8937   5.732   0.456   8.236 -0.2188  0.1444 -0.8072
   91SAPS  H17X 8938   5.632   0.500   8.219 -0.8848 -1.0855 -0.1074
   91SAPS  H17Y 8939   5.782   0.522   8.310 -0.5261 -0.5477  0.0263
   91SAPS  C318 8940   5.720   0.320   8.302 -0.3156 -0.1951 -0.8109
   91SAPS  H18X 8941   5.687   0.246   8.226  0.4392 -0.8644 -0.4870
   91SAPS  H18Y 8942   5.654   0.320   8.391  0.5473 -1.7109 -0.1640
   91SAPS  H18Z 8943   5.815   0.273   8.333  0.0559  0.6600 -0.6431
   92SAPS     N 8944   4.403   5.487   6.348 -0.0815  0.2781 -0.2516
   92SAPS   HN1 8945   4.401   5.469   6.450 -3.1852 -1.1303 -0.5091
   92SAPS   HN2 8946   4.498   5.523   6.323 -0.0293 -0.8398 -1.7410
   92SAPS   HN3 8947   4.326   5.552   6.325 -0.5777 -0.1278  0.2441
   92SAPS   C12 8948   4.387   5.359   6.274  0.1280  0.0244  0.8566
   92SAPS  H12A 8949   4.285   5.322   6.281  0.3468 -0.7088  0.2267
   92SAPS   C13 8950   4.414   5.380   6.129  0.2968 -0.5162  0.0412
   92SAPS  O13A 8951   4.448   5.488   6.075  0.1223  0.2650 -0.4305
   92SAPS  O13B 8952   4.389   5.283   6.049  0.2481 -0.0509 -0.4621
   92SAPS   C11 8953   4.471   5.241   6.329  0.2811 -0.4455 -0.7378
   92SAPS  H11A 8954   4.579   5.269   6.328 -0.7208  3.5922 -1.8515
   92SAPS  H11B 8955   4.464   5.161   6.252 -1.8551 -0.7199 -0.2770
   92SAPS     P 8956   4.437   5.058   6.496 -0.0765 -0.1385 -0.3699
   92SAPS   O13 8957   4.340   4.988   6.410 -0.3200  0.1060 -0.4441
   92SAPS   O14 8958   4.580   5.018   6.477 -0.0962  0.0384 -0.2433
   92SAPS   O12 8959   4.425   5.202   6.463  0.4291  0.7928 -0.2788
   92SAPS   O11 8960   4.409   5.044   6.647 -0.3443 -0.5719  0.0758
   92SAPS    C1 8961   4.500   5.097   6.743 -0.6581 -0.6307  0.4746
   92SAPS    HA 8962   4.602   5.060   6.721  0.1219  1.3502  0.7284
   92SAPS    HB 8963   4.501   5.207   6.728 -2.0173 -0.8157 -1.1893
   92SAPS    C2 8964   4.459   5.064   6.886 -0.3021 -0.8287 -0.0319
   92SAPS    HS 8965   4.455   4.953   6.893  1.9162 -1.1063 -2.5379
   92SAPS   O21 8966   4.335   5.127   6.910  0.2492 -0.1370 -0.3611
   92SAPS   C21 8967   4.239   5.057   6.955  0.0927 -0.1734 -0.0081
   92SAPS   O22 8968   4.239   4.936   6.973 -0.2788 -0.1304  0.4848
   92SAPS   C22 8969   4.121   5.143   6.993 -0.5233 -0.3532 -0.0968
   92SAPS   H2R 8970   4.161   5.244   7.013 -0.6372 -0.7352  2.2779
   92SAPS   H2S 8971   4.043   5.146   6.915 -1.1100  1.3240  0.5401
   92SAPS    C3 8972   4.571   5.110   6.990 -0.0234 -0.1501 -0.5176
   92SAPS    HX 8973   4.581   5.221   6.998 -0.9268  0.1568 -3.1542
   92SAPS    HY 8974   4.668   5.077   6.949  1.4187  1.1625  1.7129
   92SAPS   O31 8975   4.560   5.054   7.127 -0.2035 -0.3708  0.4094
   92SAPS   C31 8976   4.502   5.131   7.210 -0.0390 -0.4941  0.2096
   92SAPS   O32 8977   4.446   5.240   7.189 -0.2198  0.6130 -0.2370
   92SAPS   C32 8978   4.510   5.075   7.355  0.5639  0.9272 -0.2194
   92SAPS   H2X 8979   4.603   5.014   7.364  2.0950  3.4828  2.1411
   92SAPS   H2Y 8980   4.431   4.998   7.370  3.9315 -3.0487 -1.8770
   92SAPS   C23 8981   4.042   5.079   7.106  0.8402  0.0970 -0.2795
   92SAPS   H3R 8982   4.001   4.978   7.081 -1.5234  1.0371 -0.3285
   92SAPS   H3S 8983   3.955   5.146   7.127 -0.3439 -1.3234 -0.5328
   92SAPS   C24 8984   4.107   5.072   7.243 -0.3387 -0.3968 -0.3371
   92SAPS   H4R 8985   4.116   5.175   7.283 -0.1241 -0.5862  0.1044
   92SAPS   H4S 8986   4.213   5.040   7.229 -0.8810 -2.6934  0.6649
   92SAPS   C25 8987   4.047   4.993   7.350  0.1459  0.4926  0.3369
   92SAPS   H5R 8988   4.011   4.897   7.308  0.9521  1.3473 -2.4435
   92SAPS   C26 8989   4.015   5.016   7.477 -0.1493 -0.0823 -1.2007
   92SAPS   H6R 8990   3.978   4.927   7.531 -0.8008  0.0569 -1.4087
   92SAPS   C27 8991   4.035   5.138   7.563 -0.0212 -0.1638  0.2059
   92SAPS   H7R 8992   3.936   5.163   7.606  0.7039  2.1817  0.5890
   92SAPS   H7S 8993   4.052   5.227   7.497  1.6243 -0.8153 -0.2682
   92SAPS   C28 8994   4.151   5.101   7.654 -0.7913  0.8684 -0.1163
   92SAPS   H8R 8995   4.254   5.121   7.620 -1.7461  1.6803 -2.6140
   92SAPS   C29 8996   4.132   5.046   7.780  0.1608  0.0236 -0.2787
   92SAPS   H9R 8997   4.223   5.027   7.839 -0.1614  0.2624  0.3042
   92SAPS  C210 8998   3.997   5.017   7.840 -0.8226 -0.1566  0.5239
   92SAPS  H10R 8999   3.984   4.916   7.885 -3.1312  0.3849  1.1159
   92SAPS  H10S 9000   3.915   5.021   7.765 -1.3002 -0.5360  1.0247
   92SAPS  C211 9001   3.970   5.118   7.947  0.4301 -0.0472  0.1443
   92SAPS  H11R 9002   4.059   5.176   7.975  0.1308  0.0128  0.9691
   92SAPS  C212 9003   3.849   5.127   8.011  0.1224 -0.1795  0.2155
   92SAPS  H12R 9004   3.841   5.208   8.086  0.1251  0.5745 -0.5959
   92SAPS  C213 9005   3.720   5.058   7.983  0.2871  0.0177 -0.0268
   92SAPS  H13R 9006   3.693   4.994   8.070 -1.5457 -0.5415 -0.9794
   92SAPS  H13S 9007   3.721   4.991   7.894 -1.5677 -0.8015  0.5323
   92SAPS  C214 9008   3.610   5.161   7.960 -0.0269  0.4530  0.6637
   92SAPS  H14R 9009   3.638   5.246   7.896  0.1370 -2.0707 -2.7394
   92SAPS  C215 9010   3.488   5.169   8.018 -0.3620 -0.4178  0.5715
   92SAPS  H15R 9011   3.421   5.252   7.992  2.6254  2.2985  1.2047
   92SAPS  C216 9012   3.427   5.072   8.121  0.1898 -0.0600  0.0587
   92SAPS  H16R 9013   3.486   4.984   8.155  1.4158  0.4639 -0.6863
   92SAPS  H16S 9014   3.331   5.029   8.084  0.7278 -0.5899 -0.7282
   92SAPS  C217 9015   3.380   5.151   8.246 -0.1278  0.0818  0.2736
   92SAPS  H17R 9016   3.294   5.217   8.219  0.9506  0.1686 -3.1927
   92SAPS  H17S 9017   3.463   5.212   8.286 -0.6051  1.3804 -0.6772
   92SAPS  C218 9018   3.333   5.057   8.359 -0.5228  0.6304 -0.7742
   92SAPS  H18R 9019   3.248   4.989   8.338  1.7003 -2.4342 -0.1779
   92SAPS  H18S 9020   3.315   5.123   8.447  0.7362  2.0130 -1.5163
   92SAPS  C219 9021   3.436   4.956   8.416 -0.8980 -0.2339  0.0710
   92SAPS  H19R 9022   3.531   5.003   8.449 -0.8576 -0.6509  0.5527
   92SAPS  H19S 9023   3.452   4.876   8.341  0.5064  0.4638 -0.3912
   92SAPS  C220 9024   3.389   4.879   8.542 -0.3499  0.1505 -1.0765
   92SAPS  H20R 9025   3.357   4.953   8.619 -0.4317  2.1938 -3.0395
   92SAPS  H20S 9026   3.471   4.814   8.580 -1.7516 -1.9400 -1.5539
   92SAPS  H20T 9027   3.294   4.825   8.527 -1.5909  1.9609  0.0527
   92SAPS   C33 9028   4.510   5.183   7.469  0.1242 -0.1173 -0.4587
   92SAPS   H3X 9029   4.406   5.209   7.497  0.5380  0.6154  0.4119
   92SAPS   H3Y 9030   4.554   5.279   7.436  3.1110 -1.1458  0.4225
   92SAPS   C34 9031   4.573   5.129   7.592  0.4168  0.6812  0.4849
   92SAPS   H4X 9032   4.680   5.099   7.592  0.0166 -0.7712  0.1078
   92SAPS   H4Y 9033   4.529   5.028   7.606 -0.8792  1.5230  2.8043
   92SAPS   C35 9034   4.545   5.219   7.717  0.9213  0.5283 -0.2391
   92SAPS   H5X 9035   4.445   5.201   7.761  1.3366  1.6622  1.2046
   92SAPS   H5Y 9036   4.543   5.323   7.679  1.1995 -0.6772 -3.6955
   92SAPS   C36 9037   4.660   5.211   7.824  0.2498 -0.4136  0.1619
   92SAPS   H6X 9038   4.655   5.305   7.884  0.9526 -0.2704  0.0032
   92SAPS   H6Y 9039   4.762   5.215   7.781  0.0216  0.8263 -0.2933
   92SAPS   C37 9040   4.631   5.106   7.928 -0.0180  0.3441  0.6009
   92SAPS   H7X 9041   4.639   5.001   7.894  2.5789  0.4893  0.6593
   92SAPS   H7Y 9042   4.526   5.100   7.963 -1.2930 -1.2208 -3.2007
   92SAPS   C38 9043   4.732   5.114   8.046 -0.6307  0.9297  0.1188
   92SAPS   H8X 9044   4.719   5.212   8.096 -1.0460  0.6908  0.4861
   92SAPS   H8Y 9045   4.833   5.094   8.004 -1.1402 -0.6843 -0.3723
   92SAPS   C39 9046   4.721   5.002   8.148 -0.0612  0.2282  0.7219
   92SAPS   H9X 9047   4.764   4.915   8.094 -1.0391 -0.0553  0.3928
   92SAPS   H9Y 9048   4.616   4.984   8.180  0.1703 -2.6688  0.0147
   92SAPS  C310 9049   4.801   5.032   8.270  0.2139 -0.5012 -0.5233
   92SAPS  H10X 9050   4.898   5.063   8.226  1.1008 -0.6336  1.2684
   92SAPS  H10Y 9051   4.812   4.932   8.319 -2.0793 -0.9897 -0.9654
   92SAPS  C311 9052   4.737   5.140   8.358  0.4924 -0.3210  0.2003
   92SAPS  H11X 9053   4.630   5.120   8.380  0.2178 -0.3135 -1.0929
   92SAPS  H11Y 9054   4.744   5.234   8.300  1.1876 -1.1631 -1.0933
   92SAPS  C312 9055   4.810   5.164   8.489  0.1732  0.5765  0.2630
   92SAPS  H12X 9056   4.759   5.248   8.539 -1.0178  0.9542 -1.5387
   92SAPS  H12Y 9057   4.911   5.207   8.469 -0.2528  1.2162 -0.5595
   92SAPS  C313 9058   4.814   5.040   8.578 -0.1328  0.7172 -0.1318
   92SAPS  H13X 9059   4.876   5.060   8.668 -1.3024  1.0672  0.6156
   92SAPS  H13Y 9060   4.868   4.956   8.531 -0.5788 -0.1096  0.8226
   92SAPS  C314 9061   4.679   4.986   8.623  0.4949 -0.0825 -0.0176
   92SAPS  H14X 9062   4.617   4.950   8.538  0.1862  1.9459 -0.6698
   92SAPS  H14Y 9063   4.623   5.060   8.683 -1.0562 -0.4958 -0.9242
   92SAPS  C315 9064   4.691   4.862   8.712 -0.0202 -0.2122 -0.3786
   92SAPS  H15X 9065   4.590   4.850   8.757  0.7246  0.2257  1.4190
   92SAPS  H15Y 9066   4.752   4.875   8.804 -2.9067 -1.4860  1.7982
   92SAPS  C316 9067   4.738   4.737   8.636  0.0754 -0.0203  0.0634
   92SAPS  H16X 9068   4.802   4.774   8.553  0.1578  0.9292  0.5381
   92SAPS  H16Y 9069   4.647   4.685   8.600 -0.9627  0.8444  1.3844
   92SAPS  C317 9070   4.815   4.639   8.726 -0.7770  0.2280 -0.7230
   92SAPS  H17X 9071   4.744   4.629   8.811  1.1521  2.3650  1.2276
   92SAPS  H17Y 9072   4.910   4.685   8.761  0.6099 -2.5536 -0.7393
   92SAPS  C318 9073   4.851   4.508   8.658  0.1836 -0.0316  0.3281
   92SAPS  H18X 9074   4.759   4.458   8.619 -0.0577 -0.0998  0.9803
   92SAPS  H18Y 9075   4.877   4.439   8.741  2.4420  1.8834  1.2351
   92SAPS  H18Z 9076   4.942   4.513   8.594  1.5320 -1.0252  2.1242
   93SAPS     N 9077   5.114   5.653   5.954  0.0614 -0.3407  0.1802
   93SAPS   HN1 9078   5.062   5.735   5.990 -0.3703 -0.2029 -0.7662
   93SAPS   HN2 9079   5.215   5.676   5.965 -0.2055 -0.4376  3.6142
   93SAPS   HN3 9080   5.087   5.653   5.854 -0.6744 -2.7155  0.3336
   93SAPS   C12 9081   5.067   5.528   6.026  0.1504 -0.2984 -0.3837
   93SAPS  H12A 9082   4.963   5.522   5.998  0.4708 -0.1295 -1.6731
   93SAPS   C13 9083   5.131   5.385   5.993  0.0627 -0.8572 -0.3619
   93SAPS  O13A 9084   5.224   5.380   5.907  0.0925  0.0729 -0.1220
   93SAPS  O13B 9085   5.113   5.284   6.072 -0.0728 -0.4089 -0.2436
   93SAPS   C11 9086   5.081   5.555   6.178 -0.3949 -0.5760 -0.0022
   93SAPS  H11A 9087   5.186   5.544   6.213  0.0940  2.7640 -0.2797
   93SAPS  H11B 9088   5.027   5.483   6.243  3.4915 -2.4153  1.3645
   93SAPS     P 9089   5.012   5.733   6.361  0.1930 -0.1476 -0.0644
   93SAPS   O13 9090   5.115   5.836   6.388  0.2406  0.6309  0.5219
   93SAPS   O14 9091   4.865   5.771   6.362  0.0092 -0.3626 -0.0182
   93SAPS   O12 9092   5.046   5.684   6.215  0.6007  0.0425 -0.2465
   93SAPS   O11 9093   5.040   5.604   6.443  0.0896  0.4755  0.0117
   93SAPS    C1 9094   4.940   5.513   6.491 -0.1915  0.7958 -0.1419
   93SAPS    HA 9095   4.860   5.491   6.418 -2.1580 -0.3731  2.2645
   93SAPS    HB 9096   4.996   5.419   6.513  0.7369  1.1022 -1.1992
   93SAPS    C2 9097   4.875   5.559   6.630  0.4064 -1.1167 -0.9859
   93SAPS    HS 9098   4.809   5.645   6.607  2.0509  0.6140  0.5001
   93SAPS   O21 9099   4.988   5.589   6.719 -0.3138 -0.6143  0.0372
   93SAPS   C21 9100   4.976   5.694   6.795  0.8942 -0.4545  0.4297
   93SAPS   O22 9101   4.874   5.767   6.805 -0.1721  0.6230  0.2570
   93SAPS   C22 9102   5.109   5.699   6.877 -0.0575  0.1785  0.4362
   93SAPS   H2R 9103   5.100   5.611   6.945 -1.5873  0.6640  0.8861
   93SAPS   H2S 9104   5.196   5.697   6.809 -0.6961 -1.0754 -0.3683
   93SAPS    C3 9105   4.783   5.448   6.694 -0.1783 -0.2944 -0.4495
   93SAPS    HX 9106   4.845   5.356   6.687  1.7843  0.9847 -0.2104
   93SAPS    HY 9107   4.693   5.440   6.629 -1.1577  1.6455  0.6234
   93SAPS   O31 9108   4.752   5.458   6.835  0.0097  0.0118 -0.6535
   93SAPS   C31 9109   4.670   5.561   6.867  0.3350  0.0361  0.6077
   93SAPS   O32 9110   4.612   5.626   6.780 -0.1333 -0.1139 -0.4891
   93SAPS   C32 9111   4.669   5.586   7.013 -0.6206  0.1869 -0.5096
   93SAPS   H2X 9112   4.766   5.590   7.068 -0.9788 -1.4024  0.2917
   93SAPS   H2Y 9113   4.622   5.493   7.053 -1.6922 -0.5165 -3.3277
   93SAPS   C23 9114   5.132   5.813   6.973  0.6736  0.8287  0.5095
   93SAPS   H3R 9115   5.121   5.913   6.925 -0.5517  1.4020  1.9266
   93SAPS   H3S 9116   5.241   5.801   6.990  0.9495  0.6486 -1.3015
   93SAPS   C24 9117   5.051   5.798   7.099  0.3183 -1.2452  0.0207
   93SAPS   H4R 9118   5.071   5.695   7.138 -0.9251 -0.5735  2.5664
   93SAPS   H4S 9119   4.942   5.811   7.078  0.6338  0.4803 -0.6088
   93SAPS   C25 9120   5.069   5.913   7.191 -0.7629  0.1973  0.4908
   93SAPS   H5R 9121   5.053   6.014   7.152 -1.2718  0.5975  1.7144
   93SAPS   C26 9122   5.116   5.912   7.319  0.0734 -0.0453  0.9910
   93SAPS   H6R 9123   5.128   6.008   7.371 -3.4253  1.6525 -1.1727
   93SAPS   C27 9124   5.155   5.788   7.391 -0.1325  0.1143  0.1652
   93SAPS   H7R 9125   5.184   5.710   7.317  1.6898  0.2432  0.7063
   93SAPS   H7S 9126   5.080   5.746   7.461 -0.8430 -0.2073 -0.7830
   93SAPS   C28 9127   5.277   5.811   7.476  1.0537  0.0657  0.4025
   93SAPS   H8R 9128   5.375   5.802   7.427  1.4136 -0.3610  1.1793
   93SAPS   C29 9129   5.270   5.836   7.609 -0.0086  0.6511  0.4020
   93SAPS   H9R 9130   5.365   5.860   7.658  0.6784 -1.1229 -0.0188
   93SAPS  C210 9131   5.151   5.846   7.693 -0.2763 -0.5084 -0.2286
   93SAPS  H10R 9132   5.066   5.782   7.662 -0.3119  0.0099 -1.2173
   93SAPS  H10S 9133   5.106   5.946   7.677  0.6362 -0.3061 -1.6442
   93SAPS  C211 9134   5.177   5.815   7.839 -0.3112 -0.6209  0.0193
   93SAPS  H11R 9135   5.282   5.791   7.863  0.4571  1.7163 -0.8826
   93SAPS  C212 9136   5.085   5.824   7.934  0.6116  0.3454 -0.1016
   93SAPS  H12R 9137   5.114   5.799   8.038 -2.6795  0.0130  0.8214
   93SAPS  C213 9138   4.934   5.868   7.923 -0.3407  0.2915  0.6654
   93SAPS  H13R 9139   4.883   5.837   8.016  0.4327 -0.7938  0.7395
   93SAPS  H13S 9140   4.874   5.811   7.849  0.1093  1.9467 -1.0301
   93SAPS  C214 9141   4.928   6.019   7.903  0.8917 -0.1863  1.1828
   93SAPS  H14R 9142   4.943   6.049   7.798  0.8120  1.0405  1.5149
   93SAPS  C215 9143   4.922   6.112   8.000  0.1467 -0.2608 -0.2054
   93SAPS  H15R 9144   4.932   6.220   7.981  0.3652  0.8139  5.2610
   93SAPS  C216 9145   4.918   6.075   8.149 -0.9889 -0.3823 -0.2103
   93SAPS  H16R 9146   4.972   6.157   8.201 -2.1085  1.3063 -1.6503
   93SAPS  H16S 9147   4.967   5.977   8.168 -1.3779 -0.4354  0.4971
   93SAPS  C217 9148   4.773   6.070   8.202 -0.3589  0.8903  0.5250
   93SAPS  H17R 9149   4.697   6.016   8.140 -0.0446  2.3534 -1.1651
   93SAPS  H17S 9150   4.729   6.172   8.195  0.4314  1.1710 -0.4138
   93SAPS  C218 9151   4.758   6.022   8.345  0.2594 -0.2221  0.2370
   93SAPS  H18R 9152   4.816   6.096   8.404  2.3954 -0.4479 -1.5084
   93SAPS  H18S 9153   4.817   5.928   8.347  1.1310  0.3125 -0.1449
   93SAPS  C219 9154   4.625   6.010   8.412 -0.1672  0.4263  0.2978
   93SAPS  H19R 9155   4.562   5.943   8.349 -1.2490  2.5987 -1.0051
   93SAPS  H19S 9156   4.598   6.117   8.404  3.0859  1.2873  0.5532
   93SAPS  C220 9157   4.624   5.959   8.555 -0.2248 -0.6602 -0.5015
   93SAPS  H20R 9158   4.702   6.009   8.616 -2.8735 -0.7016  3.1278
   93SAPS  H20S 9159   4.647   5.851   8.571  1.1488 -0.4444 -0.9591
   93SAPS  H20T 9160   4.525   5.974   8.604 -0.3207  0.3100 -0.9920
   93SAPS   C33 9161   4.595   5.711   7.060  0.8379 -0.1342  0.2322
   93SAPS   H3X 9162   4.497   5.700   7.009 -0.0553 -0.9880  2.1074
   93SAPS   H3Y 9163   4.645   5.807   7.034  1.0440 -0.5808 -1.0609
   93SAPS   C34 9164   4.562   5.709   7.215 -0.0330 -0.3679 -0.4527
   93SAPS   H4X 9165   4.533   5.608   7.250  4.0906 -1.2338  0.6538
   93SAPS   H4Y 9166   4.477   5.777   7.238  1.5612  0.5085  3.2843
   93SAPS   C35 9167   4.674   5.756   7.299 -0.0526 -0.3351  0.2732
   93SAPS   H5X 9168   4.692   5.866   7.304 -2.2020  0.0414  0.1781
   93SAPS   H5Y 9169   4.758   5.688   7.272 -1.6280 -2.8891  1.5884
   93SAPS   C36 9170   4.659   5.728   7.446  0.2373 -0.0904  0.2795
   93SAPS   H6X 9171   4.618   5.624   7.455 -1.7836  0.5640 -0.9753
   93SAPS   H6Y 9172   4.574   5.782   7.493  0.8350  0.1080  1.1594
   93SAPS   C37 9173   4.787   5.742   7.529 -0.0367  0.4176 -0.8453
   93SAPS   H7X 9174   4.804   5.846   7.564 -0.5956 -0.2084  1.3618
   93SAPS   H7Y 9175   4.873   5.721   7.462  0.7216  0.3707  0.1293
   93SAPS   C38 9176   4.785   5.652   7.661  0.6735 -0.5824 -0.6698
   93SAPS   H8X 9177   4.879   5.649   7.719 -0.3057  0.1109  0.9994
   93SAPS   H8Y 9178   4.759   5.548   7.629  0.6666 -1.1015  0.9566
   93SAPS   C39 9179   4.665   5.679   7.765  0.0377  0.0421 -0.1949
   93SAPS   H9X 9180   4.567   5.673   7.712 -0.0899 -1.7923  0.2270
   93SAPS   H9Y 9181   4.676   5.782   7.804 -0.1897  0.3272 -0.8824
   93SAPS  C310 9182   4.681   5.588   7.886  0.2049  0.1272  0.1694
   93SAPS  H10X 9183   4.783   5.553   7.912  0.6095  0.4072 -0.9773
   93SAPS  H10Y 9184   4.616   5.500   7.863 -0.7197  1.0087 -0.6614
   93SAPS  C311 9185   4.608   5.656   8.007  0.0632 -0.6210  0.4030
   93SAPS  H11X 9186   4.503   5.682   7.981 -0.6738 -2.0382  1.8537
   93SAPS  H11Y 9187   4.666   5.749   8.027 -0.0196 -0.5799  0.4513
   93SAPS  C312 9188   4.599   5.572   8.126 -0.6785  0.4870  0.0688
   93SAPS  H12X 9189   4.696   5.539   8.169  0.1082 -2.2418 -3.5307
   93SAPS  H12Y 9190   4.546   5.481   8.090  2.2664 -0.4531 -2.1170
   93SAPS  C313 9191   4.516   5.635   8.240  0.8486  0.4569  0.3721
   93SAPS  H13X 9192   4.406   5.636   8.224  0.7401  1.2256  1.1440
   93SAPS  H13Y 9193   4.545   5.742   8.250 -2.3707  1.3569  0.5600
   93SAPS  C314 9194   4.541   5.580   8.382  0.1107  0.2099 -0.6119
   93SAPS  H14X 9195   4.647   5.600   8.410  0.3825  0.5665 -1.8968
   93SAPS  H14Y 9196   4.528   5.471   8.367  2.9033 -0.2199 -0.2534
   93SAPS  C315 9197   4.446   5.651   8.483 -0.0307 -0.1599 -0.5259
   93SAPS  H15X 9198   4.448   5.760   8.463 -0.1382  0.3962  2.3160
   93SAPS  H15Y 9199   4.478   5.645   8.589 -0.6336  2.1457 -0.1849
   93SAPS  C316 9200   4.295   5.614   8.484 -0.6217  0.3442 -0.4305
   93SAPS  H16X 9201   4.244   5.618   8.385 -0.5649  2.4897 -0.3973
   93SAPS  H16Y 9202   4.252   5.703   8.534 -0.3048 -0.2868  0.9759
   93SAPS  C317 9203   4.270   5.494   8.569 -0.9587 -0.2262 -0.2859
   93SAPS  H17X 9204   4.328   5.508   8.663 -1.0130  0.9821 -0.4324
   93SAPS  H17Y 9205   4.324   5.408   8.524  0.7364  0.7594 -0.1563
   93SAPS  C318 9206   4.123   5.462   8.598  0.4157  0.4392 -0.3316
   93SAPS  H18X 9207   4.118   5.371   8.661 -0.8429  0.1868 -0.7930
   93SAPS  H18Y 9208   4.067   5.456   8.502  0.9321 -0.3073 -0.5922
   93SAPS  H18Z 9209   4.082   5.547   8.655  1.3023 -0.7359  2.1335
   94SAPS     N 9210   4.600   0.882   5.873  0.5265  0.4258  0.2843
   94SAPS   HN1 9211   4.675   0.954   5.866  0.4031  0.6492  1.1630
   94SAPS   HN2 9212   4.505   0.923   5.885  1.6477  2.7013  1.8081
   94SAPS   HN3 9213   4.630   0.812   5.943 -1.6715  0.4990  1.3574
   94SAPS   C12 9214   4.609   0.796   5.757 -0.4935  0.0085  0.1994
   94SAPS  H12A 9215   4.552   0.709   5.787  0.8075 -1.5085 -1.5521
   94SAPS   C13 9216   4.539   0.857   5.634 -0.0247 -0.2890  0.4186
   94SAPS  O13A 9217   4.505   0.978   5.627 -0.2035 -0.5644  0.9460
   94SAPS  O13B 9218   4.525   0.777   5.542 -0.4893  0.4859  0.0334
   94SAPS   C11 9219   4.757   0.752   5.738  0.2811 -0.5699 -0.3588
   94SAPS  H11A 9220   4.819   0.841   5.716 -1.8894  1.0262 -0.2283
   94SAPS  H11B 9221   4.757   0.689   5.646 -1.6679 -0.7696 -0.2587
   94SAPS     P 9222   4.930   0.604   5.851  0.2778  0.3214  0.4373
   94SAPS   O13 9223   4.907   0.461   5.835 -0.0689  0.1511 -0.1199
   94SAPS   O14 9224   5.017   0.677   5.752  0.1719  0.4664 -0.4171
   94SAPS   O12 9225   4.788   0.674   5.852 -0.7668  0.2565 -0.6151
   94SAPS   O11 9226   4.983   0.632   5.999  0.0758  0.2559  0.3529
   94SAPS    C1 9227   4.947   0.749   6.070 -0.5019  0.3762  0.4834
   94SAPS    HA 9228   5.015   0.831   6.038  1.0846  0.2805  3.3939
   94SAPS    HB 9229   4.841   0.776   6.051 -0.1063  0.2510 -2.0842
   94SAPS    C2 9230   4.955   0.736   6.229 -0.7165 -0.3608  0.2904
   94SAPS    HS 9231   4.924   0.829   6.281  1.7277  0.1405  0.9206
   94SAPS   O21 9232   5.087   0.701   6.266 -0.3818 -0.4941 -0.5023
   94SAPS   C21 9233   5.186   0.786   6.249 -1.1761 -0.3260  0.5338
   94SAPS   O22 9234   5.169   0.903   6.217  0.1388  0.1991 -0.6909
   94SAPS   C22 9235   5.314   0.729   6.297 -0.6150 -0.7889 -0.0880
   94SAPS   H2R 9236   5.306   0.646   6.371  0.3239 -1.0502 -0.2700
   94SAPS   H2S 9237   5.358   0.683   6.206 -1.0520 -0.7199 -0.3361
   94SAPS    C3 9238   4.857   0.627   6.294 -0.1393 -0.7475  0.2175
   94SAPS    HX 9239   4.896   0.532   6.250  2.0819  0.7521 -1.1986
   94SAPS    HY 9240   4.754   0.639   6.256  0.7927  1.5623 -1.7108
   94SAPS   O31 9241   4.866   0.643   6.441  0.1990  0.8642  0.3138
   94SAPS   C31 9242   4.827   0.525   6.498 -0.6803  0.1347 -0.2148
   94SAPS   O32 9243   4.790   0.423   6.439  0.2458  0.5885  0.2745
   94SAPS   C32 9244   4.822   0.553   6.647 -0.1325 -0.1772  0.4474
   94SAPS   H2X 9245   4.918   0.596   6.683  0.3286 -1.3781  0.6867
   94SAPS   H2Y 9246   4.824   0.454   6.698 -1.4330  0.3140  1.4812
   94SAPS   C23 9247   5.427   0.825   6.343  0.1156 -0.8808  0.2057
   94SAPS   H3R 9248   5.450   0.900   6.264 -1.4223 -3.6214 -2.9735
   94SAPS   H3S 9249   5.522   0.767   6.354  1.5652  1.1156 -1.3831
   94SAPS   C24 9250   5.399   0.903   6.481 -0.2387 -0.2608 -0.8154
   94SAPS   H4R 9251   5.303   0.952   6.454 -2.1495 -4.3516 -1.7522
   94SAPS   H4S 9252   5.475   0.983   6.498 -0.6245  0.5476 -2.7749
   94SAPS   C25 9253   5.398   0.807   6.594  0.0895 -0.2287 -0.1935
   94SAPS   H5R 9254   5.478   0.732   6.600 -0.0081 -0.2274  1.7047
   94SAPS   C26 9255   5.306   0.788   6.689  0.3261 -1.1349  1.4518
   94SAPS   H6R 9256   5.328   0.719   6.772  1.1673  0.7285  2.7991
   94SAPS   C27 9257   5.196   0.883   6.709  0.1449  0.4349 -0.0434
   94SAPS   H7R 9258   5.232   0.986   6.687  2.1685 -0.0873  0.6712
   94SAPS   H7S 9259   5.164   0.890   6.815 -1.7591 -0.8509 -0.5153
   94SAPS   C28 9260   5.074   0.853   6.631 -0.1195 -0.2167 -0.2607
   94SAPS   H8R 9261   5.085   0.772   6.558  0.9608  0.0850 -0.4408
   94SAPS   C29 9262   4.959   0.917   6.651 -0.0492 -0.0919 -0.1596
   94SAPS   H9R 9263   4.882   0.901   6.574  0.6481  0.4088 -0.9773
   94SAPS  C210 9264   4.927   1.040   6.741 -0.5625 -0.8452  0.9055
   94SAPS  H10R 9265   4.923   1.133   6.681 -0.6294  0.2400  2.5550
   94SAPS  H10S 9266   5.013   1.056   6.810  1.3292 -1.6684 -1.1855
   94SAPS  C211 9267   4.796   1.035   6.806 -0.6789 -0.7634  0.0515
   94SAPS  H11R 9268   4.711   1.024   6.737 -0.3481  1.6542 -0.7965
   94SAPS  C212 9269   4.773   1.050   6.941 -0.2838  0.6457  0.4950
   94SAPS  H12R 9270   4.668   1.066   6.969 -0.0930  1.5413  0.7418
   94SAPS  C213 9271   4.889   1.073   7.038 -0.0245 -0.0708  0.3495
   94SAPS  H13R 9272   4.983   1.113   6.996 -0.4150  0.0613 -0.4090
   94SAPS  H13S 9273   4.905   0.977   7.092  1.7387  0.1349  0.1923
   94SAPS  C214 9274   4.854   1.182   7.140 -0.7717  0.2563 -0.2983
   94SAPS  H14R 9275   4.838   1.286   7.107 -1.3101  0.0315 -0.7623
   94SAPS  C215 9276   4.855   1.171   7.272 -0.4207 -0.6103 -0.0697
   94SAPS  H15R 9277   4.837   1.261   7.332 -0.3856  0.2769 -1.3686
   94SAPS  C216 9278   4.906   1.054   7.357 -0.2803 -0.4368  0.0533
   94SAPS  H16R 9279   4.903   0.959   7.299  0.6879 -0.7365  0.4851
   94SAPS  H16S 9280   4.849   1.034   7.451 -0.6213 -0.9794 -0.2693
   94SAPS  C217 9281   5.053   1.084   7.389 -0.1397 -1.0848 -1.0907
   94SAPS  H17R 9282   5.103   1.124   7.298 -1.0021  0.0870 -1.0609
   94SAPS  H17S 9283   5.099   0.988   7.420  0.1640 -0.5252  0.2258
   94SAPS  C218 9284   5.090   1.187   7.492  0.8027  0.0490  0.9126
   94SAPS  H18R 9285   5.027   1.176   7.583 -2.1633 -1.0690 -1.2267
   94SAPS  H18S 9286   5.058   1.284   7.449  1.9752 -0.6630 -1.6809
   94SAPS  C219 9287   5.241   1.181   7.524  0.0888 -0.5992 -0.9222
   94SAPS  H19R 9288   5.293   1.206   7.429 -1.4126 -0.0239 -1.6046
   94SAPS  H19S 9289   5.271   1.079   7.558  1.9059 -0.0454 -0.8007
   94SAPS  C220 9290   5.282   1.285   7.623 -0.3092  0.3067 -0.1858
   94SAPS  H20R 9291   5.260   1.387   7.584 -2.1090  0.5890  1.4756
   94SAPS  H20S 9292   5.383   1.262   7.663 -1.5469 -0.5383  2.5675
   94SAPS  H20T 9293   5.212   1.278   7.708 -0.8463 -2.3700 -0.8009
   94SAPS   C33 9294   4.691   0.627   6.693  0.2427  0.5264 -0.2548
   94SAPS   H3X 9295   4.596   0.598   6.644  2.2041 -2.6252 -2.3900
   94SAPS   H3Y 9296   4.706   0.737   6.686 -3.4476  1.0133 -1.3971
   94SAPS   C34 9297   4.663   0.597   6.844  0.0984 -0.5673 -0.1133
   94SAPS   H4X 9298   4.656   0.488   6.864  0.7979 -0.1887  2.3769
   94SAPS   H4Y 9299   4.570   0.653   6.867  0.8847 -0.2896  2.5502
   94SAPS   C35 9300   4.763   0.655   6.943  0.2808  0.0266 -0.1017
   94SAPS   H5X 9301   4.767   0.765   6.930 -0.7114  0.2666  1.5449
   94SAPS   H5Y 9302   4.861   0.613   6.912  0.3028  0.3701 -0.4976
   94SAPS   C36 9303   4.727   0.617   7.089 -0.3307 -0.4617  0.7712
   94SAPS   H6X 9304   4.714   0.507   7.104 -0.8326 -0.3502  1.1624
   94SAPS   H6Y 9305   4.635   0.674   7.113  1.5829  3.4527 -0.7592
   94SAPS   C37 9306   4.840   0.669   7.187  0.1748 -0.1023 -0.1212
   94SAPS   H7X 9307   4.858   0.777   7.167  1.6204 -0.3282 -0.0712
   94SAPS   H7Y 9308   4.931   0.609   7.166  1.3301  1.0416  1.4467
   94SAPS   C38 9309   4.797   0.658   7.335  0.2209  0.1267 -0.3226
   94SAPS   H8X 9310   4.760   0.555   7.356  0.0675  0.2501  0.0109
   94SAPS   H8Y 9311   4.719   0.735   7.353 -0.1870 -0.3409 -0.1008
   94SAPS   C39 9312   4.907   0.690   7.437  0.4992  0.2743 -0.2439
   94SAPS   H9X 9313   4.979   0.760   7.389 -0.5811 -0.2167 -2.6649
   94SAPS   H9Y 9314   4.966   0.597   7.451  0.5879 -0.2091 -3.3692
   94SAPS  C310 9315   4.859   0.755   7.567 -0.2815 -0.0347  0.9118
   94SAPS  H10X 9316   4.797   0.690   7.632  0.3667  1.3093  2.9279
   94SAPS  H10Y 9317   4.790   0.838   7.542  0.6584  0.3495 -0.4875
   94SAPS  C311 9318   4.973   0.806   7.656 -0.6973 -0.5817 -0.2077
   94SAPS  H11X 9319   5.047   0.864   7.596 -0.0527  0.0958  1.2268
   94SAPS  H11Y 9320   5.021   0.721   7.710  0.0424 -0.0977 -0.0903
   94SAPS  C312 9321   4.941   0.888   7.778 -0.2643  0.0591  0.3770
   94SAPS  H12X 9322   4.878   0.829   7.848 -1.2270 -1.3075 -1.5620
   94SAPS  H12Y 9323   4.874   0.971   7.749  2.2069  1.4932 -1.4109
   94SAPS  C313 9324   5.063   0.950   7.838 -0.0619  0.1622 -0.5161
   94SAPS  H13X 9325   5.093   1.025   7.762  1.9485  1.0185  1.0533
   94SAPS  H13Y 9326   5.150   0.885   7.864 -0.3770  1.3934  3.9572
   94SAPS  C314 9327   5.036   1.030   7.965 -0.2824 -0.5947 -0.9437
   94SAPS  H14X 9328   5.021   0.972   8.059  1.2499 -0.7035 -0.7508
   94SAPS  H14Y 9329   4.947   1.093   7.948  0.2239 -0.2701 -2.4927
   94SAPS  C315 9330   5.161   1.120   7.995  0.5091 -0.0901  0.1618
   94SAPS  H15X 9331   5.188   1.164   7.897 -0.2093 -0.7376 -0.3272
   94SAPS  H15Y 9332   5.249   1.058   8.023  3.2051  1.2907 -4.6223
   94SAPS  C316 9333   5.123   1.215   8.112  0.0248 -0.3932 -0.4689
   94SAPS  H16X 9334   5.034   1.267   8.071  1.3217  2.1268 -0.2386
   94SAPS  H16Y 9335   5.203   1.291   8.126 -0.6340 -0.2405  2.9084
   94SAPS  C317 9336   5.099   1.141   8.248 -0.4061  0.1949 -1.2035
   94SAPS  H17X 9337   5.190   1.085   8.279 -1.7388 -0.4657  1.6423
   94SAPS  H17Y 9338   5.016   1.067   8.246 -0.3511 -0.0340  1.8066
   94SAPS  C318 9339   5.068   1.233   8.365  0.5912 -0.1775  0.5637
   94SAPS  H18X 9340   5.046   1.183   8.461 -1.1088 -0.6440 -0.0486
   94SAPS  H18Y 9341   4.983   1.303   8.350 -0.2449 -0.9687  1.5044
   94SAPS  H18Z 9342   5.157   1.299   8.378  0.1080  1.7313 -4.5655
   95SAPS     N 9343   1.258   5.179   5.833 -0.0586 -0.3627 -0.4143
   95SAPS   HN1 9344   1.315   5.134   5.908  1.1983  1.4958 -0.2359
   95SAPS   HN2 9345   1.186   5.108   5.806 -0.7248  0.5537 -1.0769
   95SAPS   HN3 9346   1.308   5.220   5.752 -0.5228 -0.3588 -0.7029
   95SAPS   C12 9347   1.199   5.296   5.899 -0.3904 -0.2003 -0.2053
   95SAPS  H12A 9348   1.283   5.357   5.928 -0.6369 -1.6570  3.8786
   95SAPS   C13 9349   1.121   5.397   5.811  0.0640  0.3933  0.1027
   95SAPS  O13A 9350   1.107   5.372   5.688 -0.0260  0.2526 -0.5610
   95SAPS  O13B 9351   1.081   5.499   5.870  0.6587 -0.4418  0.3212
   95SAPS   C11 9352   1.102   5.261   6.020 -0.1689  0.2905 -0.0125
   95SAPS  H11A 9353   1.012   5.213   5.977 -0.7126  0.7180  0.6371
   95SAPS  H11B 9354   1.075   5.359   6.066 -2.1906 -0.8718  1.3576
   95SAPS     P 9355   1.218   5.215   6.250  0.0251 -0.0519  0.1038
   95SAPS   O13 9356   1.347   5.153   6.280  0.3016  0.5408  0.2809
   95SAPS   O14 9357   1.200   5.364   6.258  1.1581 -0.0955 -0.2816
   95SAPS   O12 9358   1.166   5.164   6.112  0.3821 -0.3161  0.2593
   95SAPS   O11 9359   1.114   5.150   6.350 -0.1108 -0.1505 -0.2293
   95SAPS    C1 9360   0.971   5.167   6.325 -0.7339 -0.0022 -0.0172
   95SAPS    HA 9361   0.947   5.264   6.276 -0.9394  1.0007  2.0235
   95SAPS    HB 9362   0.928   5.081   6.269  2.5514 -1.0640 -1.0402
   95SAPS    C2 9363   0.885   5.164   6.456 -0.5873  0.4623 -0.5808
   95SAPS    HS 9364   0.786   5.210   6.434 -1.2825 -0.9699 -0.4698
   95SAPS   O21 9365   0.958   5.234   6.567 -0.3177  0.0681 -0.6262
   95SAPS   C21 9366   0.965   5.369   6.542 -0.1576  0.7611 -0.2329
   95SAPS   O22 9367   0.908   5.424   6.455  0.0461 -0.0031 -0.3281
   95SAPS   C22 9368   1.051   5.435   6.648  0.4504  0.3056  0.1746
   95SAPS   H2R 9369   0.995   5.441   6.743  0.9122  2.2422  0.3548
   95SAPS   H2S 9370   1.144   5.377   6.667 -0.7421 -2.0191 -0.9708
   95SAPS    C3 9371   0.842   5.020   6.495 -0.2857  0.0243 -0.2939
   95SAPS    HX 9372   0.921   4.946   6.472  1.0349  1.7432 -1.3741
   95SAPS    HY 9373   0.754   4.986   6.437 -0.1404 -1.2582  0.2252
   95SAPS   O31 9374   0.804   5.011   6.633 -0.0798  0.0145 -0.0355
   95SAPS   C31 9375   0.890   4.981   6.724  0.4672 -0.0572 -0.4849
   95SAPS   O32 9376   1.006   4.952   6.709  0.3638  1.0066  0.1492
   95SAPS   C32 9377   0.818   4.996   6.858  0.2724  0.1380 -1.2144
   95SAPS   H2X 9378   0.874   4.939   6.935  1.0579  2.9540  0.3703
   95SAPS   H2Y 9379   0.714   4.961   6.840  0.2975 -0.2028 -0.6970
   95SAPS   C23 9380   1.085   5.584   6.610 -0.1994 -0.5813  0.3612
   95SAPS   H3R 9381   0.993   5.645   6.595 -1.3487 -2.5938 -1.2516
   95SAPS   H3S 9382   1.153   5.598   6.523 -0.4053 -0.4817  0.2164
   95SAPS   C24 9383   1.160   5.655   6.726  0.0302  0.6834  0.0010
   95SAPS   H4R 9384   1.157   5.762   6.696  3.8867  1.1639  1.0493
   95SAPS   H4S 9385   1.268   5.639   6.749 -0.7029 -3.2427  1.0715
   95SAPS   C25 9386   1.099   5.651   6.859  0.8686  0.1431 -0.3761
   95SAPS   H5R 9387   0.989   5.650   6.862  0.8919 -1.8221  1.1300
   95SAPS   C26 9388   1.148   5.651   6.986  0.9593  0.2535  0.6609
   95SAPS   H6R 9389   1.076   5.635   7.066 -1.7136  2.6257 -1.1511
   95SAPS   C27 9390   1.291   5.644   7.023 -0.3742  0.6654 -0.1424
   95SAPS   H7R 9391   1.301   5.677   7.129  0.7696 -0.0522 -0.0139
   95SAPS   H7S 9392   1.342   5.731   6.977 -1.6254  2.3803  1.6058
   95SAPS   C28 9393   1.371   5.515   6.995  0.0059 -1.0366  0.0383
   95SAPS   H8R 9394   1.375   5.481   6.890 -0.8826 -0.5065 -0.1730
   95SAPS   C29 9395   1.450   5.456   7.081 -0.0365  0.5384 -0.3201
   95SAPS   H9R 9396   1.501   5.366   7.044 -1.6835 -0.6273  0.2000
   95SAPS  C210 9397   1.478   5.494   7.224 -0.3623 -0.1762 -1.1333
   95SAPS  H10R 9398   1.508   5.409   7.289  3.5560 -0.1486 -2.7605
   95SAPS  H10S 9399   1.395   5.547   7.275  0.6563 -1.4424  1.9693
   95SAPS  C211 9400   1.604   5.584   7.229  0.3075  0.0195 -0.9221
   95SAPS  H11R 9401   1.614   5.660   7.150  0.2593  3.3969  2.2001
   95SAPS  C212 9402   1.716   5.566   7.306 -0.1193 -0.2459 -0.5721
   95SAPS  H12R 9403   1.799   5.637   7.294 -0.7461  0.5662 -0.2002
   95SAPS  C213 9404   1.750   5.455   7.414  0.1898  0.0515 -0.2934
   95SAPS  H13R 9405   1.859   5.471   7.420 -0.0676  2.3140 -1.1137
   95SAPS  H13S 9406   1.724   5.350   7.392  0.2266 -0.2285  0.9927
   95SAPS  C214 9407   1.683   5.478   7.547  0.5997 -0.9426  0.4205
   95SAPS  H14R 9408   1.576   5.502   7.540  0.3262 -0.9047  3.7912
   95SAPS  C215 9409   1.737   5.473   7.667  0.1856  0.5725 -0.1027
   95SAPS  H15R 9410   1.666   5.477   7.751 -0.1964 -1.2930 -0.2962
   95SAPS  C216 9411   1.882   5.433   7.690  0.6479  0.0954 -1.4319
   95SAPS  H16R 9412   1.946   5.524   7.701 -0.1850  0.5418 -0.0810
   95SAPS  H16S 9413   1.923   5.371   7.608 -0.9920  1.1513 -3.0983
   95SAPS  C217 9414   1.885   5.354   7.818 -0.2466  0.3687 -0.2205
   95SAPS  H17R 9415   1.983   5.302   7.809 -0.5315 -0.3070  0.5464
   95SAPS  H17S 9416   1.807   5.275   7.815 -1.0769  1.1788 -0.0997
   95SAPS  C218 9417   1.885   5.436   7.954  0.6576 -0.2380  0.3098
   95SAPS  H18R 9418   1.801   5.508   7.953 -0.1694 -1.1902 -3.2829
   95SAPS  H18S 9419   1.976   5.499   7.962  1.0567 -0.7512 -0.1735
   95SAPS  C219 9420   1.875   5.351   8.078  0.4800 -0.2005 -0.3463
   95SAPS  H19R 9421   1.961   5.282   8.073  1.3305  0.9377 -1.6467
   95SAPS  H19S 9422   1.779   5.295   8.079  1.5622 -2.1306 -2.6304
   95SAPS  C220 9423   1.872   5.433   8.214 -0.2255 -0.0002 -0.3582
   95SAPS  H20R 9424   1.878   5.368   8.303 -1.5841  1.0024  0.4850
   95SAPS  H20S 9425   1.776   5.489   8.219 -0.2412 -0.1202  0.7117
   95SAPS  H20T 9426   1.963   5.498   8.209  0.0209 -0.2071  1.2444
   95SAPS   C33 9427   0.823   5.141   6.913  0.7326  0.5962 -0.2096
   95SAPS   H3X 9428   0.735   5.195   6.873  0.4208 -1.3315 -2.2404
   95SAPS   H3Y 9429   0.916   5.187   6.872  0.4816  0.3608 -1.0411
   95SAPS   C34 9430   0.825   5.160   7.067 -0.5114  0.4010 -0.2144
   95SAPS   H4X 9431   0.907   5.094   7.101  0.3663  1.7787  0.3475
   95SAPS   H4Y 9432   0.735   5.102   7.097  1.5089 -1.3505  2.6953
   95SAPS   C35 9433   0.808   5.308   7.113  0.7097  0.5616 -0.0290
   95SAPS   H5X 9434   0.704   5.342   7.092 -0.4276 -0.8233  3.0913
   95SAPS   H5Y 9435   0.872   5.380   7.058  2.2638  0.1702  1.2489
   95SAPS   C36 9436   0.828   5.331   7.266  1.0417 -0.0561  0.7396
   95SAPS   H6X 9437   0.803   5.234   7.316 -0.6224 -1.0894 -2.0235
   95SAPS   H6Y 9438   0.760   5.411   7.302  2.3623  0.7321  1.5501
   95SAPS   C37 9439   0.972   5.379   7.292  0.2259 -0.0140 -0.1009
   95SAPS   H7X 9440   0.999   5.469   7.233  1.3422 -1.6534 -2.1471
   95SAPS   H7Y 9441   1.042   5.308   7.242 -0.2621 -1.0420  0.6418
   95SAPS   C38 9442   0.991   5.398   7.440 -0.2793 -0.0049  0.3378
   95SAPS   H8X 9443   0.984   5.303   7.496  0.9472 -0.9064 -0.9839
   95SAPS   H8Y 9444   0.901   5.456   7.469 -0.3712  0.3678 -0.6714
   95SAPS   C39 9445   1.111   5.478   7.486 -0.1993  0.7507 -0.1101
   95SAPS   H9X 9446   1.093   5.587   7.470  0.5303  0.7832 -0.7512
   95SAPS   H9Y 9447   1.202   5.453   7.428 -0.9389 -0.7509 -0.6223
   95SAPS  C310 9448   1.139   5.457   7.633  0.1416  0.4270  0.3760
   95SAPS  H10X 9449   1.176   5.353   7.647 -1.4078 -0.1403  0.2990
   95SAPS  H10Y 9450   1.049   5.469   7.696  0.6144  2.3512  0.7275
   95SAPS  C311 9451   1.247   5.562   7.682  0.2488  0.2847  0.1065
   95SAPS  H11X 9452   1.200   5.662   7.679  2.5591  1.3620 -1.4908
   95SAPS  H11Y 9453   1.340   5.552   7.620 -1.0118  1.8284 -2.1085
   95SAPS  C312 9454   1.287   5.544   7.831  0.2395  0.2549  0.3185
   95SAPS  H12X 9455   1.375   5.609   7.849  1.7978 -1.8557  0.4856
   95SAPS  H12Y 9456   1.326   5.441   7.840  0.0682  0.3297  2.0278
   95SAPS  C313 9457   1.175   5.570   7.933  0.4205 -0.1115 -0.6476
   95SAPS  H13X 9458   1.090   5.499   7.920 -1.4073  2.2492 -2.0790
   95SAPS  H13Y 9459   1.140   5.673   7.910 -0.3567 -0.2877 -0.2782
   95SAPS  C314 9460   1.221   5.588   8.084 -0.2072  0.0199  0.1023
   95SAPS  H14X 9461   1.274   5.499   8.123 -1.5770 -1.4041 -1.2558
   95SAPS  H14Y 9462   1.128   5.602   8.142 -0.8034  2.8277 -1.4249
   95SAPS  C315 9463   1.310   5.712   8.097  0.2519 -0.0640 -0.6620
   95SAPS  H15X 9464   1.256   5.807   8.078 -0.2929 -0.4144 -0.8947
   95SAPS  H15Y 9465   1.408   5.704   8.044  2.3306  3.5265  2.4259
   95SAPS  C316 9466   1.356   5.730   8.241  0.3516  0.1815  0.2756
   95SAPS  H16X 9467   1.265   5.725   8.304  0.6398  1.9826  0.8631
   95SAPS  H16Y 9468   1.390   5.834   8.259 -1.8222  1.0031 -0.2457
   95SAPS  C317 9469   1.470   5.633   8.292 -0.2359 -1.0068  0.4892
   95SAPS  H17X 9470   1.563   5.662   8.237 -1.2870 -1.6287 -1.6938
   95SAPS  H17Y 9471   1.435   5.530   8.269  0.4481 -1.2494  0.5174
   95SAPS  C318 9472   1.502   5.641   8.441 -0.1139  0.3519  0.1946
   95SAPS  H18X 9473   1.564   5.550   8.458  0.9173  1.1807  0.9258
   95SAPS  H18Y 9474   1.410   5.633   8.502 -0.9746  0.1296 -1.1208
   95SAPS  H18Z 9475   1.556   5.730   8.480  0.4735  0.1826 -0.2209
   96SAPS     N 9476   2.237   0.705   6.578 -0.0613 -0.3917  0.3525
   96SAPS   HN1 9477   2.301   0.662   6.648 -0.1462 -1.1068 -0.0063
   96SAPS   HN2 9478   2.231   0.801   6.618 -0.9950  0.0803 -0.9070
   96SAPS   HN3 9479   2.150   0.648   6.587 -0.5793  0.4630  0.7625
   96SAPS   C12 9480   2.303   0.684   6.444 -0.0308  0.1901  0.1384
   96SAPS  H12A 9481   2.241   0.733   6.371 -2.0285  0.4806  1.9797
   96SAPS   C13 9482   2.437   0.760   6.437 -0.2626  0.4841  0.0446
   96SAPS  O13A 9483   2.468   0.852   6.520  0.0007 -0.5828 -0.5682
   96SAPS  O13B 9484   2.521   0.718   6.359  0.2599 -0.1322  0.2144
   96SAPS   C11 9485   2.322   0.529   6.432  0.2091 -0.3181 -0.2151
   96SAPS  H11A 9486   2.384   0.492   6.516 -0.2758  1.1324  0.8041
   96SAPS  H11B 9487   2.370   0.502   6.335  1.0803 -0.4512  0.2499
   96SAPS     P 9488   2.177   0.314   6.398 -0.0894  0.4134 -0.0361
   96SAPS   O13 9489   2.040   0.270   6.360  0.2168  0.4536  0.4043
   96SAPS   O14 9490   2.291   0.276   6.315 -0.4395 -0.0477 -0.6578
   96SAPS   O12 9491   2.193   0.471   6.434  0.7204  0.2130 -0.2476
   96SAPS   O11 9492   2.207   0.264   6.541 -0.2116  0.1561 -0.1029
   96SAPS    C1 9493   2.270   0.138   6.555  0.5450  0.3493 -0.4528
   96SAPS    HA 9494   2.191   0.067   6.522 -1.6364  3.0368 -1.1451
   96SAPS    HB 9495   2.358   0.130   6.488 -0.2658 -1.0192 -1.3890
   96SAPS    C2 9496   2.315   0.105   6.699 -0.3754 -0.4511 -0.2829
   96SAPS    HS 9497   2.322  -0.005   6.711 -0.5233 -0.5942 -1.5390
   96SAPS   O21 9498   2.227   0.152   6.810  0.0178 -0.2730 -0.1012
   96SAPS   C21 9499   2.099   0.120   6.805 -0.0675  0.3632  1.0644
   96SAPS   O22 9500   2.045   0.047   6.723 -0.4881  0.2107 -0.1481
   96SAPS   C22 9501   2.024   0.202   6.913  1.0326 -0.0804  0.1597
   96SAPS   H2R 9502   2.094   0.255   6.982  0.7853  0.2318  0.1727
   96SAPS   H2S 9503   1.971   0.285   6.861  0.7092 -0.8438 -0.7202
   96SAPS    C3 9504   2.448   0.179   6.716 -0.1854 -0.2216  0.1334
   96SAPS    HX 9505   2.441   0.282   6.675  3.6433  0.2537  0.4652
   96SAPS    HY 9506   2.528   0.124   6.661 -0.2689  0.9065 -1.1365
   96SAPS   O31 9507   2.489   0.181   6.853 -0.0504  0.3430 -0.1010
   96SAPS   C31 9508   2.511   0.303   6.903  0.2104  0.7780  0.2533
   96SAPS   O32 9509   2.502   0.408   6.844 -0.1400  0.0246  0.6856
   96SAPS   C32 9510   2.560   0.284   7.054 -0.0511 -0.2892  0.2890
   96SAPS   H2X 9511   2.637   0.204   7.046  0.4023  0.4327 -3.8934
   96SAPS   H2Y 9512   2.474   0.250   7.115 -2.7901 -0.2815 -3.3669
   96SAPS   C23 9513   1.931   0.106   6.995  0.2713  0.2081 -0.0026
   96SAPS   H3R 9514   1.994   0.031   7.047  1.9483 -0.4317 -2.8471
   96SAPS   H3S 9515   1.863   0.049   6.928 -0.3732  2.9640 -1.7947
   96SAPS   C24 9516   1.844   0.190   7.103  0.2873  0.1266 -0.4890
   96SAPS   H4R 9517   1.807   0.282   7.054 -0.8258 -0.0519 -0.0064
   96SAPS   H4S 9518   1.914   0.233   7.178  1.8559  0.2597 -2.0075
   96SAPS   C25 9519   1.731   0.106   7.165  0.3123 -0.0638  0.1399
   96SAPS   H5R 9520   1.670   0.062   7.084 -3.3988  4.1694  0.4674
   96SAPS   C26 9521   1.711   0.080   7.297  0.4869 -0.9543  0.5394
   96SAPS   H6R 9522   1.626   0.017   7.326 -0.7760  0.7816  0.7342
   96SAPS   C27 9523   1.782   0.134   7.415 -0.3275  0.4363 -0.6661
   96SAPS   H7R 9524   1.704   0.174   7.483  1.8388  4.0890 -0.1615
   96SAPS   H7S 9525   1.828   0.227   7.374  1.7408  0.6528  2.0066
   96SAPS   C28 9526   1.883   0.043   7.477  0.4597  0.1345 -0.9641
   96SAPS   H8R 9527   1.967   0.009   7.415  0.9850 -0.8102  0.2332
   96SAPS   C29 9528   1.884   0.005   7.605 -0.2160  0.6998  0.1370
   96SAPS   H9R 9529   1.972  -0.050   7.640 -0.1863  1.6002  1.4900
   96SAPS  C210 9530   1.781   0.040   7.708  0.4312 -0.2276  0.3299
   96SAPS  H10R 9531   1.768  -0.038   7.786  0.1859 -0.5553 -0.0328
   96SAPS  H10S 9532   1.676   0.038   7.673  0.4195  0.9610  0.3012
   96SAPS  C211 9533   1.803   0.181   7.768 -0.0033 -0.3230  0.2454
   96SAPS  H11R 9534   1.819   0.264   7.697  0.4807 -0.6536 -0.0331
   96SAPS  C212 9535   1.815   0.200   7.905 -0.1596  0.4676  0.1119
   96SAPS  H12R 9536   1.836   0.305   7.931 -1.0476  1.3944 -2.7349
   96SAPS  C213 9537   1.803   0.106   8.023 -0.2139 -0.5965 -0.6256
   96SAPS  H13R 9538   1.892   0.094   8.088 -0.1187  1.3941 -0.3621
   96SAPS  H13S 9539   1.798   0.000   7.989  1.3530 -1.4290  1.6406
   96SAPS  C214 9540   1.682   0.128   8.102  0.1474  0.9715  0.0643
   96SAPS  H14R 9541   1.592   0.085   8.055 -0.3604  1.0832  0.9390
   96SAPS  C215 9542   1.682   0.189   8.225  0.0400 -0.3035  0.3584
   96SAPS  H15R 9543   1.590   0.179   8.284  0.2335  0.4187  0.7981
   96SAPS  C216 9544   1.816   0.243   8.285  0.1386 -0.2577 -0.1246
   96SAPS  H16R 9545   1.792   0.337   8.339 -0.7284 -1.4638  1.6194
   96SAPS  H16S 9546   1.900   0.271   8.217  0.8063  0.9563  1.1899
   96SAPS  C217 9547   1.872   0.141   8.385 -0.1400 -0.3609  0.4389
   96SAPS  H17R 9548   1.905   0.050   8.330  2.4311  0.6820  0.1807
   96SAPS  H17S 9549   1.799   0.101   8.460 -0.8951 -0.1505 -0.1780
   96SAPS  C218 9550   1.998   0.192   8.476  0.1097  0.9337  0.9262
   96SAPS  H18R 9551   1.974   0.290   8.523 -0.7153  1.4526 -0.5292
   96SAPS  H18S 9552   2.072   0.226   8.400  0.0530  1.4503  1.1001
   96SAPS  C219 9553   2.050   0.079   8.576  0.2703 -0.5301  0.0067
   96SAPS  H19R 9554   2.039  -0.025   8.539 -1.4823 -0.1585 -0.5478
   96SAPS  H19S 9555   1.977   0.083   8.660  0.0580  0.8124 -0.2327
   96SAPS  C220 9556   2.182   0.117   8.630 -0.4351  0.5366 -0.1607
   96SAPS  H20R 9557   2.233   0.041   8.693 -0.2739  0.0173 -0.9110
   96SAPS  H20S 9558   2.178   0.208   8.693 -0.5938 -0.9257  1.9734
   96SAPS  H20T 9559   2.252   0.140   8.546 -1.0466 -0.1411 -0.8708
   96SAPS   C33 9560   2.627   0.415   7.099  0.3900  0.2189  0.1065
   96SAPS   H3X 9561   2.548   0.493   7.092 -0.1438 -0.0189  2.7600
   96SAPS   H3Y 9562   2.711   0.434   7.030  0.6451  1.6059  0.7751
   96SAPS   C34 9563   2.691   0.395   7.242 -0.6271 -0.4526 -0.0679
   96SAPS   H4X 9564   2.741   0.492   7.261 -0.7571 -0.3018 -0.5149
   96SAPS   H4Y 9565   2.770   0.316   7.236  0.7697  0.8640  0.6445
   96SAPS   C35 9566   2.598   0.366   7.352  0.1710 -0.0643 -0.9214
   96SAPS   H5X 9567   2.533   0.279   7.329  1.8269 -1.4178 -0.6070
   96SAPS   H5Y 9568   2.533   0.454   7.371 -0.8559 -0.4645 -2.4981
   96SAPS   C36 9569   2.670   0.342   7.489  0.3388 -0.5321  0.7660
   96SAPS   H6X 9570   2.752   0.267   7.484  1.1243  0.3166  0.8008
   96SAPS   H6Y 9571   2.587   0.296   7.547 -0.5006 -0.7592 -0.5870
   96SAPS   C37 9572   2.718   0.473   7.553  0.1545 -0.4157 -1.0465
   96SAPS   H7X 9573   2.635   0.546   7.563 -0.0204 -0.6846 -0.5205
   96SAPS   H7Y 9574   2.785   0.518   7.477  2.3170 -2.6617 -0.5353
   96SAPS   C38 9575   2.789   0.461   7.689  0.3243 -0.4216 -0.1626
   96SAPS   H8X 9576   2.804   0.565   7.727 -1.9942 -0.8109  1.9176
   96SAPS   H8Y 9577   2.876   0.393   7.676 -0.3733 -0.7379 -3.5172
   96SAPS   C39 9578   2.711   0.378   7.784  0.8267  0.0269 -0.0637
   96SAPS   H9X 9579   2.732   0.271   7.763 -1.2483 -0.3424 -0.3598
   96SAPS   H9Y 9580   2.603   0.399   7.769  0.8481 -1.4839 -2.6316
   96SAPS  C310 9581   2.734   0.389   7.936 -0.4028  0.5094  0.0060
   96SAPS  H10X 9582   2.706   0.490   7.974 -0.7001  0.1208  0.8391
   96SAPS  H10Y 9583   2.838   0.375   7.972 -0.7006  1.6313  1.3829
   96SAPS  C311 9584   2.641   0.290   8.005 -0.3102  0.3462  0.6606
   96SAPS  H11X 9585   2.670   0.185   7.983 -1.8076  0.3041 -1.1970
   96SAPS  H11Y 9586   2.538   0.317   7.976 -0.9552  1.0994  3.4987
   96SAPS  C312 9587   2.650   0.305   8.160  0.2522 -0.7981 -0.3102
   96SAPS  H12X 9588   2.560   0.259   8.207  0.7481 -1.3663  0.0914
   96SAPS  H12Y 9589   2.650   0.412   8.189  1.3894 -0.5106 -1.3406
   96SAPS  C313 9590   2.785   0.236   8.211  0.0305 -0.0132  0.3245
   96SAPS  H13X 9591   2.865   0.299   8.166 -0.0922 -0.0770  0.0185
   96SAPS  H13Y 9592   2.792   0.131   8.177 -1.4427 -0.3972  1.1922
   96SAPS  C314 9593   2.791   0.255   8.365  0.0698 -0.1475  0.0091
   96SAPS  H14X 9594   2.701   0.214   8.417  0.8050 -3.2433 -1.0542
   96SAPS  H14Y 9595   2.790   0.364   8.383  1.7157 -0.1849  0.3185
   96SAPS  C315 9596   2.910   0.190   8.430  0.5427 -0.1696  0.6884
   96SAPS  H15X 9597   3.003   0.213   8.373  0.9397  1.1535  1.8462
   96SAPS  H15Y 9598   2.893   0.081   8.442 -0.2004 -0.1510 -0.1369
   96SAPS  C316 9599   2.922   0.231   8.579 -0.5005 -0.4450 -0.3240
   96SAPS  H16X 9600   2.823   0.208   8.623 -0.6897 -1.1629 -1.1024
   96SAPS  H16Y 9601   2.947   0.339   8.586 -0.6431 -0.5902  2.7590
   96SAPS  C317 9602   3.021   0.149   8.659  0.5120  0.9388 -0.3554
   96SAPS  H17X 9603   2.992   0.045   8.634  1.9723  1.2627 -3.6475
   96SAPS  H17Y 9604   3.019   0.163   8.769 -0.3609 -2.3738  0.0944
   96SAPS  C318 9605   3.166   0.168   8.612 -0.6668  0.6677  0.5002
   96SAPS  H18X 9606   3.177   0.133   8.507  0.7230 -0.8916  1.1538
   96SAPS  H18Y 9607   3.249   0.120   8.667  0.7777  3.3443  0.7518
   96SAPS  H18Z 9608   3.185   0.277   8.626 -0.2030  0.2413  3.2897
   97SAPS     N 9609   3.125   5.417   6.555  0.5401 -0.2606  0.6557
   97SAPS   HN1 9610   3.039   5.454   6.599  0.7102  1.8104 -0.6888
   97SAPS   HN2 9611   3.134   5.318   6.586 -0.6765  0.3276  3.0362
   97SAPS   HN3 9612   3.203   5.478   6.588 -1.3632  1.7688  1.5124
   97SAPS   C12 9613   3.102   5.433   6.409  0.4339  0.2577  0.6639
   97SAPS  H12A 9614   3.053   5.527   6.387  1.1747  0.5308  0.1441
   97SAPS   C13 9615   3.223   5.442   6.316  0.0940  0.2207  0.4418
   97SAPS  O13A 9616   3.340   5.474   6.365 -0.4980 -0.3151  0.4287
   97SAPS  O13B 9617   3.207   5.431   6.191 -0.4777 -0.4883  0.5549
   97SAPS   C11 9618   2.996   5.324   6.374 -0.3980  0.2125  0.3579
   97SAPS  H11A 9619   3.044   5.224   6.369 -1.1378 -0.3586  3.4420
   97SAPS  H11B 9620   2.956   5.341   6.272  1.1543 -0.4489 -0.3745
   97SAPS     P 9621   2.751   5.241   6.431 -0.3070 -0.1656  0.5027
   97SAPS   O13 9622   2.633   5.292   6.501 -0.0710  0.3519 -0.1257
   97SAPS   O14 9623   2.744   5.228   6.282  0.0576  0.6088  0.0880
   97SAPS   O12 9624   2.884   5.323   6.464  0.1563 -0.1976  0.3333
   97SAPS   O11 9625   2.789   5.095   6.487 -0.5702 -0.2954 -0.6785
   97SAPS    C1 9626   2.878   5.066   6.592 -0.4679  0.2173 -0.3059
   97SAPS    HA 9627   2.907   4.960   6.583 -4.2368 -1.0253  1.0979
   97SAPS    HB 9628   2.966   5.134   6.595 -0.4546  0.1494  2.0539
   97SAPS    C2 9629   2.804   5.078   6.728  0.5112  0.3770 -0.5873
   97SAPS    HS 9630   2.748   5.173   6.735 -2.8625 -1.6362  0.7504
   97SAPS   O21 9631   2.892   5.061   6.833 -0.1436 -0.8049 -0.6260
   97SAPS   C21 9632   2.979   5.153   6.868 -0.2842 -0.1782 -0.0875
   97SAPS   O22 9633   2.990   5.258   6.809  0.1651 -0.2747 -0.4412
   97SAPS   C22 9634   3.067   5.111   6.982 -0.6331  0.6484 -0.1198
   97SAPS   H2R 9635   3.109   5.009   6.970 -0.9089  0.6699 -1.4395
   97SAPS   H2S 9636   3.137   5.197   6.996 -0.9336  0.6631  1.3659
   97SAPS    C3 9637   2.675   4.983   6.744  0.0503 -0.4689  0.2212
   97SAPS    HX 9638   2.725   4.887   6.767  0.1678 -0.5985 -0.5863
   97SAPS    HY 9639   2.623   4.986   6.646  0.8991  0.8906 -0.2151
   97SAPS   O31 9640   2.600   5.033   6.856  0.3618  0.5834 -0.5622
   97SAPS   C31 9641   2.488   4.960   6.874  0.1331  0.6142  0.6025
   97SAPS   O32 9642   2.449   4.874   6.797 -0.5308 -0.0066 -0.4078
   97SAPS   C32 9643   2.429   4.994   7.010  0.7515  0.2432 -0.2241
   97SAPS   H2X 9644   2.319   4.984   7.003  1.0106 -1.6624 -2.1211
   97SAPS   H2Y 9645   2.460   5.099   7.029 -2.5520  1.0227  1.1486
   97SAPS   C23 9646   2.998   5.105   7.119 -0.2782 -0.4628 -0.2394
   97SAPS   H3R 9647   3.023   5.008   7.167  0.9603 -0.9320 -1.7932
   97SAPS   H3S 9648   2.888   5.108   7.109 -0.6946 -2.1562  3.1868
   97SAPS   C24 9649   3.045   5.217   7.213  0.2056 -0.1958  0.1105
   97SAPS   H4R 9650   2.999   5.311   7.175 -0.4481 -0.1756  0.9111
   97SAPS   H4S 9651   3.154   5.231   7.223  0.0386 -0.5691  2.8452
   97SAPS   C25 9652   3.000   5.182   7.356 -0.8221 -0.1903  0.4478
   97SAPS   H5R 9653   2.897   5.143   7.365 -0.5001 -1.6688 -1.8073
   97SAPS   C26 9654   3.070   5.188   7.473 -0.1315  0.2277  0.9943
   97SAPS   H6R 9655   3.020   5.167   7.569 -3.8089 -0.0491 -0.8814
   97SAPS   C27 9656   3.213   5.233   7.492  0.2342  0.4271  0.7599
   97SAPS   H7R 9657   3.201   5.343   7.509  0.4116  0.2018  2.4316
   97SAPS   H7S 9658   3.267   5.242   7.395  0.2163 -0.4787  0.6652
   97SAPS   C28 9659   3.303   5.169   7.590 -0.5137 -1.1071  0.6851
   97SAPS   H8R 9660   3.381   5.117   7.532 -1.8005 -0.1587 -1.9849
   97SAPS   C29 9661   3.305   5.175   7.728  0.2463  0.5787  0.2487
   97SAPS   H9R 9662   3.374   5.104   7.775 -0.3792 -1.2436 -1.4965
   97SAPS  C210 9663   3.205   5.241   7.820  0.1938 -0.4407 -0.2750
   97SAPS  H10R 9664   3.142   5.301   7.751  1.1951  1.7077  0.6373
   97SAPS  H10S 9665   3.244   5.318   7.890 -0.6984  0.6301 -0.9368
   97SAPS  C211 9666   3.115   5.137   7.889  0.0078 -0.7043  1.0428
   97SAPS  H11R 9667   3.118   5.037   7.842  0.8145 -0.6623  1.0008
   97SAPS  C212 9668   3.041   5.151   7.995 -0.1066 -0.4872 -0.6513
   97SAPS  H12R 9669   2.986   5.059   8.023 -0.8243 -0.1538 -0.9711
   97SAPS  C213 9670   3.023   5.272   8.082 -0.1738  0.0997 -0.5541
   97SAPS  H13R 9671   3.075   5.357   8.033  0.1814  0.4239  0.3750
   97SAPS  H13S 9672   3.071   5.256   8.181  0.9600 -1.0331 -1.2665
   97SAPS  C214 9673   2.878   5.309   8.090 -0.0656 -0.5236  0.1951
   97SAPS  H14R 9674   2.834   5.361   8.004  0.0135 -0.8558 -0.0440
   97SAPS  C215 9675   2.802   5.309   8.203 -0.3872 -0.6899 -0.7854
   97SAPS  H15R 9676   2.700   5.349   8.205  0.8165  2.5342 -0.3506
   97SAPS  C216 9677   2.840   5.255   8.338 -0.0527  0.1650 -0.2183
   97SAPS  H16R 9678   2.935   5.199   8.348 -0.5716 -0.6365  0.3015
   97SAPS  H16S 9679   2.758   5.185   8.364 -0.3067  0.1770 -0.9973
   97SAPS  C217 9680   2.850   5.360   8.446  0.0820  0.3889  0.3425
   97SAPS  H17R 9681   2.875   5.310   8.542 -0.9399 -0.6976  0.0457
   97SAPS  H17S 9682   2.755   5.416   8.445 -0.2002 -0.0557  1.5585
   97SAPS  C218 9683   2.960   5.469   8.422 -0.1838 -0.2936  0.1421
   97SAPS  H18R 9684   2.917   5.555   8.366  1.8948  1.3063  0.9826
   97SAPS  H18S 9685   3.043   5.432   8.358  0.9746 -0.1617  1.5668
   97SAPS  C219 9686   3.018   5.526   8.555 -0.1783  0.3458 -0.5071
   97SAPS  H19R 9687   3.081   5.442   8.591  0.1016 -0.2396 -2.2683
   97SAPS  H19S 9688   2.934   5.543   8.624 -0.8932  1.0994 -1.5467
   97SAPS  C220 9689   3.076   5.659   8.548 -0.3946 -0.1218  0.1230
   97SAPS  H20R 9690   3.164   5.656   8.480  0.6613 -0.6802  1.4762
   97SAPS  H20S 9691   3.123   5.680   8.646  1.9291 -0.3521 -0.9024
   97SAPS  H20T 9692   3.005   5.740   8.524 -1.2782 -1.2613 -1.1915
   97SAPS   C33 9693   2.480   4.904   7.118  0.1284 -0.5150  0.1418
   97SAPS   H3X 9694   2.462   4.797   7.093  0.7204 -0.1329 -2.1194
   97SAPS   H3Y 9695   2.418   4.933   7.205  1.5482 -1.6855  1.5668
   97SAPS   C34 9696   2.624   4.931   7.151 -0.0966  0.5203  0.0373
   97SAPS   H4X 9697   2.643   5.028   7.202 -1.1389 -0.1762  1.8041
   97SAPS   H4Y 9698   2.684   4.924   7.057 -0.6277  0.0690 -0.2666
   97SAPS   C35 9699   2.677   4.824   7.245 -0.2585 -0.1000 -0.4422
   97SAPS   H5X 9700   2.784   4.848   7.266 -0.4488  3.2577 -2.9512
   97SAPS   H5Y 9701   2.676   4.728   7.190  0.5730  0.3357 -1.2375
   97SAPS   C36 9702   2.609   4.817   7.386 -0.2290  0.0424 -0.5223
   97SAPS   H6X 9703   2.660   4.737   7.444 -0.5561  0.1528 -0.0769
   97SAPS   H6Y 9704   2.503   4.785   7.374 -0.4401 -0.0409  1.3552
   97SAPS   C37 9705   2.610   4.947   7.459  0.6952 -0.0688 -0.0730
   97SAPS   H7X 9706   2.550   5.025   7.406 -0.3502  0.0963  1.3312
   97SAPS   H7Y 9707   2.716   4.980   7.462  0.7691 -0.3674  0.5228
   97SAPS   C38 9708   2.565   4.925   7.608  0.3983  0.2637 -0.1593
   97SAPS   H8X 9709   2.554   5.020   7.664  0.8773 -0.1069  0.5844
   97SAPS   H8Y 9710   2.646   4.878   7.669 -0.2557  0.1895  0.6664
   97SAPS   C39 9711   2.429   4.852   7.623 -0.8974  0.1103  0.2667
   97SAPS   H9X 9712   2.439   4.741   7.621 -1.3219  0.0916 -1.7546
   97SAPS   H9Y 9713   2.368   4.877   7.534 -0.3446  0.5773  0.0160
   97SAPS  C310 9714   2.362   4.896   7.754 -0.7705  0.2990  0.7219
   97SAPS  H10X 9715   2.262   4.846   7.752 -0.0655 -1.1505  0.6064
   97SAPS  H10Y 9716   2.349   5.005   7.763  3.2048  0.7683  1.7683
   97SAPS  C311 9717   2.437   4.846   7.873 -0.5624  0.2824 -0.6013
   97SAPS  H11X 9718   2.535   4.899   7.878 -0.0172 -0.8619  1.3212
   97SAPS  H11Y 9719   2.472   4.744   7.849 -0.1676 -0.4745  2.8813
   97SAPS  C312 9720   2.359   4.839   8.001  0.8312 -0.0499  0.7995
   97SAPS  H12X 9721   2.288   4.755   7.987  0.1035  0.8439 -1.0345
   97SAPS  H12Y 9722   2.294   4.928   8.012  1.0588  0.2041  0.1151
   97SAPS  C313 9723   2.440   4.833   8.127  0.1071  0.0695 -0.7163
   97SAPS  H13X 9724   2.492   4.930   8.146  3.0302 -1.3554 -1.2221
   97SAPS  H13Y 9725   2.521   4.761   8.105 -1.8823 -1.6361 -2.6979
   97SAPS  C314 9726   2.362   4.810   8.260  1.1953  0.9035  0.1280
   97SAPS  H14X 9727   2.287   4.731   8.240  0.5590  0.1629  4.8327
   97SAPS  H14Y 9728   2.301   4.901   8.280 -1.3966 -0.4124 -1.3748
   97SAPS  C315 9729   2.439   4.762   8.378  0.5870 -0.2373 -0.3315
   97SAPS  H15X 9730   2.527   4.827   8.395  1.6103 -1.7735  0.3763
   97SAPS  H15Y 9731   2.482   4.661   8.363  0.4975 -0.4716  0.9044
   97SAPS  C316 9732   2.351   4.770   8.511 -0.3033 -0.1747  0.2867
   97SAPS  H16X 9733   2.273   4.691   8.500 -0.2248  0.0842 -2.7897
   97SAPS  H16Y 9734   2.291   4.863   8.515  1.9751  1.2808  1.5704
   97SAPS  C317 9735   2.429   4.757   8.632 -0.8526 -0.9404  0.2841
   97SAPS  H17X 9736   2.505   4.834   8.662 -1.1810 -0.9524  1.1400
   97SAPS  H17Y 9737   2.496   4.668   8.630 -1.3801 -1.4400  2.9636
   97SAPS  C318 9738   2.331   4.735   8.747 -0.5834  0.1232  0.5039
   97SAPS  H18X 9739   2.301   4.628   8.755  0.3287 -0.0635  1.4949
   97SAPS  H18Y 9740   2.244   4.803   8.739 -1.9332 -1.3496  2.2131
   97SAPS  H18Z 9741   2.386   4.755   8.842 -1.7374  1.2796  0.9452
   98SAPS     N 9742   0.261   4.649   6.384  0.0078  0.0917 -0.2594
   98SAPS   HN1 9743   0.346   4.642   6.443 -0.7592  2.6599  1.2038
   98SAPS   HN2 9744   0.195   4.717   6.427  0.3045  0.5018 -0.4442
   98SAPS   HN3 9745   0.216   4.558   6.403 -0.2612  0.2908  0.0621
   98SAPS   C12 9746   0.295   4.689   6.239 -0.0244  0.6252 -0.8818
   98SAPS  H12A 9747   0.363   4.610   6.212  0.2346  0.5133  0.0598
   98SAPS   C13 9748   0.167   4.680   6.145 -0.1079  0.9258 -1.4928
   98SAPS  O13A 9749   0.068   4.607   6.179  0.3468 -0.1771  0.5468
   98SAPS  O13B 9750   0.185   4.730   6.031  0.1175 -0.0476  0.2231
   98SAPS   C11 9751   0.363   4.830   6.232 -0.0199  0.1176 -0.3683
   98SAPS  H11A 9752   0.287   4.900   6.272 -1.8030 -2.6340  1.2465
   98SAPS  H11B 9753   0.374   4.848   6.122 -2.9917  0.9834 -0.5614
   98SAPS     P 9754   0.616   4.831   6.219 -0.3098  0.0746  0.0380
   98SAPS   O13 9755   0.582   4.773   6.085 -0.0347  0.2191  0.0301
   98SAPS   O14 9756   0.669   4.973   6.224 -0.4232  0.4800 -0.0028
   98SAPS   O12 9757   0.484   4.827   6.307 -0.0957  0.6810 -0.0393
   98SAPS   O11 9758   0.705   4.722   6.294 -0.0188  0.0035  0.7810
   98SAPS    C1 9759   0.651   4.626   6.385 -0.2079 -0.2239 -0.4913
   98SAPS    HA 9760   0.542   4.605   6.376 -0.2292 -0.8741  1.0773
   98SAPS    HB 9761   0.696   4.528   6.360 -0.8244 -1.1999  2.0026
   98SAPS    C2 9762   0.690   4.651   6.535 -0.6236  0.0109 -0.1732
   98SAPS    HS 9763   0.650   4.566   6.594 -2.0928 -0.0834 -1.3029
   98SAPS   O21 9764   0.634   4.781   6.582 -0.3693 -0.1294 -0.3118
   98SAPS   C21 9765   0.505   4.784   6.585  0.2028  1.0950 -1.1570
   98SAPS   O22 9766   0.432   4.685   6.574  0.5640 -0.1023 -0.2266
   98SAPS   C22 9767   0.460   4.928   6.603  0.2134  0.2439  0.0235
   98SAPS   H2R 9768   0.545   4.979   6.653 -0.4967  0.4366  1.0477
   98SAPS   H2S 9769   0.453   4.962   6.498 -2.2296  0.7928  0.3401
   98SAPS    C3 9770   0.845   4.648   6.552 -0.1741  0.0018 -0.4221
   98SAPS    HX 9771   0.881   4.744   6.509  0.0594  1.0807  2.0949
   98SAPS    HY 9772   0.879   4.556   6.500  0.3451  1.3712 -2.5779
   98SAPS   O31 9773   0.890   4.638   6.687 -0.3831  0.2867  0.7761
   98SAPS   C31 9774   1.027   4.637   6.697  0.1024 -0.2876  0.3030
   98SAPS   O32 9775   1.099   4.644   6.598  0.2576  0.3060 -0.7753
   98SAPS   C32 9776   1.069   4.641   6.841 -0.2567  0.7071  0.3058
   98SAPS   H2X 9777   1.060   4.540   6.887  1.4222  0.0394 -0.7926
   98SAPS   H2Y 9778   0.995   4.713   6.884 -0.0564  1.8713 -1.2729
   98SAPS   C23 9779   0.327   4.945   6.676 -0.1631  0.2304  0.0969
   98SAPS   H3R 9780   0.244   4.892   6.625  0.9907 -0.1885 -1.3828
   98SAPS   H3S 9781   0.294   5.049   6.658  1.2336  0.8079  0.7963
   98SAPS   C24 9782   0.333   4.896   6.821  0.2691  0.2201 -0.4923
   98SAPS   H4R 9783   0.385   4.798   6.831  0.5171  0.5961  2.2328
   98SAPS   H4S 9784   0.224   4.884   6.841  0.0498 -3.2584 -3.2462
   98SAPS   C25 9785   0.386   5.001   6.914 -0.4801  0.2098 -0.2614
   98SAPS   H5R 9786   0.382   5.102   6.870 -0.0089 -1.2019 -3.6893
   98SAPS   C26 9787   0.432   4.992   7.039 -0.2432  0.8126 -0.0743
   98SAPS   H6R 9788   0.466   5.083   7.090  0.6874 -0.4166  1.5632
   98SAPS   C27 9789   0.450   4.863   7.112  0.3693 -0.0673  0.3403
   98SAPS   H7R 9790   0.373   4.787   7.088  1.2044 -0.0841 -2.4413
   98SAPS   H7S 9791   0.438   4.874   7.222  1.2086  0.2088  0.4082
   98SAPS   C28 9792   0.582   4.805   7.070 -0.3557 -0.0932 -0.2077
   98SAPS   H8R 9793   0.576   4.750   6.974 -0.4937  0.5601 -0.5747
   98SAPS   C29 9794   0.692   4.803   7.144 -0.8283 -0.0467 -0.3455
   98SAPS   H9R 9795   0.787   4.764   7.105  1.4543  1.8452  3.0434
   98SAPS  C210 9796   0.709   4.863   7.285  0.2789 -0.2179  1.3837
   98SAPS  H10R 9797   0.652   4.806   7.361 -2.0144 -0.1088 -0.1851
   98SAPS  H10S 9798   0.662   4.964   7.292 -0.0189 -0.2243 -0.2542
   98SAPS  C211 9799   0.847   4.868   7.335  0.4556 -0.5555  0.3875
   98SAPS  H11R 9800   0.932   4.855   7.266 -0.0891 -1.3666 -0.1390
   98SAPS  C212 9801   0.882   4.892   7.466  0.3148  0.7657  0.1211
   98SAPS  H12R 9802   0.990   4.885   7.487  0.2975 -1.2542 -0.3519
   98SAPS  C213 9803   0.809   4.921   7.588 -0.0411  0.9500  1.4544
   98SAPS  H13R 9804   0.860   4.882   7.678 -0.4842  0.8233  1.6521
   98SAPS  H13S 9805   0.718   4.857   7.589  0.7882 -0.3943 -1.7786
   98SAPS  C214 9806   0.768   5.065   7.596  0.0572  0.1112 -0.7242
   98SAPS  H14R 9807   0.686   5.096   7.530 -1.5935 -2.6100 -0.0326
   98SAPS  C215 9808   0.820   5.156   7.677 -0.3115 -0.3264  0.1382
   98SAPS  H15R 9809   0.774   5.256   7.674 -0.8567 -0.6021 -1.0712
   98SAPS  C216 9810   0.932   5.130   7.772 -0.0850 -0.0366 -0.5467
   98SAPS  H16R 9811   0.992   5.222   7.793 -0.8960  0.5806 -0.8830
   98SAPS  H16S 9812   1.007   5.059   7.731  1.4593  1.4544 -0.3488
   98SAPS  C217 9813   0.873   5.065   7.901  0.0046  0.0323  0.3801
   98SAPS  H17R 9814   0.832   4.967   7.869 -1.7330  0.0059  2.5677
   98SAPS  H17S 9815   0.790   5.125   7.944 -1.7353 -0.7698 -1.7604
   98SAPS  C218 9816   0.977   5.053   8.017  0.0789  0.1861 -0.3092
   98SAPS  H18R 9817   1.013   5.155   8.043  1.3181 -0.5022  0.7310
   98SAPS  H18S 9818   1.066   5.003   7.974  1.4503  1.0972  1.3879
   98SAPS  C219 9819   0.919   4.980   8.138 -0.0875 -0.1760  0.6698
   98SAPS  H19R 9820   0.890   4.879   8.103  1.8927 -0.5711  0.1442
   98SAPS  H19S 9821   0.825   5.035   8.163 -0.6681  0.6849 -3.0644
   98SAPS  C220 9822   1.019   4.979   8.254  0.0456  0.0369  0.1003
   98SAPS  H20R 9823   1.113   4.932   8.219 -0.1090  0.5972 -1.0844
   98SAPS  H20S 9824   0.984   4.910   8.334  1.0763 -1.3188 -0.6262
   98SAPS  H20T 9825   1.039   5.077   8.304  0.5177 -0.0550  0.0918
   98SAPS   C33 9826   1.208   4.700   6.878  0.0604  0.4802 -0.2981
   98SAPS   H3X 9827   1.228   4.803   6.843  0.3638  0.3006 -0.6616
   98SAPS   H3Y 9828   1.283   4.635   6.828  0.0713  0.1140  0.1923
   98SAPS   C34 9829   1.251   4.710   7.028 -0.0484 -0.9150  0.5633
   98SAPS   H4X 9830   1.180   4.785   7.068 -0.0704 -0.9501  0.5887
   98SAPS   H4Y 9831   1.356   4.743   7.036  0.0649 -0.8378 -1.0771
   98SAPS   C35 9832   1.219   4.579   7.096  0.4522  0.3170  0.2739
   98SAPS   H5X 9833   1.275   4.492   7.055 -1.2154 -0.6396 -0.0346
   98SAPS   H5Y 9834   1.111   4.554   7.086  0.5781 -0.3634  0.5672
   98SAPS   C36 9835   1.260   4.582   7.238  0.3105  0.0367 -0.9361
   98SAPS   H6X 9836   1.195   4.652   7.294  1.4150 -1.4825  2.3378
   98SAPS   H6Y 9837   1.362   4.623   7.251 -0.8560  2.5716  0.6698
   98SAPS   C37 9838   1.253   4.447   7.313  0.6785  0.1187 -0.0018
   98SAPS   H7X 9839   1.317   4.379   7.254  0.0137  0.3109 -0.9490
   98SAPS   H7Y 9840   1.149   4.407   7.313  0.9168 -0.5171  0.5260
   98SAPS   C38 9841   1.316   4.458   7.452 -0.3144  0.0959 -0.6508
   98SAPS   H8X 9842   1.416   4.507   7.456  0.1238 -0.6408 -2.2778
   98SAPS   H8Y 9843   1.338   4.360   7.500  1.9747  1.0285  0.2784
   98SAPS   C39 9844   1.224   4.535   7.551 -0.0348  0.4783  0.9452
   98SAPS   H9X 9845   1.122   4.493   7.546 -0.1564  1.0890 -2.4556
   98SAPS   H9Y 9846   1.207   4.639   7.514 -0.7263  0.2004  0.4961
   98SAPS  C310 9847   1.276   4.532   7.694  0.1244 -0.4219  0.1130
   98SAPS  H10X 9848   1.359   4.605   7.703 -1.0009  0.9635 -0.4473
   98SAPS  H10Y 9849   1.303   4.429   7.724  0.8503 -0.5370 -0.9014
   98SAPS  C311 9850   1.176   4.591   7.796 -0.5037 -0.2473 -0.0152
   98SAPS  H11X 9851   1.100   4.511   7.796 -1.1799  0.3952 -0.0173
   98SAPS  H11Y 9852   1.135   4.689   7.765  1.9575  0.2398 -1.9226
   98SAPS  C312 9853   1.233   4.598   7.937  0.4880 -0.2341  0.0695
   98SAPS  H12X 9854   1.314   4.674   7.936 -0.0976  0.3723 -0.9586
   98SAPS  H12Y 9855   1.271   4.497   7.965  1.7834  0.1643 -0.1847
   98SAPS  C313 9856   1.143   4.654   8.043  0.4836 -0.6817  0.3301
   98SAPS  H13X 9857   1.040   4.618   8.025 -0.1016  1.0577  0.1306
   98SAPS  H13Y 9858   1.136   4.764   8.027  1.5247 -0.7075 -0.3542
   98SAPS  C314 9859   1.191   4.650   8.190 -0.0886 -0.0158  0.3088
   98SAPS  H14X 9860   1.195   4.540   8.205 -1.3643 -0.1374 -0.1470
   98SAPS  H14Y 9861   1.116   4.696   8.258  0.1200  0.6572  0.0902
   98SAPS  C315 9862   1.321   4.716   8.218  0.3090  0.1801 -0.3670
   98SAPS  H15X 9863   1.317   4.819   8.178 -0.6608 -0.2084 -1.3042
   98SAPS  H15Y 9864   1.402   4.668   8.157  0.1505  0.5127 -0.8467
   98SAPS  C316 9865   1.363   4.719   8.362  0.4784  0.0215  0.2976
   98SAPS  H16X 9866   1.320   4.635   8.420 -4.2594  1.5489 -0.8067
   98SAPS  H16Y 9867   1.312   4.801   8.418  0.2157 -1.5792  2.4501
   98SAPS  C317 9868   1.514   4.720   8.368 -0.5484  0.9261  0.8098
   98SAPS  H17X 9869   1.541   4.798   8.293 -2.3441 -0.0502 -0.8980
   98SAPS  H17Y 9870   1.554   4.625   8.328  0.0250  2.1034 -1.5483
   98SAPS  C318 9871   1.572   4.760   8.505  0.3083 -0.2224  0.2890
   98SAPS  H18X 9872   1.521   4.847   8.552 -2.1838 -0.6670 -1.4581
   98SAPS  H18Y 9873   1.683   4.761   8.497  0.1921 -0.9447 -1.6031
   98SAPS  H18Z 9874   1.551   4.673   8.572  0.5115 -1.0615 -0.7227
   99SAPS     N 9875   0.174   1.941   6.173  0.0442  1.0575 -0.6836
   99SAPS   HN1 9876   0.138   1.904   6.264  0.1757  1.1704 -0.5862
   99SAPS   HN2 9877   0.235   1.863   6.142 -2.1588 -0.6292 -0.8974
   99SAPS   HN3 9878   0.234   2.026   6.178  1.5865  0.0857 -1.9318
   99SAPS   C12 9879   0.068   1.939   6.067  0.2490 -0.0673  0.0071
   99SAPS  H12A 9880   0.121   1.963   5.976  3.1145 -0.1647  1.5892
   99SAPS   C13 9881  -0.005   1.807   6.038 -0.0130 -0.1882  0.3923
   99SAPS  O13A 9882   0.048   1.701   6.069  0.2997  0.1567 -0.3312
   99SAPS  O13B 9883  -0.081   1.807   5.941  0.2548 -0.2404  0.3657
   99SAPS   C11 9884  -0.034   2.063   6.104  0.4005  0.2490  0.2770
   99SAPS  H11A 9885  -0.091   2.017   6.187 -0.9133  1.6923  0.1955
   99SAPS  H11B 9886  -0.104   2.072   6.018 -1.9580  0.5937  2.1784
   99SAPS     P 9887  -0.038   2.320   6.182  0.2166 -0.4906  0.3709
   99SAPS   O13 9888   0.018   2.419   6.090 -0.4700 -0.2158 -0.2199
   99SAPS   O14 9889  -0.182   2.298   6.169 -0.0249  0.1447  0.2662
   99SAPS   O12 9890   0.040   2.179   6.147  0.2840 -0.1933 -0.0388
   99SAPS   O11 9891   0.003   2.347   6.325  0.0589  0.1795 -0.4126
   99SAPS    C1 9892   0.100   2.274   6.396  0.6149 -0.2599  0.3333
   99SAPS    HA 9893   0.080   2.167   6.378 -1.1529  0.0571  0.3169
   99SAPS    HB 9894   0.200   2.296   6.351  0.2704 -1.6302 -1.1319
   99SAPS    C2 9895   0.104   2.300   6.551 -0.4066  0.9173  0.1220
   99SAPS    HS 9896   0.193   2.245   6.588  0.0834  1.0236 -0.8791
   99SAPS   O21 9897  -0.019   2.264   6.620  0.2793 -0.0594  0.0502
   99SAPS   C21 9898  -0.039   2.143   6.640 -0.4896  0.3897 -0.2377
   99SAPS   O22 9899   0.030   2.049   6.614 -0.2528 -0.0849 -0.3426
   99SAPS   C22 9900  -0.177   2.128   6.696  0.0971  0.0196 -0.7782
   99SAPS   H2R 9901  -0.183   2.207   6.774  2.0340 -0.1775 -0.4036
   99SAPS   H2S 9902  -0.251   2.165   6.621 -1.3236  0.9126  0.9973
   99SAPS    C3 9903   0.137   2.449   6.569 -0.8876  0.1404 -0.0706
   99SAPS    HX 9904   0.064   2.514   6.516 -2.8900 -1.3286  0.8537
   99SAPS    HY 9905   0.233   2.469   6.517 -2.3164 -1.4660 -3.4608
   99SAPS   O31 9906   0.156   2.489   6.709 -0.1839 -0.1140  0.3468
   99SAPS   C31 9907   0.156   2.625   6.725 -0.3564 -0.0349  0.6637
   99SAPS   O32 9908   0.142   2.710   6.637  0.5543 -0.3925  0.2648
   99SAPS   C32 9909   0.187   2.660   6.867 -0.2986  0.6166 -0.4329
   99SAPS   H2X 9910   0.086   2.661   6.913 -0.3868  3.6931 -0.6136
   99SAPS   H2Y 9911   0.233   2.761   6.863 -1.5623  1.1585 -1.3862
   99SAPS   C23 9912  -0.216   1.988   6.741  0.4439  0.0550  0.2152
   99SAPS   H3R 9913  -0.133   1.967   6.812 -1.1393 -0.8601  1.8369
   99SAPS   H3S 9914  -0.198   1.910   6.663  0.4760 -1.2904  1.5440
   99SAPS   C24 9915  -0.355   1.986   6.805 -0.1385  0.0521 -0.1242
   99SAPS   H4R 9916  -0.435   2.014   6.734 -0.2755  0.5298  0.2206
   99SAPS   H4S 9917  -0.362   2.054   6.892  0.8203  0.1856 -0.1361
   99SAPS   C25 9918  -0.372   1.846   6.850  0.7657 -0.4769 -0.0265
   99SAPS   H5R 9919  -0.384   1.771   6.770  3.1095  0.9843 -1.8239
   99SAPS   C26 9920  -0.387   1.809   6.977  0.3183 -0.3299  0.4943
   99SAPS   H6R 9921  -0.398   1.701   6.993 -3.5582 -0.2760 -1.4297
   99SAPS   C27 9922  -0.394   1.905   7.099  0.0957  0.5184  0.3026
   99SAPS   H7R 9923  -0.299   1.962   7.094 -0.3463  1.2819  0.4213
   99SAPS   H7S 9924  -0.393   1.839   7.188 -0.6090 -0.6243 -0.5226
   99SAPS   C28 9925  -0.506   2.002   7.109 -0.4569  0.0200  1.2416
   99SAPS   H8R 9926  -0.535   2.055   7.017 -0.5595 -0.1738  1.1618
   99SAPS   C29 9927  -0.563   2.039   7.225 -0.1856  0.6888 -0.4141
   99SAPS   H9R 9928  -0.641   2.115   7.210  0.6296  1.4613 -0.7690
   99SAPS  C210 9929  -0.540   1.992   7.366  0.1975  0.4559  0.2340
   99SAPS  H10R 9930  -0.464   1.912   7.380  0.6396  1.0490  1.2682
   99SAPS  H10S 9931  -0.635   1.945   7.399 -0.0535 -1.0457 -2.4913
   99SAPS  C211 9932  -0.501   2.107   7.461  0.6668  0.2342  0.2597
   99SAPS  H11R 9933  -0.491   2.211   7.426 -4.7058  0.6502 -0.4669
   99SAPS  C212 9934  -0.493   2.092   7.590 -0.1715  0.3218  0.0517
   99SAPS  H12R 9935  -0.469   2.177   7.655 -1.8449  1.2881 -0.5805
   99SAPS  C213 9936  -0.512   1.955   7.659 -0.6278  0.2640 -0.3525
   99SAPS  H13R 9937  -0.415   1.937   7.710  0.2249 -0.2299 -2.1063
   99SAPS  H13S 9938  -0.506   1.866   7.592 -2.4348 -1.1610  1.3072
   99SAPS  C214 9939  -0.637   1.936   7.742 -0.1106 -0.1314 -0.0613
   99SAPS  H14R 9940  -0.721   1.936   7.671 -0.4970 -0.1711  0.3990
   99SAPS  C215 9941  -0.654   1.903   7.875 -0.3710 -0.0585  0.2651
   99SAPS  H15R 9942  -0.757   1.876   7.903  0.1374 -1.2985  0.9912
   99SAPS  C216 9943  -0.536   1.880   7.967 -0.3233 -0.0585 -0.2529
   99SAPS  H16R 9944  -0.519   1.966   8.036  3.0535 -0.2401 -0.7913
   99SAPS  H16S 9945  -0.444   1.861   7.907 -1.2224 -1.1069 -1.3233
   99SAPS  C217 9946  -0.550   1.761   8.065  0.0095  0.5152  0.3619
   99SAPS  H17R 9947  -0.464   1.748   8.134 -0.0938 -0.2561  0.3517
   99SAPS  H17S 9948  -0.555   1.661   8.017  1.0749 -0.2609  1.8320
   99SAPS  C218 9949  -0.674   1.765   8.148 -0.0255 -0.4243 -0.8416
   99SAPS  H18R 9950  -0.769   1.746   8.093 -0.0172  1.5861 -1.5910
   99SAPS  H18S 9951  -0.674   1.870   8.184  0.8164 -1.1585  1.3732
   99SAPS  C219 9952  -0.659   1.673   8.274  0.2871  0.0797  0.2379
   99SAPS  H19R 9953  -0.562   1.704   8.320 -0.1996  1.5515  0.3006
   99SAPS  H19S 9954  -0.643   1.569   8.238 -2.4788  0.4862 -2.3314
   99SAPS  C220 9955  -0.768   1.686   8.373  0.7496  0.4106 -0.2600
   99SAPS  H20R 9956  -0.793   1.793   8.387  2.9420  0.6614  2.0779
   99SAPS  H20S 9957  -0.738   1.655   8.476 -2.1318 -0.1401  0.4577
   99SAPS  H20T 9958  -0.862   1.633   8.346 -0.6323  3.2417 -1.2320
   99SAPS   C33 9959   0.279   2.562   6.944 -0.2646 -0.1056  0.4418
   99SAPS   H3X 9960   0.385   2.565   6.910  0.3615 -0.4669  2.3001
   99SAPS   H3Y 9961   0.247   2.456   6.947  0.0045 -0.2954 -1.9881
   99SAPS   C34 9962   0.293   2.600   7.093 -0.3191  0.0924  0.2949
   99SAPS   H4X 9963   0.327   2.703   7.116 -0.9584  0.1865  0.8243
   99SAPS   H4Y 9964   0.382   2.550   7.136 -0.8785 -0.6788  0.5687
   99SAPS   C35 9965   0.173   2.558   7.174 -0.4399 -0.2085 -0.2010
   99SAPS   H5X 9966   0.168   2.447   7.172  2.1736 -0.3774  1.5824
   99SAPS   H5Y 9967   0.074   2.601   7.147 -0.6213 -1.2634 -1.3319
   99SAPS   C36 9968   0.187   2.582   7.324  0.1461  0.4327 -0.5910
   99SAPS   H6X 9969   0.226   2.683   7.348 -1.5382  0.7166  1.1082
   99SAPS   H6Y 9970   0.259   2.510   7.367 -1.1555 -0.9471 -0.6894
   99SAPS   C37 9971   0.053   2.563   7.402  0.7457 -0.3993  0.1597
   99SAPS   H7X 9972   0.030   2.454   7.407  1.2064 -0.5529 -0.8163
   99SAPS   H7Y 9973  -0.025   2.604   7.334  2.2919  0.6652 -0.9897
   99SAPS   C38 9974   0.041   2.637   7.536 -0.3765  0.1401 -0.2056
   99SAPS   H8X 9975  -0.036   2.609   7.612  0.2211 -2.0334 -0.3458
   99SAPS   H8Y 9976   0.033   2.744   7.508  0.5985  0.6386  1.3177
   99SAPS   C39 9977   0.174   2.641   7.617 -0.2812  0.0709  0.1905
   99SAPS   H9X 9978   0.250   2.689   7.552 -2.4926  0.5043 -2.2092
   99SAPS   H9Y 9979   0.201   2.538   7.646 -0.6142 -0.6392 -1.9040
   99SAPS  C310 9980   0.160   2.722   7.747  0.6151  0.3920 -0.4042
   99SAPS  H10X 9981   0.095   2.811   7.732  0.2319  0.6266  2.4629
   99SAPS  H10Y 9982   0.254   2.770   7.781  0.2294  2.4248 -2.1023
   99SAPS  C311 9983   0.097   2.638   7.856 -0.4029 -0.3986  0.7542
   99SAPS  H11X 9984   0.170   2.555   7.867 -0.3655 -0.3785  0.6525
   99SAPS  H11Y 9985  -0.002   2.596   7.827 -1.0957  2.2612 -0.8888
   99SAPS  C312 9986   0.091   2.707   7.996 -0.3678 -0.5758 -0.8131
   99SAPS  H12X 9987   0.195   2.737   8.021 -1.3789  1.1193  1.5194
   99SAPS  H12Y 9988   0.056   2.628   8.064 -0.2775  1.6698  1.9325
   99SAPS  C313 9989  -0.001   2.835   8.006 -0.3708  0.9033 -0.0361
   99SAPS  H13X 9990  -0.103   2.796   7.986 -0.3342  0.7572  0.0651
   99SAPS  H13Y 9991   0.029   2.911   7.930  1.2466 -2.1587 -2.6321
   99SAPS  C314 9992  -0.010   2.895   8.152  0.3644  0.8147  0.1137
   99SAPS  H14X 9993  -0.043   2.810   8.215  2.7661  0.2144  0.6166
   99SAPS  H14Y 9994  -0.084   2.977   8.137 -1.0209 -0.8127 -2.4379
   99SAPS  C315 9995   0.128   2.947   8.200 -0.2223 -0.3790  0.3381
   99SAPS  H15X 9996   0.164   3.026   8.132 -1.8528 -0.4718 -0.6824
   99SAPS  H15Y 9997   0.196   2.860   8.208 -0.8274 -0.9722 -0.8423
   99SAPS  C316 9998   0.108   3.025   8.334 -0.0478  0.0977  0.2486
   99SAPS  H16X 9999   0.113   2.958   8.422  0.1097 -0.3361 -0.0838
   99SAPS  H16Y10000   0.017   3.088   8.338 -0.7344 -0.9933  3.2619
   99SAPS  C31710001   0.228   3.121   8.361 -0.8549  0.0646 -0.2098
   99SAPS  H17X10002   0.224   3.195   8.279 -1.3931  0.3450  0.0714
   99SAPS  H17Y10003   0.328   3.074   8.348 -1.5085 -1.1879 -0.7944
   99SAPS  C31810004   0.224   3.196   8.497 -0.6135  0.1172 -0.2306
   99SAPS  H18X10005   0.262   3.140   8.585  1.1059  1.0991 -0.3380
   99SAPS  H18Y10006   0.117   3.208   8.528 -1.0985 -0.1150 -1.8015
   99SAPS  H18Z10007   0.267   3.297   8.478  0.1539 -0.0703  0.4634
  100SAPS     N10008   2.843   5.052   6.124 -0.2079 -0.1962 -0.2484
  100SAPS   HN110009   2.868   4.962   6.170 -2.2792 -0.7159 -0.0788
  100SAPS   HN210010   2.900   5.068   6.038  0.5588 -2.4407 -0.1919
  100SAPS   HN310011   2.840   5.128   6.194  0.4716  0.8876 -1.3726
  100SAPS   C1210012   2.705   5.019   6.071  0.2578 -0.1858 -0.6181
  100SAPS  H12A10013   2.651   5.110   6.049 -0.5902 -0.8189 -1.1651
  100SAPS   C1310014   2.715   4.930   5.950  0.1049  0.1726 -0.5113
  100SAPS  O13A10015   2.814   4.860   5.920  0.5033 -0.0851 -0.3015
  100SAPS  O13B10016   2.615   4.939   5.870  0.7236 -0.0243 -0.7646
  100SAPS   C1110017   2.621   4.940   6.184 -0.1519 -0.0256 -0.7031
  100SAPS  H11A10018   2.523   4.898   6.152  0.7283 -2.4753 -0.2739
  100SAPS  H11B10019   2.608   5.011   6.269  0.5035  0.5764 -1.0944
  100SAPS     P10020   2.666   4.687   6.259 -0.0166 -0.2122 -0.2881
  100SAPS   O1310021   2.531   4.668   6.204  0.4281  0.7409 -0.6837
  100SAPS   O1410022   2.775   4.590   6.208  0.2656 -0.1574 -0.3308
  100SAPS   O1210023   2.706   4.832   6.226 -0.2702 -0.1617 -0.0055
  100SAPS   O1110024   2.648   4.690   6.412 -0.2083 -0.2957 -0.3744
  100SAPS    C110025   2.767   4.658   6.492 -0.9799 -0.1903 -0.7666
  100SAPS    HA10026   2.860   4.662   6.431  1.0833 -1.7964  2.1815
  100SAPS    HB10027   2.783   4.730   6.575 -0.5183 -0.7374 -0.3778
  100SAPS    C210028   2.755   4.514   6.547  0.7180  0.1706 -0.2951
  100SAPS    HS10029   2.744   4.443   6.462  1.3747 -1.2463  0.7964
  100SAPS   O2110030   2.635   4.511   6.626 -0.4604  0.0319 -0.0577
  100SAPS   C2110031   2.596   4.392   6.666 -0.1720 -0.2032 -0.4509
  100SAPS   O2210032   2.649   4.282   6.642 -0.3802  0.3131 -0.3302
  100SAPS   C2210033   2.476   4.426   6.759  0.6444  0.5427  0.2527
  100SAPS   H2R10034   2.499   4.522   6.810  0.3223  0.6133  0.2653
  100SAPS   H2S10035   2.379   4.427   6.704  0.7508  5.1617 -0.0255
  100SAPS    C310036   2.884   4.472   6.631 -0.3364  0.0223  0.3254
  100SAPS    HX10037   2.968   4.489   6.561 -0.8642 -1.5290 -0.7075
  100SAPS    HY10038   2.889   4.365   6.660  0.4261  0.4749  1.8862
  100SAPS   O3110039   2.911   4.555   6.741 -0.2034  0.3811  0.0937
  100SAPS   C3110040   2.903   4.510   6.867  0.0791  0.1763  0.1143
  100SAPS   O3210041   2.863   4.395   6.888  0.6749 -0.0959  0.3320
  100SAPS   C3210042   2.941   4.621   6.969 -0.1225  1.1263  0.1375
  100SAPS   H2X10043   2.876   4.710   6.956  1.9955  2.7203  0.1565
  100SAPS   H2Y10044   3.038   4.653   6.925 -0.1130  1.2061  0.2166
  100SAPS   C2310045   2.441   4.323   6.863 -0.2700 -0.2772 -0.1593
  100SAPS   H3R10046   2.443   4.218   6.825  0.9808  0.1915 -1.4279
  100SAPS   H3S10047   2.335   4.346   6.885  0.3000  1.0686  1.3053
  100SAPS   C2410048   2.529   4.330   6.995  0.3419  0.4276 -0.9759
  100SAPS   H4R10049   2.635   4.321   6.965  0.5239  0.9197 -0.4993
  100SAPS   H4S10050   2.505   4.235   7.048  0.3355  0.9096 -0.1055
  100SAPS   C2510051   2.491   4.452   7.076  0.7628 -0.2766  0.1648
  100SAPS   H5R10052   2.445   4.533   7.018 -1.3692  0.5144  2.8318
  100SAPS   C2610053   2.515   4.471   7.203  1.2796 -0.7201  0.0867
  100SAPS   H6R10054   2.479   4.564   7.248 -2.3832 -1.7909 -0.4916
  100SAPS   C2710055   2.588   4.382   7.290  0.4585  0.6519 -0.2595
  100SAPS   H7R10056   2.597   4.282   7.242  2.7141  0.5623  0.2744
  100SAPS   H7S10057   2.534   4.352   7.382 -0.4042 -2.2976 -1.6598
  100SAPS   C2810058   2.722   4.425   7.338 -0.4749 -0.4919  0.3896
  100SAPS   H8R10059   2.791   4.414   7.253 -1.8950  2.0154 -1.1338
  100SAPS   C2910060   2.768   4.455   7.458  0.0567 -0.2920  0.4794
  100SAPS   H9R10061   2.874   4.481   7.475  0.5025 -1.7946  0.0785
  100SAPS  C21010062   2.695   4.456   7.588  0.4140 -0.0352 -0.0524
  100SAPS  H10R10063   2.587   4.482   7.582  0.2340 -0.6920  0.2731
  100SAPS  H10S10064   2.752   4.539   7.635  1.9341  0.3373 -2.4468
  100SAPS  C21110065   2.690   4.333   7.668  0.3498 -0.1905 -0.2510
  100SAPS  H11R10066   2.677   4.246   7.601 -0.6293  0.2210 -0.6025
  100SAPS  C21210067   2.684   4.323   7.803  0.2279  0.6555 -0.2910
  100SAPS  H12R10068   2.680   4.225   7.852  0.1251  2.3716  3.3743
  100SAPS  C21310069   2.679   4.435   7.901 -0.2713  0.4959 -0.0218
  100SAPS  H13R10070   2.576   4.442   7.942 -0.8998  1.7475 -1.7607
  100SAPS  H13S10071   2.697   4.537   7.861  0.4191  0.8908  1.2774
  100SAPS  C21410072   2.785   4.414   8.004 -0.5661 -0.1948  0.2847
  100SAPS  H14R10073   2.887   4.398   7.964 -0.4701  0.0384  0.4331
  100SAPS  C21510074   2.767   4.396   8.138  0.0571 -0.3256  0.4805
  100SAPS  H15R10075   2.858   4.391   8.201  1.0216  0.3173 -0.8539
  100SAPS  C21610076   2.629   4.400   8.209 -0.0781 -0.7579 -0.5230
  100SAPS  H16R10077   2.551   4.377   8.133 -1.3544  0.0964  0.5050
  100SAPS  H16S10078   2.601   4.505   8.231  1.1271  0.0907 -2.8419
  100SAPS  C21710079   2.613   4.307   8.326 -0.2104  0.8053  0.2471
  100SAPS  H17R10080   2.693   4.321   8.402  1.4133  2.1895 -1.6715
  100SAPS  H17S10081   2.607   4.200   8.299 -3.5640  0.8958  0.4212
  100SAPS  C21810082   2.483   4.328   8.393 -0.0902  0.0849  0.6408
  100SAPS  H18R10083   2.403   4.271   8.340 -0.4640  0.8244  0.3973
  100SAPS  H18S10084   2.446   4.431   8.408  1.7365  0.8433  0.0469
  100SAPS  C21910085   2.490   4.264   8.534 -0.1437  0.3795  0.6953
  100SAPS  H19R10086   2.569   4.321   8.588  2.1127  0.4399 -2.5577
  100SAPS  H19S10087   2.516   4.156   8.523 -3.1566 -0.2864 -0.3295
  100SAPS  C22010088   2.356   4.282   8.601  0.2766 -0.1093  0.7593
  100SAPS  H20R10089   2.344   4.385   8.640 -1.4686 -0.1055  0.2765
  100SAPS  H20S10090   2.348   4.214   8.688 -0.0276 -0.6824  0.2901
  100SAPS  H20T10091   2.279   4.248   8.528  0.9800 -0.8649  0.3727
  100SAPS   C3310092   2.975   4.587   7.115  0.2757 -0.6332  0.5923
  100SAPS   H3X10093   2.980   4.477   7.130  2.2709 -0.7814 -0.9260
  100SAPS   H3Y10094   2.896   4.606   7.191  1.4180  0.0403  1.6318
  100SAPS   C3410095   3.108   4.656   7.158  0.4181 -0.1539 -0.6187
  100SAPS   H4X10096   3.105   4.765   7.137 -0.2216 -0.4273 -1.9721
  100SAPS   H4Y10097   3.196   4.607   7.111 -0.0144 -1.0867 -0.4631
  100SAPS   C3510098   3.131   4.656   7.311  0.7647 -0.4297  0.8935
  100SAPS   H5X10099   3.229   4.697   7.344 -1.0454  2.6384  2.6829
  100SAPS   H5Y10100   3.137   4.551   7.346 -2.9988 -1.3985 -1.0817
  100SAPS   C3610101   3.018   4.720   7.401 -0.2432  0.1166 -0.5370
  100SAPS   H6X10102   2.920   4.672   7.382 -0.5241  0.1746  0.7278
  100SAPS   H6Y10103   3.019   4.829   7.381  0.0475  0.2758  0.2990
  100SAPS   C3710104   3.058   4.702   7.547  0.8150 -0.3806 -0.0418
  100SAPS   H7X10105   3.157   4.750   7.565  1.2237 -0.5295 -1.8021
  100SAPS   H7Y10106   3.068   4.600   7.590 -0.1395 -1.2429 -1.8260
  100SAPS   C3810107   2.962   4.765   7.646 -0.1409  0.3246 -0.1574
  100SAPS   H8X10108   2.856   4.741   7.627  0.0192  0.2687 -0.9820
  100SAPS   H8Y10109   2.959   4.874   7.621 -2.7420  0.3942  0.2877
  100SAPS   C3910110   2.994   4.733   7.797  0.1661  0.6718 -0.5356
  100SAPS   H9X10111   3.102   4.760   7.805  0.5993 -0.3559 -2.4991
  100SAPS   H9Y10112   2.987   4.623   7.809  2.2073  0.6461  0.7025
  100SAPS  C31010113   2.905   4.807   7.900  0.1154 -0.3742  0.5499
  100SAPS  H10X10114   2.806   4.757   7.890  0.3728 -0.4680 -1.7333
  100SAPS  H10Y10115   2.902   4.912   7.864 -0.6783 -0.5588  0.0720
  100SAPS  C31110116   2.959   4.783   8.043 -0.5426  0.0030  0.0182
  100SAPS  H11X10117   3.058   4.831   8.056 -1.1611  1.3578 -0.1355
  100SAPS  H11Y10118   2.975   4.674   8.058  1.0847  0.4705  1.8317
  100SAPS  C31210119   2.862   4.829   8.149  0.1459 -0.3387  0.0898
  100SAPS  H12X10120   2.764   4.780   8.130 -0.0159  0.2456 -0.5761
  100SAPS  H12Y10121   2.835   4.936   8.141 -0.4562 -0.5464 -0.7400
  100SAPS  C31310122   2.910   4.799   8.287 -0.0397 -0.6746 -0.6271
  100SAPS  H13X10123   3.006   4.850   8.310 -0.8208  0.0551  1.0608
  100SAPS  H13Y10124   2.919   4.691   8.311  0.7481 -0.5935 -0.5247
  100SAPS  C31410125   2.811   4.848   8.381  0.5667 -0.1266  0.1392
  100SAPS  H14X10126   2.742   4.762   8.396  2.5381 -1.9307 -0.8846
  100SAPS  H14Y10127   2.763   4.940   8.342  1.4680 -0.2942 -1.3979
  100SAPS  C31510128   2.852   4.871   8.526  0.4831 -0.2771  0.2036
  100SAPS  H15X10129   2.772   4.930   8.576 -0.6680 -1.2648 -0.4312
  100SAPS  H15Y10130   2.938   4.941   8.519 -0.2580  0.6367  0.1460
  100SAPS  C31610131   2.894   4.740   8.602 -0.0783  0.1062 -0.1395
  100SAPS  H16X10132   2.997   4.722   8.563 -0.2667  0.3234 -0.7440
  100SAPS  H16Y10133   2.824   4.660   8.570  0.9590 -0.5818 -0.7118
  100SAPS  C31710134   2.892   4.766   8.750 -0.6114 -0.2612 -0.5320
  100SAPS  H17X10135   2.799   4.819   8.779  0.2130 -0.0029  1.6835
  100SAPS  H17Y10136   2.969   4.830   8.797 -2.5140  1.5199  0.2229
  100SAPS  C31810137   2.897   4.631   8.832  0.6313  0.2536  0.0896
  100SAPS  H18X10138   2.800   4.582   8.811  0.8549 -0.1119 -0.0968
  100SAPS  H18Y10139   2.890   4.649   8.942  0.1900 -2.4977  0.5347
  100SAPS  H18Z10140   2.986   4.572   8.801  0.9158  0.2028  0.9610
  101OSM      N10141   1.315   4.303  10.668 -0.3897 -0.6217 -0.5400
  101OSM    C1510142   1.366   4.185  10.592 -0.7028  0.0903 -0.0835
  101OSM   H15A10143   1.286   4.129  10.547 -0.3464 -0.8065  0.3841
  101OSM   H15B10144   1.438   4.126  10.647  0.4846  1.2193 -0.3900
  101OSM   H15C10145   1.424   4.224  10.510  2.1748  0.0935  1.8738
  101OSM    C1410146   1.217   4.379  10.587  0.6986  0.9134  0.1423
  101OSM   H14A10147   1.263   4.433  10.506  1.0989 -0.8435 -0.8322
  101OSM   H14B10148   1.171   4.457  10.646  0.2620  0.3142  0.5961
  101OSM   H14C10149   1.140   4.308  10.561  0.1256  0.3583  3.1548
  101OSM    C1310150   1.249   4.242  10.791 -0.7656 -0.2030 -0.4533
  101OSM   H13A10151   1.206   4.317  10.856 -0.7493  0.2834 -0.9900
  101OSM   H13B10152   1.309   4.179  10.854  0.3599 -0.7388 -2.0318
  101OSM   H13C10153   1.163   4.180  10.768  0.2553 -1.3180 -1.3056
  101OSM    C1210154   1.430   4.391  10.718 -0.3681  0.3128 -0.0843
  101OSM   H12A10155   1.484   4.330  10.789  1.4679 -1.3873 -2.8341
  101OSM   H12B10156   1.390   4.473  10.776 -0.3864 -0.0691  0.4450
  101OSM    C1110157   1.533   4.450  10.620  0.7359  0.0835  0.0551
  101OSM   H11A10158   1.576   4.373  10.553  1.7575  0.8999 -0.2312
  101OSM   H11B10159   1.619   4.495  10.675 -0.6178  0.0521  2.2712
  101OSM      P10160   1.447   4.693  10.566 -0.1465 -0.3328  0.4513
  101OSM    O1310161   1.325   4.743  10.505 -0.0459 -0.3412  0.0170
  101OSM    O1410162   1.469   4.732  10.705 -0.1776 -0.0267 -0.2875
  101OSM    O1110163   1.573   4.748  10.477  0.1504  0.3574 -0.4945
  101OSM    O1210164   1.454   4.542  10.542  0.3612 -0.2425 -0.1280
  101OSM    C1S10165   1.579   4.693  10.348 -0.3343  0.2877  0.8385
  101OSM    H1S10166   1.496   4.734  10.286  2.1491  0.3976 -2.5488
  101OSM    H1T10167   1.578   4.582  10.352  0.4599  0.1918 -0.9818
  101OSM     NF10168   1.701   4.710  10.129  0.1088 -0.1189  0.0147
  101OSM    HNF10169   1.761   4.638  10.096  0.7805 -0.2509  1.5018
  101OSM    C2S10170   1.712   4.744  10.273  0.1147 -0.7856 -0.4134
  101OSM    H2S10171   1.714   4.854  10.284 -0.5713 -0.8154 -0.0071
  101OSM    C3S10172   1.837   4.695  10.348 -0.1881 -0.1245 -0.2570
  101OSM    H3S10173   1.840   4.584  10.338 -1.0706  0.0095 -2.3610
  101OSM     O310174   1.844   4.721  10.484 -0.0176  0.1379  0.0566
  101OSM    HO310175   1.748   4.725  10.494  0.0989 -0.0657  1.3476
  101OSM    C4S10176   1.960   4.754  10.302  0.2394  0.2802 -0.4525
  101OSM    H4S10177   1.971   4.863  10.302  1.0350  0.1976  1.2532
  101OSM    C5S10178   2.067   4.687  10.254  1.0013 -1.1138 -0.0941
  101OSM    H5S10179   2.062   4.578  10.239 -0.4626 -1.0061 -0.4978
  101OSM    C6S10180   2.188   4.766  10.207 -0.9389 -0.2662  0.8545
  101OSM    H6S10181   2.280   4.725  10.253  0.6871  2.2442 -0.0650
  101OSM    H6T10182   2.172   4.870  10.244 -1.2819  0.3142 -0.8591
  101OSM    C7S10183   2.187   4.772  10.049 -0.1691 -0.7963 -0.0506
  101OSM    H7S10184   2.083   4.800  10.024  1.1469  0.8857 -4.0304
  101OSM    H7T10185   2.226   4.677  10.009 -0.4755 -0.7741 -0.4003
  101OSM    C8S10186   2.282   4.881   9.995  0.1537 -0.0738  0.2458
  101OSM    H8S10187   2.387   4.874  10.030  0.2342 -0.3486 -0.0486
  101OSM    H8T10188   2.232   4.976  10.024 -2.9765 -1.8481  0.8634
  101OSM    C9S10189   2.286   4.868   9.837  0.3835 -0.2489 -0.5740
  101OSM    H9S10190   2.301   4.760   9.812 -2.2558 -0.7626 -0.1163
  101OSM    H9T10191   2.379   4.916   9.800  1.5819 -0.9466  1.4662
  101OSM   C10S10192   2.158   4.914   9.768  0.3191 -0.1651  0.5816
  101OSM   H10S10193   2.147   5.024   9.780 -1.3213 -0.0513 -1.6795
  101OSM   H10T10194   2.068   4.873   9.819  0.2477 -0.9307 -0.1707
  101OSM   C11S10195   2.153   4.883   9.625 -0.0375  0.1574  0.4596
  101OSM   H11S10196   2.249   4.922   9.586  1.0806  0.1418  3.1032
  101OSM   H11T10197   2.081   4.939   9.562 -0.2675  0.3147  0.8600
  101OSM   C12S10198   2.130   4.737   9.587  0.2963  0.3749 -0.0312
  101OSM   H12S10199   2.039   4.694   9.634  0.8724 -1.2430 -0.3972
  101OSM   H12T10200   2.216   4.673   9.614  0.7361  0.4037 -1.3243
  101OSM   C13S10201   2.118   4.710   9.434  1.4082 -0.1246  0.3358
  101OSM   H13S10202   2.036   4.774   9.393  1.2118 -0.6131 -0.0344
  101OSM   H13T10203   2.080   4.608   9.413  0.5414  0.5849 -1.6932
  101OSM   C14S10204   2.259   4.718   9.374 -0.3113 -0.0977 -0.5577
  101OSM   H14S10205   2.328   4.646   9.424 -1.2270  0.0930  0.9788
  101OSM   H14T10206   2.296   4.822   9.383  0.1999 -0.1342 -2.0934
  101OSM   C15S10207   2.255   4.680   9.216 -0.7862  0.7556 -0.1701
  101OSM   H15S10208   2.204   4.750   9.148 -0.5932 -0.7364 -1.8896
  101OSM   H15T10209   2.207   4.580   9.212  0.9277 -0.0585 -1.0386
  101OSM   C16S10210   2.394   4.659   9.154  0.1403 -0.1829  0.3330
  101OSM   H16S10211   2.393   4.617   9.051  0.7964  2.7895 -0.9235
  101OSM   H16T10212   2.441   4.580   9.216 -0.3614 -0.0218  0.9265
  101OSM   C17S10213   2.483   4.784   9.147  0.4912  0.7976 -0.1503
  101OSM   H17S10214   2.514   4.828   9.244 -2.1187  2.1335  0.1138
  101OSM   H17T10215   2.418   4.855   9.091 -0.6814 -0.0518  0.1077
  101OSM   C18S10216   2.610   4.765   9.062 -0.1685  0.2725  0.9663
  101OSM   H18S10217   2.666   4.676   9.098  1.2707  0.2148 -1.3415
  101OSM   H18T10218   2.673   4.855   9.078  0.7234 -0.6208  2.5797
  101OSM   H18U10219   2.583   4.753   8.955  1.1591 -1.0894  0.7699
  101OSM    C1F10220   1.612   4.774  10.050  0.3329  0.1731  0.0623
  101OSM     OF10221   1.533   4.855  10.096 -0.7050 -0.1134 -0.2995
  101OSM    C2F10222   1.623   4.747   9.899  0.3170  0.6000 -0.4428
  101OSM    H2F10223   1.600   4.639   9.887 -3.2403  1.2677 -0.2141
  101OSM    H2G10224   1.728   4.766   9.868  0.2162  0.8042 -0.6533
  101OSM    C3F10225   1.518   4.821   9.805 -0.6477 -0.1673  0.8795
  101OSM    H3F10226   1.537   4.929   9.825 -1.3461 -0.2684  2.0790
  101OSM    H3G10227   1.416   4.800   9.844 -0.5580 -0.6735  0.8493
  101OSM    C4F10228   1.550   4.788   9.657 -0.0263  0.2259  0.7371
  101OSM    H4F10229   1.656   4.754   9.652  0.3558  1.2729  1.5469
  101OSM    H4G10230   1.553   4.873   9.585  0.8501 -2.0973 -2.0771
  101OSM    C5F10231   1.458   4.677   9.599  0.3376  0.3460 -0.6958
  101OSM    H5F10232   1.355   4.718   9.592  0.1663  0.1432  0.5422
  101OSM    H5G10233   1.462   4.584   9.660  0.1274  0.8793  0.1496
  101OSM    C6F10234   1.484   4.633   9.448 -0.4059 -0.7546 -0.6978
  101OSM    H6F10235   1.435   4.694   9.370  0.6145  0.2514 -0.5601
  101OSM    H6G10236   1.442   4.530   9.444 -1.0579 -0.4975 -0.5946
  101OSM    C7F10237   1.635   4.620   9.412  0.0711  0.1557 -0.3510
  101OSM    H7F10238   1.689   4.557   9.485 -2.5184 -0.3096  1.2383
  101OSM    H7G10239   1.673   4.724   9.408 -0.6637  0.4692  0.6879
  101OSM    C8F10240   1.655   4.573   9.268  0.2414  0.0247 -0.1903
  101OSM    H8F10241   1.617   4.646   9.193  0.8039  1.8064  1.2353
  101OSM    H8G10242   1.585   4.491   9.244  2.1448 -1.1971 -1.7518
  101OSM    C9F10243   1.795   4.525   9.227 -0.4456  0.6032 -0.3860
  101OSM    H9F10244   1.827   4.434   9.278 -0.7474  1.9400  2.2597
  101OSM   C10F10245   1.869   4.573   9.128 -0.2964  0.5374  0.3311
  101OSM   H10F10246   1.970   4.534   9.107 -1.7462 -2.9533 -0.6128
  101OSM   C11F10247   1.827   4.684   9.031  0.8785  0.0309  0.2368
  101OSM   H11F10248   1.905   4.763   9.030 -0.3929  1.3613  2.0679
  101OSM   H11G10249   1.739   4.739   9.071 -0.0594 -0.3657 -1.2410
  101OSM   C12F10250   1.782   4.631   8.892  0.7575  0.3975 -0.0596
  101OSM   H12F10251   1.729   4.714   8.840  2.2179  0.6327 -1.2143
  101OSM   H12G10252   1.691   4.567   8.892  1.4904 -0.6465 -1.2325
  101OSM   C13F10253   1.892   4.560   8.819 -0.3866 -0.0440  0.0795
  101OSM   H13F10254   1.912   4.465   8.873 -1.4185 -0.5709 -0.4640
  101OSM   H13G10255   1.981   4.626   8.830 -0.8989  0.8285 -0.8992
  101OSM   C14F10256   1.859   4.540   8.670 -0.1287 -0.7712 -0.4640
  101OSM   H14F10257   1.839   4.645   8.637 -0.3199 -0.5726  0.2867
  101OSM   H14G10258   1.766   4.482   8.652 -0.3556 -0.4153 -0.4484
  101OSM   C15F10259   1.975   4.482   8.595 -0.2404 -0.5196 -0.0660
  101OSM   H15F10260   1.969   4.372   8.610  1.1371 -0.5897  0.0755
  101OSM   H15G10261   2.073   4.516   8.634 -1.0839 -1.1395  2.6984
  101OSM   C16F10262   1.976   4.522   8.447 -0.6686 -1.0671  0.8183
  101OSM   H16F10263   1.990   4.632   8.435 -3.1812 -0.4801  3.0098
  101OSM   H16G10264   1.884   4.494   8.391 -0.0292  0.6588 -1.1639
  101OSM   C17F10265   2.086   4.441   8.369 -0.7085  0.3017  0.3921
  101OSM   H17F10266   2.089   4.335   8.402 -2.4221  0.9870  2.8788
  101OSM   H17G10267   2.188   4.476   8.396 -0.0673  0.5061 -2.1853
  101OSM   C18F10268   2.078   4.448   8.219 -0.2091  0.1702  0.0854
  101OSM   H18F10269   1.980   4.404   8.193 -0.5087  0.7855  0.1690
  101OSM   H18G10270   2.167   4.389   8.188 -0.5134 -0.0519 -0.3607
  101OSM   H18H10271   2.097   4.547   8.174 -2.1277  0.3246 -0.4383
  102OSM      N10272   2.119   4.497  10.692 -0.4155  0.1434  0.9806
  102OSM    C1510273   2.168   4.607  10.778  0.4936 -0.1930  0.7499
  102OSM   H15A10274   2.275   4.615  10.770  0.4705 -0.5290  0.0512
  102OSM   H15B10275   2.154   4.584  10.882  0.6084 -2.0454  0.3871
  102OSM   H15C10276   2.125   4.702  10.754 -2.7404 -1.4229  1.4381
  102OSM    C1410277   2.108   4.545  10.552  0.4979 -0.0867 -0.2287
  102OSM   H14A10278   2.202   4.567  10.504  1.0714 -1.8147  0.0920
  102OSM   H14B10279   2.039   4.629  10.551  2.0118  1.1797 -0.9286
  102OSM   H14C10280   2.054   4.474  10.491  1.5920 -1.2659  0.1883
  102OSM    C1310281   2.212   4.382  10.701 -0.3228 -0.3122  0.1544
  102OSM   H13A10282   2.307   4.411  10.661 -1.8935  3.5663 -1.0296
  102OSM   H13B10283   2.166   4.307  10.637 -0.1302 -2.1332  2.0733
  102OSM   H13C10284   2.220   4.340  10.801  1.2398 -2.4216 -0.8224
  102OSM    C1210285   1.977   4.464  10.750 -0.2870 -0.8142 -0.6153
  102OSM   H12A10286   1.930   4.557  10.778  1.4834  0.7402 -2.5950
  102OSM   H12B10287   1.996   4.408  10.841 -2.6396 -1.6196 -0.6084
  102OSM    C1110288   1.878   4.385  10.658  0.9907 -0.3966  0.2516
  102OSM   H11A10289   1.859   4.444  10.565  1.7645  1.3739  1.2024
  102OSM   H11B10290   1.786   4.377  10.719  1.0399  0.1835  0.4023
  102OSM      P10291   1.929   4.132  10.709  0.0224 -0.0276 -0.3029
  102OSM    O1310292   2.065   4.072  10.722  0.4407 -0.0793  0.2346
  102OSM    O1410293   1.860   4.172  10.838  0.2044 -0.6514  0.0980
  102OSM    O1110294   1.830   4.034  10.633  0.0555 -0.0092  0.3059
  102OSM    O1210295   1.937   4.259  10.619  0.2911  0.0328 -0.2508
  102OSM    C1S10296   1.713   4.081  10.569 -0.0705  0.6009 -0.4510
  102OSM    H1S10297   1.702   4.188  10.542 -0.3335  1.0774  1.4693
  102OSM    H1T10298   1.626   4.046  10.629  1.7969 -0.9849  1.4159
  102OSM     NF10299   1.599   4.084  10.350  0.0197  0.1986  0.1425
  102OSM    HNF10300   1.517   4.031  10.337  0.6090 -1.1465  1.7304
  102OSM    C2S10301   1.706   4.016  10.428 -0.7514 -0.1711 -0.2942
  102OSM    H2S10302   1.808   4.029  10.385  0.0018  1.0119  1.7880
  102OSM    C3S10303   1.683   3.864  10.440  0.2082  0.8708 -0.4676
  102OSM    H3S10304   1.581   3.855  10.483  0.1148 -1.5446 -1.1587
  102OSM     O310305   1.789   3.796  10.509  0.2349 -0.1456  0.1343
  102OSM    HO310306   1.816   3.863  10.572  1.6788 -0.9237  0.3519
  102OSM    C4S10307   1.662   3.809  10.298 -0.1535  0.1649 -0.5112
  102OSM    H4S10308   1.558   3.785  10.273 -0.3821  1.0647 -0.4587
  102OSM    C5S10309   1.755   3.776  10.206  0.8674  0.2808  0.3271
  102OSM    H5S10310   1.860   3.777  10.239  1.7998  0.6597 -2.4535
  102OSM    C6S10311   1.719   3.725  10.066  0.5630 -0.1736 -0.7949
  102OSM    H6S10312   1.708   3.615  10.071  2.5110 -0.3549 -0.3262
  102OSM    H6T10313   1.790   3.747   9.984  2.1681 -0.8218  0.3855
  102OSM    C7S10314   1.584   3.784  10.022 -0.4584  0.3269  0.7164
  102OSM    H7S10315   1.580   3.894  10.033  0.5743  0.6343 -1.7222
  102OSM    H7T10316   1.503   3.733  10.078  0.1714 -0.5997  0.7963
  102OSM    C8S10317   1.558   3.755   9.877  0.7568  0.5296 -0.3895
  102OSM    H8S10318   1.468   3.806   9.834  0.7792 -0.5723 -1.8000
  102OSM    H8T10319   1.528   3.648   9.875  0.2891  0.5193  3.5716
  102OSM    C9S10320   1.668   3.766   9.770 -0.0364  0.0760  0.7394
  102OSM    H9S10321   1.766   3.726   9.802  0.1269 -0.1413 -0.0185
  102OSM    H9T10322   1.683   3.876   9.759  2.7053 -0.3167  0.3126
  102OSM   C10S10323   1.625   3.696   9.635 -0.4082 -1.1042  0.4711
  102OSM   H10S10324   1.519   3.725   9.619 -0.3892 -0.0401  2.1936
  102OSM   H10T10325   1.634   3.587   9.656  1.9345 -1.3969 -1.7724
  102OSM   C11S10326   1.719   3.723   9.514  0.4533 -0.0332  0.3110
  102OSM   H11S10327   1.817   3.682   9.543 -0.4270 -0.7724  2.3188
  102OSM   H11T10328   1.727   3.831   9.488  1.0418 -0.0688  0.3518
  102OSM   C12S10329   1.677   3.650   9.389  0.3447  0.7125  0.2488
  102OSM   H12S10330   1.572   3.674   9.361  0.3362  1.5632  0.9988
  102OSM   H12T10331   1.688   3.541   9.407  0.3975  1.1271  2.8858
  102OSM   C13S10332   1.776   3.673   9.272  0.6232  0.6238  0.5152
  102OSM   H13S10333   1.872   3.624   9.299  0.0126  0.6175  2.7984
  102OSM   H13T10334   1.796   3.779   9.248  1.8040  0.5721  1.2166
  102OSM   C14S10335   1.720   3.598   9.142  0.3335  0.1313 -0.1020
  102OSM   H14S10336   1.660   3.676   9.090  1.9078  0.6050 -1.2550
  102OSM   H14T10337   1.659   3.505   9.148 -0.9369  0.8387 -1.5159
  102OSM   C15S10338   1.834   3.563   9.038 -0.2617 -0.4008 -0.5899
  102OSM   H15S10339   1.796   3.493   8.961  1.1259  0.0442 -1.6910
  102OSM   H15T10340   1.914   3.516   9.099  0.4847 -0.3199 -1.4948
  102OSM   C16S10341   1.893   3.686   8.958 -0.4917 -0.7309  0.2395
  102OSM   H16S10342   1.936   3.759   9.030 -0.0279 -0.3350 -0.4312
  102OSM   H16T10343   1.808   3.728   8.900  0.5421  0.3274 -0.5516
  102OSM   C17S10344   2.005   3.647   8.864 -0.2532 -0.2785 -0.2771
  102OSM   H17S10345   1.974   3.567   8.793 -0.1138 -0.1952 -0.4320
  102OSM   H17T10346   2.096   3.610   8.917  1.9001 -0.1415 -3.6897
  102OSM   C18S10347   2.041   3.764   8.772  1.0850 -0.3635 -0.0239
  102OSM   H18S10348   2.092   3.845   8.827  0.4337  1.1651 -1.6365
  102OSM   H18T10349   1.950   3.816   8.735  0.4833 -0.1284  1.7648
  102OSM   H18U10350   2.093   3.720   8.684  0.0017 -2.1590  0.2057
  102OSM    C1F10351   1.599   4.206  10.309  0.5705  0.4674 -0.4364
  102OSM     OF10352   1.702   4.272  10.301 -0.0909 -0.1891 -0.8885
  102OSM    C2F10353   1.464   4.264  10.278  0.0871 -0.3340 -0.6871
  102OSM    H2F10354   1.434   4.324  10.367  4.0986 -0.6296  0.9439
  102OSM    H2G10355   1.386   4.187  10.260  1.8983 -2.1423 -0.8643
  102OSM    C3F10356   1.465   4.344  10.144 -0.1706 -0.2406 -0.1088
  102OSM    H3F10357   1.490   4.287  10.052 -1.4598  0.6106 -1.0154
  102OSM    H3G10358   1.539   4.426  10.156 -1.4134  0.9859 -0.7150
  102OSM    C4F10359   1.318   4.402  10.122  0.0262  0.0602 -0.1400
  102OSM    H4F10360   1.272   4.457  10.206 -2.4370  1.7380 -2.4865
  102OSM    H4G10361   1.258   4.311  10.099  1.8476 -0.1278 -4.8405
  102OSM    C5F10362   1.311   4.495  10.002 -0.3079  0.2956 -0.2168
  102OSM    H5F10363   1.368   4.449   9.918 -1.0860  0.7180 -0.9881
  102OSM    H5G10364   1.370   4.582  10.036  0.8050 -0.2778 -0.6502
  102OSM    C6F10365   1.163   4.524   9.955 -0.3997 -0.9972  0.5456
  102OSM    H6F10366   1.107   4.550  10.047  0.5751 -0.4829  1.0005
  102OSM    H6G10367   1.119   4.436   9.903 -1.9696 -0.9557  1.7450
  102OSM    C7F10368   1.150   4.652   9.861 -0.4146 -0.4808 -1.2415
  102OSM    H7F10369   1.213   4.637   9.771  1.4793  0.0012 -0.0389
  102OSM    H7G10370   1.206   4.731   9.915 -3.0234  0.0219  0.8320
  102OSM    C8F10371   1.011   4.689   9.826 -0.3387  0.1925 -0.3879
  102OSM    H8F10372   0.952   4.658   9.915  0.9483 -1.2965 -0.0307
  102OSM    H8G10373   0.987   4.627   9.736  2.0140  0.4488 -1.2251
  102OSM    C9F10374   0.998   4.833   9.784  0.1351 -0.1396 -0.2846
  102OSM    H9F10375   1.005   4.907   9.865  0.2373  0.8487 -1.1916
  102OSM   C10F10376   0.978   4.888   9.659 -0.5829  0.0627  0.2206
  102OSM   H10F10377   0.976   4.997   9.655 -2.5291 -0.0409 -3.3552
  102OSM   C11F10378   0.966   4.833   9.514  0.4482 -0.3328 -0.3627
  102OSM   H11F10379   1.004   4.911   9.444  2.7298 -1.7226 -0.6968
  102OSM   H11G10380   0.857   4.844   9.494  0.5591  2.6848  0.4519
  102OSM   C12F10381   1.041   4.708   9.480 -1.2382 -0.0565 -0.2213
  102OSM   H12F10382   0.983   4.620   9.516 -1.8775 -0.0083 -1.1271
  102OSM   H12G10383   1.136   4.702   9.538 -2.4795  0.4337  1.9000
  102OSM   C13F10384   1.083   4.691   9.334 -0.7519  0.7223  1.1279
  102OSM   H13F10385   1.162   4.762   9.301  0.6091 -1.1787  0.2043
  102OSM   H13G10386   1.001   4.723   9.266  1.0876  1.0930 -0.9485
  102OSM   C14F10387   1.125   4.548   9.314  0.2638  0.2298  0.7933
  102OSM   H14F10388   1.031   4.501   9.279 -1.4504  4.0891  0.0560
  102OSM   H14G10389   1.155   4.495   9.407 -0.6818 -3.8634 -1.0784
  102OSM   C15F10390   1.217   4.523   9.190  0.0155  0.0094  0.0657
  102OSM   H15F10391   1.212   4.414   9.167  1.2342  0.0546 -0.4525
  102OSM   H15G10392   1.314   4.563   9.228  0.8158 -1.5941 -0.2232
  102OSM   C16F10393   1.163   4.599   9.067 -0.1869  0.4985 -0.5766
  102OSM   H16F10394   1.166   4.704   9.103  0.6231 -0.2363  1.6207
  102OSM   H16G10395   1.056   4.573   9.051 -0.7561  2.8649 -0.8201
  102OSM   C17F10396   1.238   4.580   8.935  0.6136 -0.0320  0.4707
  102OSM   H17F10397   1.194   4.650   8.861 -0.0498  0.3252  1.1985
  102OSM   H17G10398   1.218   4.483   8.887 -2.7882  0.7189  0.2693
  102OSM   C18F10399   1.392   4.585   8.938 -0.1285 -0.6169 -0.0378
  102OSM   H18F10400   1.417   4.513   9.019 -1.5738 -1.9808 -0.7697
  102OSM   H18G10401   1.433   4.686   8.956 -2.1084 -0.0221  1.3009
  102OSM   H18H10402   1.439   4.552   8.843 -2.5938 -3.5267 -0.3157
  103OSM      N10403   3.264   0.321  11.014  0.3231 -0.0211  0.0462
  103OSM    C1510404   3.306   0.419  11.121  0.1933 -0.0229  0.0196
  103OSM   H15A10405   3.226   0.486  11.149 -0.5537 -1.0935  0.4910
  103OSM   H15B10406   3.390   0.479  11.089 -0.3118  0.8436  0.2903
  103OSM   H15C10407   3.329   0.364  11.211 -0.2894  0.6679  0.5747
  103OSM    C1410408   3.181   0.216  11.067 -0.1373  0.4799  0.1483
  103OSM   H14A10409   3.235   0.148  11.132 -0.4999 -0.5843 -0.6582
  103OSM   H14B10410   3.130   0.164  10.987  0.6605 -0.6472  0.3485
  103OSM   H14C10411   3.098   0.258  11.121 -0.6785  0.1694 -0.4332
  103OSM    C1310412   3.194   0.403  10.912  0.2840  0.8308 -0.4230
  103OSM   H13A10413   3.161   0.341  10.830  0.1857  0.2064  0.0849
  103OSM   H13B10414   3.252   0.486  10.873  0.2979 -0.1775 -2.6223
  103OSM   H13C10415   3.101   0.438  10.954  0.2863  1.5091 -0.9665
  103OSM    C1210416   3.385   0.247  10.951 -0.3889  0.0388  0.0047
  103OSM   H12A10417   3.449   0.317  10.899 -0.5773 -0.6138 -1.1130
  103OSM   H12B10418   3.339   0.173  10.888 -0.8150 -0.4426  0.8742
  103OSM    C1110419   3.469   0.168  11.055  0.9437  0.5598 -1.0800
  103OSM   H11A10420   3.462   0.230  11.147  0.5800 -0.9712 -0.0665
  103OSM   H11B10421   3.576   0.164  11.026  1.1904  2.3303 -0.4797
  103OSM      P10422   3.461  -0.091  11.019  0.1765  0.3005 -0.0268
  103OSM    O1310423   3.610  -0.095  11.029  0.7134 -0.0359 -0.0048
  103OSM    O1410424   3.387  -0.205  11.079  0.2300 -0.2645  0.5526
  103OSM    O1110425   3.419  -0.069  10.867 -0.2723 -0.5941  0.0785
  103OSM    O1210426   3.407   0.044  11.072  0.0743  0.6841 -0.1756
  103OSM    C1S10427   3.275  -0.074  10.833 -0.4067  0.4539 -1.1980
  103OSM    H1S10428   3.213   0.005  10.881 -1.5452 -1.0248 -0.1745
  103OSM    H1T10429   3.232  -0.171  10.865  1.4490 -0.2540 -0.7584
  103OSM     NF10430   3.117  -0.038  10.649 -0.2386 -0.2211 -0.0109
  103OSM    HNF10431   3.074  -0.113  10.600  1.3362  0.5388 -2.6130
  103OSM    C2S10432   3.256  -0.052  10.683 -0.0065 -0.5486 -0.2725
  103OSM    H2S10433   3.310   0.039  10.648  0.0067 -1.0366 -1.5645
  103OSM    C3S10434   3.328  -0.165  10.603 -0.5410 -0.3464 -0.1606
  103OSM    H3S10435   3.295  -0.268  10.625  1.3801 -1.0032 -0.2674
  103OSM     O310436   3.471  -0.166  10.632 -0.0052  0.0311  0.2651
  103OSM    HO310437   3.475  -0.112  10.712 -0.6232 -0.9327  0.9650
  103OSM    C4S10438   3.318  -0.140  10.454 -0.5389  0.8338 -0.2305
  103OSM    H4S10439   3.382  -0.058  10.417 -2.5624  1.5611 -2.1813
  103OSM    C5S10440   3.266  -0.223  10.360  0.1184 -0.2251  0.7715
  103OSM    H5S10441   3.223  -0.323  10.372  1.3672 -0.6072  2.3364
  103OSM    C6S10442   3.266  -0.190  10.210 -0.1855  0.1478 -0.3318
  103OSM    H6S10443   3.229  -0.087  10.192  2.4856  0.9673 -1.5528
  103OSM    H6T10444   3.210  -0.255  10.140 -0.6693 -0.1749  0.3567
  103OSM    C7S10445   3.415  -0.176  10.144  0.3935 -0.7314  0.4442
  103OSM    H7S10446   3.454  -0.279  10.132 -0.3764 -0.8593 -0.9047
  103OSM    H7T10447   3.482  -0.120  10.214 -0.2568  0.0050  0.4790
  103OSM    C8S10448   3.414  -0.108  10.003 -0.6789 -0.1814 -0.1306
  103OSM    H8S10449   3.511  -0.060   9.976 -1.0948  0.4950 -0.4228
  103OSM    H8T10450   3.338  -0.028   9.997 -1.5112 -1.0270 -0.9702
  103OSM    C9S10451   3.386  -0.215   9.898  0.0639 -0.6709  0.2495
  103OSM    H9S10452   3.284  -0.256   9.913 -0.5645  0.3426 -1.1432
  103OSM    H9T10453   3.456  -0.301   9.901  0.6389 -0.2995 -1.9391
  103OSM   C10S10454   3.404  -0.171   9.746  0.2858 -0.3505 -0.6704
  103OSM   H10S10455   3.513  -0.174   9.721  0.5253 -2.0673  0.5049
  103OSM   H10T10456   3.374  -0.064   9.748  2.2361  0.2197 -0.4107
  103OSM   C11S10457   3.326  -0.246   9.646 -0.9014 -0.3505  0.2980
  103OSM   H11S10458   3.218  -0.220   9.639 -0.2757  2.4644  0.4938
  103OSM   H11T10459   3.349  -0.351   9.677 -1.1649 -0.3596  0.4656
  103OSM   C12S10460   3.372  -0.236   9.504 -0.3669 -0.4217  0.4261
  103OSM   H12S10461   3.482  -0.226   9.497 -0.3328 -0.7222  0.5041
  103OSM   H12T10462   3.327  -0.141   9.467 -0.6471 -0.8603 -0.3633
  103OSM   C13S10463   3.312  -0.359   9.432  0.7775 -0.0006  0.8425
  103OSM   H13S10464   3.201  -0.365   9.439  0.7895 -0.0589  0.9725
  103OSM   H13T10465   3.356  -0.447   9.483  1.1306  0.4570  1.3297
  103OSM   C14S10466   3.352  -0.368   9.286 -0.3767 -0.8210  0.0779
  103OSM   H14S10467   3.288  -0.441   9.232 -0.1927 -0.1893 -1.0053
  103OSM   H14T10468   3.451  -0.419   9.274  0.1531  0.2785 -0.2864
  103OSM   C15S10469   3.359  -0.231   9.215 -0.6886  0.3041  0.2894
  103OSM   H15S10470   3.439  -0.167   9.258 -0.8774  0.4927  0.3553
  103OSM   H15T10471   3.273  -0.166   9.238  0.0208  0.7678  1.7126
  103OSM   C16S10472   3.384  -0.241   9.061 -0.7084  0.3082  0.1044
  103OSM   H16S10473   3.311  -0.314   9.019 -0.1299 -1.2289  1.7157
  103OSM   H16T10474   3.489  -0.272   9.044 -0.8581 -0.4681  0.5656
  103OSM   C17S10475   3.375  -0.113   8.981 -0.8319  0.0259  0.3063
  103OSM   H17S10476   3.461  -0.053   9.017  0.6715 -2.0731  0.3382
  103OSM   H17T10477   3.282  -0.065   9.017 -1.3098 -0.9497  0.4066
  103OSM   C18S10478   3.383  -0.129   8.830  0.0324 -0.2578  0.6241
  103OSM   H18S10479   3.321  -0.058   8.771  1.9794 -0.9368 -2.3090
  103OSM   H18T10480   3.362  -0.229   8.787 -0.5534 -0.1113  0.5635
  103OSM   H18U10481   3.487  -0.108   8.800  0.6272 -1.4175  1.7901
  103OSM    C1F10482   3.060   0.074  10.692 -0.2627 -0.5708  0.3243
  103OSM     OF10483   3.114   0.165  10.754  0.7375 -0.1448 -0.5665
  103OSM    C2F10484   2.910   0.084  10.665  0.1715  0.0603 -0.1137
  103OSM    H2F10485   2.859   0.026  10.745  1.3796  0.2559  0.8182
  103OSM    H2G10486   2.909   0.034  10.566 -0.0867 -0.1139 -0.0227
  103OSM    C3F10487   2.855   0.222  10.656  1.2159  0.1818  0.2075
  103OSM    H3F10488   2.905   0.286  10.580  1.7458  0.8219  1.0796
  103OSM    H3G10489   2.870   0.274  10.753  0.5289 -1.1742  1.0538
  103OSM    C4F10490   2.698   0.224  10.625 -0.2173  0.2809 -0.2223
  103OSM    H4F10491   2.654   0.322  10.650 -0.6078 -0.6146  2.8883
  103OSM    H4G10492   2.652   0.147  10.691 -2.2542  2.3283  0.8020
  103OSM    C5F10493   2.667   0.182  10.482 -0.4451 -0.1497  0.1340
  103OSM    H5F10494   2.683   0.073  10.464 -0.4174 -0.0702 -0.3186
  103OSM    H5G10495   2.728   0.239  10.409 -0.0870 -0.8606 -0.1331
  103OSM    C6F10496   2.525   0.205  10.447  0.4071  0.3829  1.1277
  103OSM    H6F10497   2.501   0.312  10.429  0.8426  0.0727 -1.4739
  103OSM    H6G10498   2.458   0.158  10.522 -1.8341  1.1151 -0.3675
  103OSM    C7F10499   2.493   0.139  10.308 -0.2504 -0.4771  0.6282
  103OSM    H7F10500   2.386   0.113  10.295  0.4813 -2.3473 -2.0796
  103OSM    H7G10501   2.553   0.046  10.310  0.9137  0.2584  0.6746
  103OSM    C8F10502   2.535   0.223  10.190  0.5719 -0.0303 -0.4170
  103OSM    H8F10503   2.637   0.268  10.191  0.8703 -0.6655 -1.1269
  103OSM    H8G10504   2.458   0.301  10.174  1.3668  1.2533  1.7403
  103OSM    C9F10505   2.544   0.136  10.070 -0.7688  0.1719 -0.2631
  103OSM    H9F10506   2.586   0.039  10.100  1.7320  1.2518 -0.1680
  103OSM   C10F10507   2.526   0.167   9.941  0.2645  0.1842  0.0391
  103OSM   H10F10508   2.541   0.082   9.872 -2.0939 -1.8240  1.9053
  103OSM   C11F10509   2.491   0.300   9.870  0.7206 -0.5487 -0.0682
  103OSM   H11F10510   2.441   0.371   9.939 -0.8354 -0.5047 -1.2163
  103OSM   H11G10511   2.420   0.271   9.790 -0.2187 -2.7279  1.5130
  103OSM   C12F10512   2.611   0.374   9.815  0.0646  0.2529  0.7627
  103OSM   H12F10513   2.665   0.310   9.743 -0.9207 -1.0667  1.1682
  103OSM   H12G10514   2.683   0.381   9.899  1.2245 -2.3218  0.0323
  103OSM   C13F10515   2.580   0.509   9.742  0.4837  0.7242 -0.4543
  103OSM   H13F10516   2.534   0.589   9.804 -3.4520  1.2207 -3.7719
  103OSM   H13G10517   2.685   0.533   9.715  0.4463  1.7417  0.2832
  103OSM   C14F10518   2.497   0.485   9.614 -0.6431  0.4473 -0.4603
  103OSM   H14F10519   2.482   0.587   9.572 -0.0826  0.8430  0.3000
  103OSM   H14G10520   2.394   0.449   9.638 -0.5665 -0.0134 -0.8200
  103OSM   C15F10521   2.569   0.406   9.505 -0.2955 -0.4640  0.0219
  103OSM   H15F10522   2.548   0.304   9.544 -1.7236 -0.3875 -0.5162
  103OSM   H15G10523   2.678   0.424   9.518 -0.1148 -1.5430  0.0447
  103OSM   C16F10524   2.520   0.427   9.358  0.1813 -0.0224 -0.8598
  103OSM   H16F10525   2.524   0.535   9.333  0.5697 -0.1462 -1.3600
  103OSM   H16G10526   2.412   0.402   9.363 -0.0331  0.6498 -1.9887
  103OSM   C17F10527   2.591   0.339   9.257  0.2138  0.4487  0.0187
  103OSM   H17F10528   2.699   0.366   9.261  0.0293  1.2016  0.0564
  103OSM   H17G10529   2.556   0.369   9.155  1.3382 -0.6336 -0.7034
  103OSM   C18F10530   2.554   0.187   9.269  0.3291  0.4186  0.1899
  103OSM   H18F10531   2.601   0.129   9.186 -0.7288  0.0027 -0.1311
  103OSM   H18G10532   2.445   0.186   9.249  0.2405 -2.6819  0.5437
  103OSM   H18H10533   2.565   0.135   9.366 -2.5367 -0.7704 -0.0860
  104OSM      N10534   6.318   5.899  10.674 -0.1766 -0.3303 -0.5654
  104OSM    C1510535   6.222   5.805  10.599 -0.3768 -0.2383 -0.3147
  104OSM   H15A10536   6.124   5.851  10.597  0.3229  1.5096  2.5723
  104OSM   H15B10537   6.215   5.713  10.654 -0.4177  1.2967  2.3279
  104OSM   H15C10538   6.255   5.799  10.496 -0.6010 -1.1232 -0.3389
  104OSM    C1410539   6.231   5.971  10.775  0.6299  0.6017 -0.0286
  104OSM   H14A10540   6.137   6.001  10.732  0.7116  1.1126  0.1458
  104OSM   H14B10541   6.284   6.050  10.826  1.9541  0.4815 -1.1980
  104OSM   H14C10542   6.207   5.887  10.840  0.9381  0.3787 -0.1996
  104OSM    C1310543   6.426   5.814  10.731  0.0554  0.1686  0.2613
  104OSM   H13A10544   6.499   5.872  10.784  2.4704 -2.1140 -0.4819
  104OSM   H13B10545   6.482   5.766  10.652  1.0243  1.8342 -0.0797
  104OSM   H13C10546   6.377   5.750  10.804 -3.9348  1.9051 -0.7190
  104OSM    C1210547   6.375   6.003  10.572  0.4656 -0.2077 -0.6346
  104OSM   H12A10548   6.288   6.052  10.530 -0.5479  0.1630  1.8375
  104OSM   H12B10549   6.432   5.940  10.505 -1.9516  0.1859 -3.1658
  104OSM    C1110550   6.469   6.115  10.624 -0.3789  0.4347  0.2431
  104OSM   H11A10551   6.413   6.171  10.702 -2.6226  1.1008 -1.7601
  104OSM   H11B10552   6.490   6.191  10.545  3.1881 -0.3907  0.3326
  104OSM      P10553   6.717   6.033  10.590 -0.0144 -0.1729 -0.0816
  104OSM    O1310554   6.814   6.133  10.635  0.2728 -0.3689  0.6770
  104OSM    O1410555   6.755   5.893  10.616  0.0988  1.0282  0.3949
  104OSM    O1110556   6.680   6.059  10.438 -0.3566 -0.2729 -0.0896
  104OSM    O1210557   6.588   6.059  10.674 -0.3254 -0.2960 -0.2700
  104OSM    C1S10558   6.692   6.188  10.378  0.1605 -0.1296 -0.3736
  104OSM    H1S10559   6.758   6.252  10.440  0.5666 -1.9029  1.0573
  104OSM    H1T10560   6.592   6.237  10.370  0.0924 -0.2675 -0.3493
  104OSM     NF10561   6.762   6.296  10.166  0.3494  0.1481  0.1722
  104OSM    HNF10562   6.682   6.343  10.131  0.2236  0.4612  0.8688
  104OSM    C2S10563   6.734   6.168  10.223  0.0989  0.2253 -0.1070
  104OSM    H2S10564   6.825   6.105  10.220 -0.1096 -0.0701 -0.2566
  104OSM    C3S10565   6.617   6.092  10.153 -0.6885 -0.4698  0.0025
  104OSM    H3S10566   6.519   6.145  10.162  0.8016  2.8951 -2.6428
  104OSM     O310567   6.598   5.963  10.210 -0.5981 -0.0391  0.4633
  104OSM    HO310568   6.659   5.966  10.283  1.6849 -1.6521 -1.3077
  104OSM    C4S10569   6.645   6.071  10.007 -0.3498 -0.3536  0.2020
  104OSM    H4S10570   6.730   6.003   9.988  0.2328  1.3901 -3.7649
  104OSM    C5S10571   6.580   6.133   9.910  0.2834  0.2279 -0.5163
  104OSM    H5S10572   6.510   6.215   9.932  1.7455  1.4169 -0.2265
  104OSM    C6S10573   6.605   6.107   9.762 -0.6100 -0.3547  0.5191
  104OSM    H6S10574   6.699   6.048   9.755  0.4017  1.0388  1.9274
  104OSM    H6T10575   6.637   6.197   9.704  0.1581 -0.8131  0.2164
  104OSM    C7S10576   6.491   6.047   9.688  0.1719 -0.1439 -0.7551
  104OSM    H7S10577   6.402   6.112   9.698  1.3543  1.1119  2.0594
  104OSM    H7T10578   6.471   5.950   9.738 -0.2697  1.5161  2.4104
  104OSM    C8S10579   6.514   6.017   9.538 -0.1392  0.4945 -0.1824
  104OSM    H8S10580   6.611   5.966   9.516 -1.2449  0.0115 -4.2523
  104OSM    H8T10581   6.510   6.113   9.482  1.7278  0.9244  0.3843
  104OSM    C9S10582   6.412   5.925   9.483  0.8232  0.0635  0.5763
  104OSM    H9S10583   6.307   5.952   9.508  0.7031  0.5877 -0.4718
  104OSM    H9T10584   6.449   5.830   9.526  2.9379  0.0331 -1.2339
  104OSM   C10S10585   6.434   5.902   9.331  1.3423 -0.5412  0.6454
  104OSM   H10S10586   6.369   5.818   9.301  0.4924  0.7809 -1.3545
  104OSM   H10T10587   6.539   5.882   9.299  1.5538  1.5503 -0.0800
  104OSM   C11S10588   6.386   6.018   9.245  0.6063  0.8521  0.3320
  104OSM   H11S10589   6.417   6.116   9.287  1.5560  0.2169  1.1332
  104OSM   H11T10590   6.276   6.018   9.258  0.6355  0.4466  0.5610
  104OSM   C12S10591   6.432   6.011   9.097 -0.7682  0.1827 -0.1454
  104OSM   H12S10592   6.467   5.906   9.084 -4.8159 -1.1544 -0.7859
  104OSM   H12T10593   6.520   6.078   9.088 -0.8135  0.3420  0.5705
  104OSM   C13S10594   6.328   6.024   8.988  0.4203  0.1744  0.7701
  104OSM   H13S10595   6.367   6.053   8.888 -0.8097  0.8664  0.4775
  104OSM   H13T10596   6.265   6.113   9.013  2.4431  1.7685  0.2982
  104OSM   C14S10597   6.232   5.907   8.979  0.1840 -0.2064 -0.4834
  104OSM   H14S10598   6.157   5.922   9.059  0.2742  1.4716 -0.7150
  104OSM   H14T10599   6.300   5.820   8.993  0.7542  0.2451 -0.4446
  104OSM   C15S10600   6.158   5.886   8.841 -0.1807 -0.0681 -0.1179
  104OSM   H15S10601   6.236   5.876   8.762 -0.3740 -0.0424 -0.3111
  104OSM   H15T10602   6.095   5.974   8.814  0.6641  0.2825 -0.9913
  104OSM   C16S10603   6.079   5.761   8.834  0.3600 -0.5748  0.2600
  104OSM   H16S10604   6.150   5.676   8.849 -1.0021 -1.8391 -0.3374
  104OSM   H16T10605   6.030   5.742   8.737  0.1312 -2.2569  0.6728
  104OSM   C17S10606   5.974   5.753   8.944  0.4002  0.2379  0.2189
  104OSM   H17S10607   5.900   5.836   8.943 -1.6028 -1.4937 -2.2166
  104OSM   H17T10608   6.016   5.747   9.047 -2.2166  1.2461  1.3943
  104OSM   C18S10609   5.878   5.630   8.935 -0.0538  0.0841 -0.0953
  104OSM   H18S10610   5.780   5.648   8.983 -0.8964 -0.3526 -1.6064
  104OSM   H18T10611   5.936   5.554   8.992 -1.4747 -0.7039  0.2959
  104OSM   H18U10612   5.856   5.606   8.828  1.5570 -0.7542 -0.2676
  104OSM    C1F10613   6.874   6.366  10.183 -0.0876 -0.7752  0.1878
  104OSM     OF10614   6.964   6.328  10.250  0.0114 -0.1512  0.0536
  104OSM    C2F10615   6.877   6.501  10.122 -0.6819 -0.0596  0.5982
  104OSM    H2F10616   6.901   6.577  10.200  0.3869 -2.7365  2.9490
  104OSM    H2G10617   6.785   6.529  10.066  0.5496  3.3987  0.1406
  104OSM    C3F10618   6.991   6.503  10.015  0.1601  0.3722  0.2221
  104OSM    H3F10619   7.083   6.469  10.067 -0.4170  0.5089  1.3541
  104OSM    H3G10620   7.020   6.606   9.987  1.1515  0.1277  0.3419
  104OSM    C4F10621   6.959   6.431   9.878  0.6163  0.3661 -0.7083
  104OSM    H4F10622   6.937   6.325   9.905 -0.6368  0.3890 -1.6015
  104OSM    H4G10623   7.053   6.438   9.820  0.0561  2.4552 -1.4035
  104OSM    C5F10624   6.853   6.504   9.796  0.4715  0.5780  0.5373
  104OSM    H5F10625   6.872   6.612   9.812  0.1628  0.9798 -1.6304
  104OSM    H5G10626   6.763   6.472   9.853  1.1603 -0.2879  1.1605
  104OSM    C6F10627   6.852   6.459   9.648 -0.6865  0.0449 -0.1230
  104OSM    H6F10628   6.836   6.349   9.651  2.6792 -0.4583  0.9262
  104OSM    H6G10629   6.952   6.467   9.602 -0.6320 -0.8145 -0.1680
  104OSM    C7F10630   6.747   6.526   9.565 -0.0583 -0.5405  0.4129
  104OSM    H7F10631   6.752   6.634   9.592  2.6486  0.4191 -3.4288
  104OSM    H7G10632   6.647   6.501   9.606 -0.1164  1.3981  1.5337
  104OSM    C8F10633   6.743   6.494   9.418 -0.5672 -0.0115  0.6397
  104OSM    H8F10634   6.845   6.505   9.375 -1.2238  2.2158 -0.4230
  104OSM    H8G10635   6.683   6.562   9.354  1.0635  0.0769 -0.8384
  104OSM    C9F10636   6.695   6.349   9.398 -0.2397 -0.3985 -0.2175
  104OSM    H9F10637   6.593   6.330   9.434  0.6182 -3.7941  0.6080
  104OSM   C10F10638   6.768   6.245   9.344 -0.4455 -1.0232 -0.0538
  104OSM   H10F10639   6.718   6.148   9.332 -3.4109  0.5147 -0.4933
  104OSM   C11F10640   6.909   6.246   9.301 -0.8049  0.6801  0.5809
  104OSM   H11F10641   6.965   6.162   9.347 -0.7931  1.7023  2.4712
  104OSM   H11G10642   6.950   6.342   9.340 -3.0355  2.2894 -0.8552
  104OSM   C12F10643   6.927   6.261   9.144  0.2012 -0.0363 -0.3679
  104OSM   H12F10644   6.876   6.353   9.109 -2.1550 -0.6824  1.2710
  104OSM   H12G10645   6.879   6.175   9.093  1.2848 -0.9361  0.1052
  104OSM   C13F10646   7.069   6.265   9.097  0.2471  0.1674  0.3638
  104OSM   H13F10647   7.117   6.168   9.123 -0.7978  0.3170  2.9984
  104OSM   H13G10648   7.123   6.346   9.150  2.3317 -0.5959 -0.5507
  104OSM   C14F10649   7.075   6.263   8.943 -0.4749 -0.9948 -0.1443
  104OSM   H14F10650   7.017   6.345   8.895  0.6965 -0.5626 -0.8370
  104OSM   H14G10651   7.026   6.168   8.911  1.3061 -1.9350 -0.1127
  104OSM   C15F10652   7.214   6.265   8.882  0.3757  0.3468  0.1305
  104OSM   H15F10653   7.277   6.182   8.921  1.4117  1.3827  0.6809
  104OSM   H15G10654   7.255   6.362   8.915  0.9952  0.3105 -0.5283
  104OSM   C16F10655   7.206   6.257   8.722 -0.3573 -0.1483  0.3113
  104OSM   H16F10656   7.117   6.318   8.697 -0.3708 -0.2204  0.1866
  104OSM   H16G10657   7.178   6.153   8.696 -2.6965  0.5470  0.0203
  104OSM   C17F10658   7.331   6.297   8.645 -0.3508 -0.0387  0.1872
  104OSM   H17F10659   7.308   6.294   8.536 -1.8443 -2.1657  0.5533
  104OSM   H17G10660   7.417   6.231   8.668 -1.2059 -1.1896  0.1018
  104OSM   C18F10661   7.366   6.439   8.689 -0.1595 -0.0619 -0.6841
  104OSM   H18F10662   7.274   6.500   8.674 -0.6290 -0.9960 -1.6291
  104OSM   H18G10663   7.446   6.483   8.627  0.6644 -0.8984 -0.2261
  104OSM   H18H10664   7.405   6.442   8.793  0.2525  0.9956 -0.8643
  105OSM      N10665   6.494   4.973  11.008  0.1013  0.7971 -0.0440
  105OSM    C1510666   6.386   5.009  11.106  0.4011 -0.1969 -0.3765
  105OSM   H15A10667   6.287   4.996  11.066 -0.4714 -0.7085  1.9178
  105OSM   H15B10668   6.402   5.115  11.118 -1.0443  0.0310 -0.3680
  105OSM   H15C10669   6.383   4.954  11.199 -1.0840  1.1504  0.3995
  105OSM    C1410670   6.620   4.979  11.083  1.0341 -0.0127  0.4829
  105OSM   H14A10671   6.637   5.077  11.125  0.0920  0.0332  0.7582
  105OSM   H14B10672   6.701   4.965  11.012  0.2663 -0.9808 -0.2096
  105OSM   H14C10673   6.631   4.906  11.161  0.7014 -1.9448 -1.2460
  105OSM    C1310674   6.474   4.831  10.952  0.5023 -0.3360  0.4838
  105OSM   H13A10675   6.376   4.814  10.912  0.2535  0.6387  0.6644
  105OSM   H13B10676   6.487   4.762  11.034  0.2408  2.3773  2.8917
  105OSM   H13C10677   6.548   4.810  10.877  0.0857  1.7401 -0.5344
  105OSM    C1210678   6.491   5.066  10.893  0.2954 -0.4504  0.0489
  105OSM   H12A10679   6.391   5.101  10.874 -0.3381 -1.8687  0.7331
  105OSM   H12B10680   6.541   5.013  10.813  2.5309  1.0567  0.3867
  105OSM    C1110681   6.582   5.191  10.891  0.1541  0.1438  0.2202
  105OSM   H11A10682   6.575   5.248  10.987  0.9583  1.0352 -0.2418
  105OSM   H11B10683   6.534   5.248  10.810 -0.9232  1.2281  1.5923
  105OSM      P10684   6.837   5.246  10.871  0.0402  0.0760  0.0347
  105OSM    O1310685   6.855   5.333  10.992  0.2889 -0.3310 -0.2762
  105OSM    O1410686   6.956   5.160  10.843 -0.3112 -0.3491  0.1145
  105OSM    O1110687   6.801   5.335  10.747 -0.1966 -0.3411  0.9015
  105OSM    O1210688   6.723   5.148  10.874 -0.3473  0.4080 -0.1933
  105OSM    C1S10689   6.836   5.470  10.740  0.1634  0.1049  0.2611
  105OSM    H1S10690   6.945   5.482  10.758 -0.1719  2.5660  0.9059
  105OSM    H1T10691   6.779   5.528  10.816 -1.1400  1.5251 -1.7679
  105OSM     NF10692   6.879   5.656  10.566  0.0238 -0.4492  0.5676
  105OSM    HNF10693   6.822   5.736  10.554 -0.3564 -0.6456  1.0431
  105OSM    C2S10694   6.800   5.533  10.594  0.2092  0.8486  0.0902
  105OSM    H2S10695   6.817   5.454  10.517 -1.6917 -1.6707  2.1577
  105OSM    C3S10696   6.645   5.560  10.574 -0.3443  0.0729  0.1598
  105OSM    H3S10697   6.619   5.629  10.657 -4.2885 -1.0823  0.0118
  105OSM     O310698   6.573   5.438  10.604 -0.5398 -0.2873  0.1401
  105OSM    HO310699   6.638   5.374  10.633  1.4344  0.7714 -1.8175
  105OSM    C4S10700   6.614   5.619  10.441  0.5405 -0.1427 -0.5492
  105OSM    H4S10701   6.596   5.727  10.439  1.8643  0.0914 -0.1527
  105OSM    C5S10702   6.577   5.544  10.336  0.0642  0.0149  0.2669
  105OSM    H5S10703   6.571   5.435  10.332 -1.4508  0.0368  1.5492
  105OSM    C6S10704   6.523   5.614  10.209 -0.3654 -0.2738 -0.2936
  105OSM    H6S10705   6.512   5.723  10.227 -0.6265 -0.6409  1.8862
  105OSM    H6T10706   6.425   5.583  10.166  0.2082 -0.5346 -1.4326
  105OSM    C7S10707   6.627   5.590  10.098 -0.5351  0.1724  0.2005
  105OSM    H7S10708   6.640   5.481  10.083 -1.4493 -0.5156  3.9174
  105OSM    H7T10709   6.722   5.635  10.135  0.5926 -0.6827 -1.5804
  105OSM    C8S10710   6.601   5.668   9.970 -0.2838  0.4671 -1.0708
  105OSM    H8S10711   6.646   5.770   9.967  1.0477 -0.0179  1.3034
  105OSM    H8T10712   6.493   5.665   9.945 -0.2123  1.0126 -1.4556
  105OSM    C9S10713   6.664   5.598   9.849  0.0327  0.6446 -0.3051
  105OSM    H9S10714   6.648   5.488   9.852  3.3599  0.0779 -0.7864
  105OSM    H9T10715   6.775   5.598   9.850  0.0691 -1.4030  2.5984
  105OSM   C10S10716   6.611   5.656   9.717 -0.3683 -0.0127 -0.4524
  105OSM   H10S10717   6.631   5.765   9.703  0.9829 -0.3522 -1.2352
  105OSM   H10T10718   6.502   5.636   9.702 -0.7302 -0.0104  2.0235
  105OSM   C11S10719   6.691   5.591   9.606  0.1011 -0.3481  0.2815
  105OSM   H11S10720   6.673   5.481   9.606  0.9207 -0.4940 -0.8900
  105OSM   H11T10721   6.800   5.606   9.624  0.3180 -1.7700  0.2051
  105OSM   C12S10722   6.646   5.634   9.464  0.3009  0.0598  0.3096
  105OSM   H12S10723   6.676   5.733   9.425 -1.2909  0.2152 -0.5824
  105OSM   H12T10724   6.535   5.633   9.456  0.3565  3.5828 -1.5203
  105OSM   C13S10725   6.694   5.541   9.356 -0.2189 -0.4801 -0.3278
  105OSM   H13S10726   6.681   5.432   9.378  1.9968 -0.6104  0.4745
  105OSM   H13T10727   6.804   5.556   9.343 -0.6943  3.7075 -0.1593
  105OSM   C14S10728   6.615   5.582   9.225  0.5086 -0.4263 -0.0683
  105OSM   H14S10729   6.635   5.683   9.182  3.0272 -0.7973  0.1755
  105OSM   H14T10730   6.507   5.571   9.251  0.5721  0.2468  0.5131
  105OSM   C15S10731   6.656   5.486   9.120  0.8415  0.2117 -0.3639
  105OSM   H15S10732   6.652   5.380   9.154 -2.1039  0.3965  0.0016
  105OSM   H15T10733   6.763   5.500   9.095  0.9511 -0.3763 -0.2462
  105OSM   C16S10734   6.570   5.494   8.992 -0.5113 -0.2926 -0.4724
  105OSM   H16S10735   6.463   5.473   9.014 -0.3065 -0.7860  0.0398
  105OSM   H16T10736   6.609   5.421   8.918 -1.5858 -1.6078  0.2378
  105OSM   C17S10737   6.580   5.636   8.923 -0.0382 -0.2707  0.3576
  105OSM   H17S10738   6.689   5.656   8.911 -0.1021  0.4315  0.9149
  105OSM   H17T10739   6.541   5.714   8.991 -0.8889 -1.9533  1.8520
  105OSM   C18S10740   6.500   5.645   8.795  0.0740  0.9488  0.7749
  105OSM   H18S10741   6.394   5.622   8.815  0.3066 -1.8162 -0.9339
  105OSM   H18T10742   6.539   5.580   8.714 -0.7324  1.9127 -0.3936
  105OSM   H18U10743   6.497   5.750   8.760  1.6428  0.7829  0.1055
  105OSM    C1F10744   7.007   5.661  10.557 -0.1925 -0.6033  0.7364
  105OSM     OF10745   7.063   5.552  10.558  0.2341 -0.5461 -0.7420
  105OSM    C2F10746   7.079   5.794  10.539  0.5015  0.3892 -0.1085
  105OSM    H2F10747   7.185   5.768  10.520  0.0657 -1.9432  0.4574
  105OSM    H2G10748   7.066   5.858  10.629  1.2137  1.0567 -0.4778
  105OSM    C3F10749   7.032   5.882  10.414  0.0861  0.5036  0.1211
  105OSM    H3F10750   7.074   5.985  10.407  0.4250  0.1974 -3.1286
  105OSM    H3G10751   6.926   5.903  10.436 -0.2145 -0.3885 -0.4727
  105OSM    C4F10752   7.059   5.800  10.281  0.2593 -1.4128  0.1344
  105OSM    H4F10753   7.004   5.704  10.289  0.3653 -1.4223  0.7394
  105OSM    H4G10754   7.169   5.787  10.271  0.1810 -2.6650  0.8012
  105OSM    C5F10755   6.997   5.868  10.153  0.3583  0.0724 -0.3754
  105OSM    H5F10756   7.018   5.977  10.152 -0.8489  0.3234  0.5516
  105OSM    H5G10757   6.887   5.869  10.164  0.5460  1.4913  1.6892
  105OSM    C6F10758   7.053   5.818  10.021 -0.6203 -0.3424  0.3106
  105OSM    H6F10759   7.060   5.707  10.030 -1.3502 -0.3931  0.2666
  105OSM    H6G10760   7.152   5.865  10.006 -2.4169  3.6077  0.3287
  105OSM    C7F10761   6.968   5.861   9.905  0.4524  0.3605 -0.3683
  105OSM    H7F10762   6.975   5.972   9.904 -1.9811  0.5519 -0.5633
  105OSM    H7G10763   6.864   5.824   9.921  0.0639  0.0600 -3.2767
  105OSM    C8F10764   7.021   5.810   9.764 -0.2656  0.2703  0.1338
  105OSM    H8F10765   7.031   5.700   9.776  2.0155  0.5763  1.3662
  105OSM    H8G10766   7.121   5.850   9.739  0.0442 -1.1515 -0.8825
  105OSM    C9F10767   6.929   5.867   9.653  0.3336 -0.3013 -0.2360
  105OSM    H9F10768   6.835   5.914   9.686  1.1389  0.1274  1.5220
  105OSM   C10F10769   6.948   5.868   9.522  0.0455 -0.0984  0.9294
  105OSM   H10F10770   6.874   5.922   9.462 -0.1352 -0.7705  0.5403
  105OSM   C11F10771   7.073   5.823   9.450  0.0969 -0.1613 -0.0123
  105OSM   H11F10772   7.124   5.743   9.508  0.0671 -1.1505 -1.3289
  105OSM   H11G10773   7.149   5.904   9.448 -0.2192  0.2237  2.1648
  105OSM   C12F10774   7.035   5.771   9.317  0.1004 -0.2741  0.0319
  105OSM   H12F10775   6.939   5.715   9.314 -0.7018  1.1555 -2.4222
  105OSM   H12G10776   7.116   5.704   9.282 -0.1818 -0.3565 -0.4717
  105OSM   C13F10777   7.012   5.882   9.214 -0.0467  0.0209 -0.2758
  105OSM   H13F10778   7.110   5.935   9.213  0.3503 -0.6745  0.5657
  105OSM   H13G10779   6.935   5.956   9.245 -1.2301 -2.3173  2.6558
  105OSM   C14F10780   6.968   5.835   9.071  0.1044 -0.2151 -0.1455
  105OSM   H14F10781   6.949   5.927   9.012 -1.1813 -0.0984  0.4499
  105OSM   H14G10782   6.866   5.791   9.072 -0.5169  1.1433 -1.8113
  105OSM   C15F10783   7.065   5.760   8.971  0.2305  0.2002 -1.1267
  105OSM   H15F10784   7.099   5.666   9.020  2.4700  1.1605 -0.7691
  105OSM   H15G10785   7.154   5.825   8.959  2.4852 -2.7308 -1.0616
  105OSM   C16F10786   7.010   5.735   8.830 -0.4604 -0.4775  0.5932
  105OSM   H16F10787   6.962   5.829   8.795  2.0679  0.7747  0.3801
  105OSM   H16G10788   6.923   5.666   8.831 -2.2013  1.6488 -0.6203
  105OSM   C17F10789   7.119   5.691   8.730 -0.2878  0.2471 -0.4246
  105OSM   H17F10790   7.167   5.594   8.753  2.3171  0.9588 -2.5803
  105OSM   H17G10791   7.195   5.773   8.736 -0.1138  0.0866 -0.4260
  105OSM   C18F10792   7.057   5.702   8.599  0.1678 -0.3559  0.7681
  105OSM   H18F10793   6.969   5.634   8.594 -0.3021  0.3762 -1.1989
  105OSM   H18G10794   7.128   5.677   8.517 -0.8973  3.5996 -1.5146
  105OSM   H18H10795   7.028   5.806   8.573  1.3182 -0.0268  0.7456
  106OSM      N10796   1.375   3.907  11.224  0.0711  0.9083 -0.1961
  106OSM    C1510797   1.328   3.961  11.359 -0.1554  0.9058  1.3528
  106OSM   H15A10798   1.255   4.040  11.349 -0.4684  0.5355  0.6294
  106OSM   H15B10799   1.418   3.991  11.410  0.7383  0.8394 -0.1693
  106OSM   H15C10800   1.290   3.887  11.427 -1.6550  2.3131  2.1018
  106OSM    C1410801   1.398   4.015  11.132  0.4129  0.1738 -0.4681
  106OSM   H14A10802   1.304   4.059  11.102  0.8707 -0.1552 -2.5052
  106OSM   H14B10803   1.455   4.003  11.041  0.1180  0.6225 -0.7155
  106OSM   H14C10804   1.444   4.096  11.188 -2.2759  0.5129  1.3246
  106OSM    C1310805   1.511   3.836  11.241  0.5107 -0.8609 -0.4990
  106OSM   H13A10806   1.557   3.829  11.143  1.2601  1.2833 -0.3326
  106OSM   H13B10807   1.477   3.738  11.270 -0.6485  0.0230  1.2212
  106OSM   H13C10808   1.567   3.894  11.313 -2.8633  3.7237 -1.3389
  106OSM    C1210809   1.269   3.814  11.165 -0.1831 -0.3033  0.5460
  106OSM   H12A10810   1.183   3.877  11.152 -0.4715 -0.4943  1.4876
  106OSM   H12B10811   1.240   3.740  11.237  1.4704 -1.7979 -0.2752
  106OSM    C1110812   1.300   3.741  11.027  0.2844 -0.8207  0.1808
  106OSM   H11A10813   1.210   3.684  10.996 -0.8686  0.3054  1.3412
  106OSM   H11B10814   1.377   3.662  11.041  0.3914 -0.8557 -0.6038
  106OSM      P10815   1.413   3.785  10.797 -0.1671 -0.0313 -0.1379
  106OSM    O1310816   1.452   3.895  10.706  0.1872 -0.4216  0.1937
  106OSM    O1410817   1.521   3.697  10.850 -0.5095 -0.1390 -0.2176
  106OSM    O1110818   1.312   3.692  10.721 -0.2948 -0.6370  0.4709
  106OSM    O1210819   1.324   3.831  10.914 -0.3721 -0.0231  0.3348
  106OSM    C1S10820   1.261   3.725  10.596 -0.7149 -0.3542  0.5222
  106OSM    H1S10821   1.240   3.832  10.578  1.9107  0.0004 -0.7044
  106OSM    H1T10822   1.158   3.684  10.593 -1.2514  1.1279 -1.9299
  106OSM     NF10823   1.272   3.719  10.341  0.1326  0.4595 -0.1168
  106OSM    HNF10824   1.232   3.656  10.274 -1.0907  1.6239 -0.4779
  106OSM    C2S10825   1.333   3.661  10.462  0.4944 -0.3081  0.2250
  106OSM    H2S10826   1.440   3.691  10.455  0.5647 -0.3086  1.1562
  106OSM    C3S10827   1.327   3.509  10.465 -0.0125  0.1133 -0.5828
  106OSM    H3S10828   1.219   3.483  10.467 -0.5324  2.0309 -2.4325
  106OSM     O310829   1.366   3.453  10.589 -0.3348  0.5571  0.1348
  106OSM    HO310830   1.404   3.521  10.645 -2.7326  1.2147  1.0288
  106OSM    C4S10831   1.391   3.445  10.344  0.8707  0.2534 -0.1447
  106OSM    H4S10832   1.317   3.437  10.263 -1.7465 -1.1487  2.2951
  106OSM    C5S10833   1.518   3.407  10.329 -0.0009 -0.3124  0.5641
  106OSM    H5S10834   1.589   3.429  10.411  0.4491  3.4649 -0.7265
  106OSM    C6S10835   1.566   3.346  10.195  0.0891  0.1012 -0.0685
  106OSM    H6S10836   1.607   3.243  10.205 -0.0526  0.1148  0.7284
  106OSM    H6T10837   1.647   3.410  10.153  0.8509 -0.3745  0.6405
  106OSM    C7S10838   1.461   3.327  10.086 -0.1163  0.5368  0.1826
  106OSM    H7S10839   1.397   3.417  10.079 -0.4851  0.1147 -2.1337
  106OSM    H7T10840   1.397   3.244  10.123  1.2175  0.6356  2.8694
  106OSM    C8S10841   1.518   3.292   9.950 -0.3965  0.1691  0.1994
  106OSM    H8S10842   1.603   3.222   9.963  0.0115  0.5819 -0.1997
  106OSM    H8T10843   1.570   3.386   9.920 -2.3206  1.4297  0.6917
  106OSM    C9S10844   1.424   3.258   9.841 -0.5138  0.2553 -0.0169
  106OSM    H9S10845   1.362   3.347   9.818  0.7494  1.0850 -0.2436
  106OSM    H9T10846   1.348   3.185   9.877 -1.8157  0.8835 -1.3975
  106OSM   C10S10847   1.493   3.214   9.717  0.2216  0.1358  0.3723
  106OSM   H10S10848   1.563   3.127   9.721 -1.6193 -1.3352  1.7101
  106OSM   H10T10849   1.556   3.297   9.679  0.3864  0.9713  2.3617
  106OSM   C11S10850   1.386   3.195   9.612  0.3662 -0.0357  0.2765
  106OSM   H11S10851   1.329   3.289   9.599  0.6709 -0.2119 -2.6448
  106OSM   H11T10852   1.318   3.114   9.648  0.3831 -0.4655 -0.6197
  106OSM   C12S10853   1.443   3.149   9.473  0.5003  0.2400 -0.8392
  106OSM   H12S10854   1.513   3.063   9.482  0.1007 -0.2976 -2.5571
  106OSM   H12T10855   1.497   3.236   9.432 -0.3780  2.2514  2.0946
  106OSM   C13S10856   1.330   3.098   9.392  0.3907 -0.1283 -0.2334
  106OSM   H13S10857   1.252   3.176   9.383  0.1581 -0.1738  1.2537
  106OSM   H13T10858   1.291   3.004   9.437 -1.5236  0.9392  0.3553
  106OSM   C14S10859   1.392   3.069   9.253 -0.1301 -0.0721 -0.3978
  106OSM   H14S10860   1.456   2.978   9.248  0.5218  0.4312 -1.4865
  106OSM   H14T10861   1.467   3.142   9.216  1.2044 -1.1355  0.1613
  106OSM   C15S10862   1.275   3.054   9.159 -0.2449 -0.5050 -0.8423
  106OSM   H15S10863   1.219   3.150   9.153 -0.5103 -0.5794  0.2912
  106OSM   H15T10864   1.202   2.980   9.197  0.8294  1.2435  5.2692
  106OSM   C16S10865   1.309   3.016   9.016 -0.4679  0.1054  0.6470
  106OSM   H16S10866   1.213   3.021   8.961  0.2296 -1.3038 -0.7599
  106OSM   H16T10867   1.343   2.910   9.015 -0.4151  0.1045 -1.7591
  106OSM   C17S10868   1.421   3.100   8.953  0.6177 -0.1864  0.4337
  106OSM   H17S10869   1.515   3.064   8.999  1.5920  0.6084 -0.8911
  106OSM   H17T10870   1.391   3.205   8.976  0.2109 -0.3948  0.8660
  106OSM   C18S10871   1.414   3.089   8.799 -0.3252 -0.6154  0.2877
  106OSM   H18S10872   1.315   3.123   8.759 -0.6453  0.2714  1.8173
  106OSM   H18T10873   1.436   2.984   8.770  1.2496 -0.2814  0.2465
  106OSM   H18U10874   1.494   3.153   8.754  2.0434 -2.7690  1.3627
  106OSM    C1F10875   1.272   3.844  10.299  0.4251 -0.5478 -1.0687
  106OSM     OF10876   1.362   3.920  10.338  0.3976 -0.2152  0.7460
  106OSM    C2F10877   1.174   3.878  10.194 -0.2520 -0.7967  0.6887
  106OSM    H2F10878   1.071   3.845  10.218 -1.2388  1.5234 -0.2101
  106OSM    H2G10879   1.201   3.817  10.105 -0.7062 -0.3616  0.2571
  106OSM    C3F10880   1.181   4.026  10.140 -0.2558  0.3298 -0.6662
  106OSM    H3F10881   1.282   4.054  10.104 -0.1017 -0.2197 -0.6503
  106OSM    H3G10882   1.164   4.099  10.223  0.4493  2.3315 -2.2217
  106OSM    C4F10883   1.077   4.070  10.030 -0.1335  0.2904 -0.2624
  106OSM    H4F10884   1.091   4.180  10.023 -2.1601  0.5028 -1.4026
  106OSM    H4G10885   0.972   4.061  10.067 -0.3804  2.2863 -0.4148
  106OSM    C5F10886   1.091   3.999   9.895  0.3781 -0.3167  0.0046
  106OSM    H5F10887   1.055   4.067   9.816 -0.1188 -1.0048 -0.3629
  106OSM    H5G10888   1.021   3.914   9.883 -0.4294  0.4950 -1.1115
  106OSM    C6F10889   1.229   3.954   9.845 -0.0405  0.3076 -0.2956
  106OSM    H6F10890   1.216   3.914   9.742  1.0076 -1.1179  0.0980
  106OSM    H6G10891   1.269   3.869   9.904  1.1848 -0.8442 -2.7002
  106OSM    C7F10892   1.333   4.070   9.838 -0.1386  0.4525 -0.2524
  106OSM    H7F10893   1.424   4.011   9.813 -0.3678  0.0845 -0.2264
  106OSM    H7G10894   1.349   4.124   9.934  0.6104 -0.8767  0.3819
  106OSM    C8F10895   1.302   4.172   9.719  0.2362 -0.0363  0.0290
  106OSM    H8F10896   1.215   4.225   9.762  1.0799  1.4505 -0.0701
  106OSM    H8G10897   1.262   4.110   9.635 -0.2306 -0.5113  0.5926
  106OSM    C9F10898   1.417   4.259   9.683  0.2944  0.0480 -0.4294
  106OSM    H9F10899   1.426   4.353   9.739 -1.4430 -0.5338  0.8827
  106OSM   C10F10900   1.518   4.235   9.597  0.2149 -0.0780 -0.6752
  106OSM   H10F10901   1.591   4.312   9.566  0.4405 -0.1497 -0.3212
  106OSM   C11F10902   1.547   4.114   9.506 -0.3296  0.4645  0.4389
  106OSM   H11F10903   1.468   4.040   9.530 -0.2715  0.6642  1.2850
  106OSM   H11G10904   1.647   4.074   9.530 -0.2391  0.7929  0.6203
  106OSM   C12F10905   1.541   4.160   9.358  0.4623 -0.2748 -0.6892
  106OSM   H12F10906   1.612   4.242   9.333  1.4295 -0.8509  0.1596
  106OSM   H12G10907   1.441   4.207   9.346  1.3485  1.9912  0.4185
  106OSM   C13F10908   1.566   4.040   9.259 -0.0956 -0.4350  0.1178
  106OSM   H13F10909   1.477   3.974   9.253 -0.5683  0.0116  2.0804
  106OSM   H13G10910   1.656   3.993   9.303 -0.9211  0.7026  3.1480
  106OSM   C14F10911   1.595   4.087   9.117 -0.7432  0.3086  0.5120
  106OSM   H14F10912   1.528   4.161   9.068 -1.6416 -0.1016  1.0988
  106OSM   H14G10913   1.597   3.999   9.049  0.7979 -0.4739  1.5537
  106OSM   C15F10914   1.738   4.147   9.118 -0.5123 -0.5336  0.3078
  106OSM   H15F10915   1.807   4.065   9.147 -2.0881 -1.2867  1.9931
  106OSM   H15G10916   1.738   4.240   9.179 -2.7848  0.2536 -0.8386
  106OSM   C16F10917   1.795   4.191   8.983  0.3978 -0.6426  0.7834
  106OSM   H16F10918   1.889   4.245   9.006 -0.8978  1.9886  0.0979
  106OSM   H16G10919   1.720   4.266   8.948  1.1107 -0.1145  0.3727
  106OSM   C17F10920   1.812   4.083   8.877 -0.0632  0.4746  0.3787
  106OSM   H17F10921   1.706   4.048   8.869 -0.4727  2.0426 -1.2359
  106OSM   H17G10922   1.872   3.999   8.917 -1.3358  0.1121  1.6102
  106OSM   C18F10923   1.860   4.129   8.742  0.0645 -0.2032  0.2130
  106OSM   H18F10924   1.965   4.160   8.724  0.1027 -1.3753 -1.7810
  106OSM   H18G10925   1.798   4.211   8.701 -0.3309 -0.3676  0.4763
  106OSM   H18H10926   1.835   4.043   8.676  1.7523  0.6175 -1.5338
  107OSM      N10927   2.032   1.007  10.914 -0.0715  0.0790  0.0154
  107OSM    C1510928   2.044   0.855  10.896  0.2919  0.6526 -0.6827
  107OSM   H15A10929   1.982   0.811  10.820  0.8310 -0.8862 -0.2484
  107OSM   H15B10930   2.018   0.800  10.985 -1.0119  0.4069 -1.2133
  107OSM   H15C10931   2.148   0.831  10.879  0.6891  1.9878 -0.1979
  107OSM    C1410932   2.074   1.072  10.791  0.6479  0.0819 -0.2402
  107OSM   H14A10933   2.070   1.180  10.796  2.7517  0.1675 -0.0235
  107OSM   H14B10934   2.006   1.048  10.711 -0.9262  0.2791  1.0134
  107OSM   H14C10935   2.169   1.032  10.759  1.6954  1.7527  0.6898
  107OSM    C1310936   1.883   1.024  10.932 -0.2145 -0.3946  0.0220
  107OSM   H13A10937   1.855   1.125  10.959  3.3132  1.1071 -1.6091
  107OSM   H13B10938   1.839   0.959  11.006 -0.8029  0.7507  0.7083
  107OSM   H13C10939   1.842   1.006  10.834 -0.1382  0.1475 -0.1111
  107OSM    C1210940   2.099   1.059  11.039  0.9609 -0.4923 -0.2219
  107OSM   H12A10941   2.204   1.039  11.025  0.9535 -1.1467  0.6179
  107OSM   H12B10942   2.073   1.000  11.125  0.7170 -1.0205 -0.6580
  107OSM    C1110943   2.084   1.211  11.071  0.4872  0.1151 -0.3501
  107OSM   H11A10944   2.100   1.225  11.180  0.9154 -0.2382 -0.3659
  107OSM   H11B10945   1.977   1.238  11.058  0.1714 -0.2995  1.3281
  107OSM      P10946   2.139   1.433  10.945  0.0852  0.2944  0.4157
  107OSM    O1310947   2.046   1.429  10.828  0.6054  0.2398  0.0327
  107OSM    O1410948   2.101   1.530  11.053 -1.0969  0.0052 -0.3271
  107OSM    O1110949   2.280   1.470  10.882  0.1107  0.3566  0.1282
  107OSM    O1210950   2.174   1.284  10.993  0.5961 -0.0228 -0.0001
  107OSM    C1S10951   2.325   1.387  10.778 -0.2325 -0.3807  0.7445
  107OSM    H1S10952   2.270   1.290  10.772 -0.6222 -0.0945 -0.3804
  107OSM    H1T10953   2.432   1.358  10.793  0.3548  2.1085  1.6021
  107OSM     NF10954   2.347   1.358  10.540  0.3625 -0.7585 -0.5877
  107OSM    HNF10955   2.446   1.345  10.534  0.3333 -0.3034 -2.2252
  107OSM    C2S10956   2.301   1.458  10.646 -0.1390  0.2271 -0.0611
  107OSM    H2S10957   2.192   1.466  10.628  0.1423  1.4316 -1.3505
  107OSM    C3S10958   2.381   1.589  10.641  0.6967  0.3654  0.0304
  107OSM    H3S10959   2.487   1.556  10.653  0.4921 -0.3406 -0.0626
  107OSM     O310960   2.350   1.679  10.741  0.2267  0.1415 -0.0900
  107OSM    HO310961   2.302   1.623  10.803  1.2318  0.4632  0.9835
  107OSM    C4S10962   2.357   1.652  10.509 -0.0155 -0.4295 -0.5934
  107OSM    H4S10963   2.423   1.620  10.427  0.2110  0.6816 -0.8652
  107OSM    C5S10964   2.260   1.733  10.471  0.2582 -0.0740  0.4873
  107OSM    H5S10965   2.173   1.752  10.536  1.5214  1.6845  1.7158
  107OSM    C6S10966   2.250   1.783  10.327 -0.0652  0.0094  0.0079
  107OSM    H6S10967   2.215   1.888  10.324 -1.2820 -0.1509  4.2739
  107OSM    H6T10968   2.166   1.724  10.286  1.6069 -2.4133 -0.0273
  107OSM    C7S10969   2.383   1.777  10.239 -0.0479 -0.0665 -0.9893
  107OSM    H7S10970   2.438   1.682  10.253 -4.3598 -2.2985  1.9119
  107OSM    H7T10971   2.453   1.853  10.280  0.3831 -1.1670  0.3353
  107OSM    C8S10972   2.367   1.793  10.083 -0.7098 -0.5321  0.5622
  107OSM    H8S10973   2.456   1.825  10.026 -0.4413 -0.4062  1.0521
  107OSM    H8T10974   2.303   1.884  10.071  0.3001 -0.2243 -2.9016
  107OSM    C9S10975   2.291   1.678  10.007  0.5349  0.2125  0.0109
  107OSM    H9S10976   2.197   1.659  10.062  0.9513 -1.3978  0.2118
  107OSM    H9T10977   2.336   1.577  10.018 -2.1458 -1.0672 -0.3762
  107OSM   C10S10978   2.275   1.699   9.856 -0.0666 -0.0930 -0.1688
  107OSM   H10S10979   2.372   1.709   9.802 -1.2013  0.1528 -2.2374
  107OSM   H10T10980   2.218   1.793   9.834  0.7415  0.0452 -1.7374
  107OSM   C11S10981   2.228   1.572   9.789  0.0128  0.0648 -0.0325
  107OSM   H11S10982   2.144   1.533   9.850  1.5992 -0.0457  2.1608
  107OSM   H11T10983   2.298   1.485   9.795  0.1563  0.2378  0.9698
  107OSM   C12S10984   2.169   1.604   9.651 -0.2985  0.6052  0.0766
  107OSM   H12S10985   2.078   1.665   9.668 -1.8376 -1.7352  0.4199
  107OSM   H12T10986   2.142   1.499   9.626 -3.0919  1.1849  0.5281
  107OSM   C13S10987   2.253   1.667   9.535  0.1509 -0.5373 -0.4430
  107OSM   H13S10988   2.342   1.602   9.517  0.8805  0.0365  1.0786
  107OSM   H13T10989   2.293   1.758   9.584  2.9787 -1.3267 -1.1786
  107OSM   C14S10990   2.179   1.715   9.409  0.4314 -0.7753  0.2025
  107OSM   H14S10991   2.105   1.790   9.445 -0.9583 -0.7706 -2.6121
  107OSM   H14T10992   2.132   1.633   9.351  1.0769  0.1280 -1.6366
  107OSM   C15S10993   2.277   1.773   9.297  0.4835  0.4910  0.7278
  107OSM   H15S10994   2.364   1.711   9.266  0.6753  1.2676 -0.3283
  107OSM   H15T10995   2.333   1.852   9.350  1.4382  0.6357 -0.4821
  107OSM   C16S10996   2.218   1.828   9.167 -0.4281  0.1427  0.0598
  107OSM   H16S10997   2.299   1.883   9.114  0.1469 -0.7098  0.0391
  107OSM   H16T10998   2.132   1.892   9.197  0.0883  0.6670  0.4304
  107OSM   C17S10999   2.165   1.718   9.087  0.4126 -0.1423 -0.3402
  107OSM   H17S11000   2.108   1.640   9.142 -0.7725  0.2350 -1.0169
  107OSM   H17T11001   2.253   1.658   9.053  1.3114 -0.2184  1.9975
  107OSM   C18S11002   2.101   1.762   8.956  0.3213  0.1875 -0.0975
  107OSM   H18S11003   2.036   1.682   8.916  0.8975 -0.8712  1.0542
  107OSM   H18T11004   2.180   1.793   8.883  1.4063  1.0870  1.4255
  107OSM   H18U11005   2.040   1.855   8.964  1.8819  1.1874  0.4641
  107OSM    C1F11006   2.267   1.257  10.496 -0.0105 -0.1226 -0.1803
  107OSM     OF11007   2.152   1.241  10.537  0.3382  0.7620  0.0948
  107OSM    C2F11008   2.324   1.164  10.396 -0.3038 -0.3576 -0.0377
  107OSM    H2F11009   2.428   1.136  10.420  0.0516  1.7385  1.0056
  107OSM    H2G11010   2.340   1.222  10.303  2.2137 -1.3631 -0.2498
  107OSM    C3F11011   2.236   1.050  10.353 -0.0968 -0.5281  0.5987
  107OSM    H3F11012   2.139   1.087  10.314  0.4787 -0.5524 -0.9063
  107OSM    H3G11013   2.197   1.002  10.445  0.2351 -0.5260  0.7421
  107OSM    C4F11014   2.304   0.958  10.256  0.4812 -0.7315 -0.1045
  107OSM    H4F11015   2.401   0.927  10.301  0.3845  2.4675  2.4808
  107OSM    H4G11016   2.330   1.026  10.173 -0.5581  1.4137  1.2968
  107OSM    C5F11017   2.228   0.837  10.196  0.9698 -0.7217 -0.9897
  107OSM    H5F11018   2.126   0.865  10.163  0.3742  0.5630  1.8210
  107OSM    H5G11019   2.225   0.758  10.275  0.2847 -0.3224 -0.6158
  107OSM    C6F11020   2.294   0.773  10.073  0.3846 -0.1748 -0.4074
  107OSM    H6F11021   2.403   0.778  10.093  0.2533  0.8641  0.0817
  107OSM    H6G11022   2.282   0.833   9.980  3.1620 -0.1026 -0.7569
  107OSM    C7F11023   2.259   0.621  10.050 -0.0800  0.3519 -0.0140
  107OSM    H7F11024   2.277   0.568  10.146  1.5962 -1.5110 -1.3272
  107OSM    H7G11025   2.335   0.573   9.986  0.0726  3.3752 -2.1868
  107OSM    C8F11026   2.116   0.593  10.013  0.5695  0.2979 -0.2804
  107OSM    H8F11027   2.042   0.599  10.095  1.0572 -0.2559  0.2045
  107OSM    H8G11028   2.110   0.483  10.000 -0.3508  0.2984  0.1242
  107OSM    C9F11029   2.082   0.675   9.890  0.1638  0.2702 -0.0855
  107OSM    H9F11030   2.077   0.783   9.912 -1.0341  0.6313 -2.0175
  107OSM   C10F11031   2.037   0.632   9.773  0.2770  0.0313 -0.3955
  107OSM   H10F11032   2.015   0.707   9.695 -0.9036  0.7175  0.5849
  107OSM   C11F11033   2.010   0.488   9.754  0.4885  0.7898 -0.4905
  107OSM   H11F11034   1.909   0.460   9.791 -0.3300 -1.3811 -4.1133
  107OSM   H11G11035   2.076   0.418   9.808 -0.5479 -0.0243 -0.2584
  107OSM   C12F11036   2.011   0.445   9.596  1.1409  0.1140 -0.9809
  107OSM   H12F11037   1.917   0.488   9.554 -0.8667 -0.8694  2.4014
  107OSM   H12G11038   2.004   0.334   9.600 -0.6567  0.3096  2.4894
  107OSM   C13F11039   2.127   0.485   9.515  0.1441 -0.5000 -0.1508
  107OSM   H13F11040   2.212   0.427   9.556  2.1949  0.2590 -3.2385
  107OSM   H13G11041   2.152   0.592   9.527  3.4340 -1.1683 -0.6234
  107OSM   C14F11042   2.117   0.448   9.366 -0.2400  0.3313  0.3579
  107OSM   H14F11043   2.206   0.502   9.327 -1.7285  2.3999 -0.2904
  107OSM   H14G11044   2.020   0.489   9.329  0.9128  0.6965 -2.4254
  107OSM   C15F11045   2.120   0.295   9.336 -0.4876 -0.2363  0.0474
  107OSM   H15F11046   2.026   0.249   9.373 -0.3501  0.5975  1.4529
  107OSM   H15G11047   2.203   0.254   9.395  0.6416  1.2057 -0.5020
  107OSM   C16F11048   2.146   0.258   9.194 -0.2735 -0.2129  0.4592
  107OSM   H16F11049   2.164   0.149   9.182  0.1504 -0.2199  1.1140
  107OSM   H16G11050   2.242   0.303   9.162  0.8985 -0.2536  3.6846
  107OSM   C17F11051   2.043   0.310   9.093  0.2284 -0.6880  0.7033
  107OSM   H17F11052   2.042   0.421   9.088  1.4559 -0.4833  3.7447
  107OSM   H17G11053   1.944   0.264   9.112 -0.1543 -0.7878 -1.4686
  107OSM   C18F11054   2.074   0.268   8.948  0.3187 -0.9966  0.1933
  107OSM   H18F11055   2.125   0.169   8.942  0.1769 -1.0412 -0.3214
  107OSM   H18G11056   2.121   0.356   8.901 -3.1303  0.0853 -1.3430
  107OSM   H18H11057   1.986   0.253   8.881  1.3557 -0.6750 -1.2525
  108OSM      N11058   5.394   5.934  10.739 -0.5869 -0.4116 -0.1876
  108OSM    C1511059   5.320   5.956  10.615  0.4477  0.6970  0.1594
  108OSM   H15A11060   5.295   6.060  10.606 -0.4790  0.7136  2.5637
  108OSM   H15B11061   5.225   5.906  10.604  1.6488 -1.4875 -0.6455
  108OSM   H15C11062   5.379   5.927  10.530  0.6532  4.3729 -1.0311
  108OSM    C1411063   5.520   6.016  10.750 -0.6270 -0.2532  0.3492
  108OSM   H14A11064   5.506   6.123  10.751 -0.3194 -0.2254  1.7543
  108OSM   H14B11065   5.590   6.013  10.668 -0.3869 -0.2334  0.5529
  108OSM   H14C11066   5.578   5.995  10.838  0.6234  0.1945 -0.3415
  108OSM    C1311067   5.313   5.961  10.861 -0.5077  0.6329 -0.3054
  108OSM   H13A11068   5.353   5.924  10.954 -0.4386  0.2033 -0.5064
  108OSM   H13B11069   5.218   5.910  10.851  0.6339 -1.4091 -0.7886
  108OSM   H13C11070   5.292   6.066  10.878 -0.4805  0.5354  0.3062
  108OSM    C1211071   5.436   5.792  10.727  0.2948  0.0386 -0.3059
  108OSM   H12A11072   5.489   5.775  10.634  0.3455 -1.6563  0.0213
  108OSM   H12B11073   5.347   5.737  10.697 -0.2432  1.3119 -1.1053
  108OSM    C1111074   5.514   5.728  10.840  0.5508 -0.0655 -0.0570
  108OSM   H11A11075   5.477   5.772  10.935  1.1293  1.3433 -0.4730
  108OSM   H11B11076   5.623   5.737  10.825  0.9849 -1.6290  1.8917
  108OSM      P11077   5.562   5.474  10.839  0.5469 -0.3069  0.3505
  108OSM    O1311078   5.668   5.507  10.930 -0.1387  0.0085 -0.6242
  108OSM    O1411079   5.472   5.361  10.866 -0.2004 -0.1558  0.5392
  108OSM    O1111080   5.617   5.458  10.686 -1.2013 -0.2108  0.2117
  108OSM    O1211081   5.466   5.595  10.832 -0.1164 -0.5961  0.0414
  108OSM    C1S11082   5.520   5.448  10.588 -0.9525  0.1707  0.0608
  108OSM    H1S11083   5.489   5.549  10.554 -3.5188  0.2203  2.3971
  108OSM    H1T11084   5.427   5.394  10.615  0.6285 -2.8307 -0.2391
  108OSM     NF11085   5.484   5.385  10.351  0.0311 -0.3118 -0.3437
  108OSM    HNF11086   5.415   5.316  10.331  0.4795 -0.8858  0.0606
  108OSM    C2S11087   5.569   5.368  10.464  0.2281  0.1558 -0.5306
  108OSM    H2S11088   5.666   5.412  10.432  0.1209  1.6648  1.1347
  108OSM    C3S11089   5.603   5.223  10.484 -0.7570 -0.1046 -0.1372
  108OSM    H3S11090   5.509   5.165  10.495  0.0071 -1.3122  0.1137
  108OSM     O311091   5.676   5.204  10.601 -0.6291  0.4540  0.1416
  108OSM    HO311092   5.673   5.289  10.647 -1.2017  1.7079 -2.1359
  108OSM    C4S11093   5.682   5.166  10.374  0.1335  0.1450  0.4349
  108OSM    H4S11094   5.791   5.179  10.384  0.2495  2.6125 -3.1414
  108OSM    C5S11095   5.634   5.088  10.274 -0.0057  0.4115  1.0467
  108OSM    H5S11096   5.527   5.061  10.267  0.4312 -1.0279 -0.2246
  108OSM    C6S11097   5.720   5.034  10.160 -0.3923 -1.4833  0.2332
  108OSM    H6S11098   5.740   4.925  10.173 -3.3069 -2.1521 -0.6443
  108OSM    H6T11099   5.820   5.083  10.160  0.2470 -2.7532  0.6559
  108OSM    C7S11100   5.652   5.053  10.027  0.3124 -0.1814  0.6257
  108OSM    H7S11101   5.618   5.158  10.012 -2.2449 -0.9911  0.4077
  108OSM    H7T11102   5.556   4.997  10.019 -0.2461  0.6473  1.3335
  108OSM    C8S11103   5.748   5.023   9.909  0.2646  0.0311 -0.0738
  108OSM    H8S11104   5.794   4.922   9.911  0.5963  0.1501 -1.2269
  108OSM    H8T11105   5.829   5.097   9.923  1.4977 -1.1083 -1.0691
  108OSM    C9S11106   5.677   5.052   9.775  0.0303 -0.0951  0.2715
  108OSM    H9S11107   5.756   5.061   9.698 -0.8020 -2.0475 -0.8615
  108OSM    H9T11108   5.620   5.147   9.777  1.8888  1.0372  0.0436
  108OSM   C10S11109   5.579   4.935   9.721  0.2598  0.5736 -0.1092
  108OSM   H10S11110   5.510   4.902   9.802 -0.1025 -0.8836 -0.9973
  108OSM   H10T11111   5.643   4.851   9.689  0.2514  0.8706 -0.9311
  108OSM   C11S11112   5.499   4.986   9.601  0.1028 -0.2720 -0.3701
  108OSM   H11S11113   5.569   5.045   9.539  0.8626 -1.6140 -0.8069
  108OSM   H11T11114   5.421   5.057   9.635 -1.1264 -1.7437 -0.0520
  108OSM   C12S11115   5.432   4.874   9.516 -0.3263  0.1562  0.4832
  108OSM   H12S11116   5.366   4.822   9.588 -1.6395  1.0221 -0.0774
  108OSM   H12T11117   5.509   4.811   9.466 -0.7891  0.9176 -1.2481
  108OSM   C13S11118   5.336   4.936   9.415  0.4034  0.4611 -0.1270
  108OSM   H13S11119   5.282   5.015   9.471  2.2121  0.4047  1.7499
  108OSM   H13T11120   5.255   4.863   9.397  0.6025  0.6695 -2.0389
  108OSM   C14S11121   5.392   5.005   9.286  0.4855  0.2306  0.1974
  108OSM   H14S11122   5.420   5.110   9.308 -0.2408  0.7433 -1.3532
  108OSM   H14T11123   5.305   5.003   9.217  2.3478  0.4541 -2.2162
  108OSM   C15S11124   5.500   4.926   9.220 -0.0371 -0.0486 -0.0790
  108OSM   H15S11125   5.485   4.826   9.176  1.9535  0.3742 -1.8227
  108OSM   H15T11126   5.578   4.893   9.293  0.3438  0.7471 -0.1156
  108OSM   C16S11127   5.567   4.997   9.109 -0.5045  0.6330  0.0828
  108OSM   H16S11128   5.598   5.097   9.145  0.6337  0.4420 -0.3556
  108OSM   H16T11129   5.491   5.010   9.029  0.2128 -1.4008 -0.9793
  108OSM   C17S11130   5.672   4.916   9.043 -1.1840 -0.2894  0.7929
  108OSM   H17S11131   5.639   4.824   8.992  1.3668 -1.4853  1.2251
  108OSM   H17T11132   5.757   4.885   9.107  0.8658 -0.0450 -1.7089
  108OSM   C18S11133   5.739   5.003   8.930 -0.5131 -0.0181  0.3050
  108OSM   H18S11134   5.663   5.028   8.853  0.7362 -0.4454 -1.0775
  108OSM   H18T11135   5.810   4.942   8.872  2.0207  2.6364  0.4989
  108OSM   H18U11136   5.793   5.095   8.962  0.2342 -0.2521 -0.2891
  108OSM    C1F11137   5.476   5.504  10.290  0.1414  0.0197  0.0263
  108OSM     OF11138   5.524   5.607  10.336  0.4403 -0.8102 -0.4560
  108OSM    C2F11139   5.410   5.499  10.153 -0.0421  0.3010 -0.3033
  108OSM    H2F11140   5.362   5.599  10.141  2.5821  1.5825 -0.4277
  108OSM    H2G11141   5.343   5.411  10.153  2.2597 -1.5038  0.3626
  108OSM    C3F11142   5.518   5.489  10.038  0.2515  0.1362  0.1982
  108OSM    H3F11143   5.582   5.399  10.048 -0.5079 -0.4869 -0.4719
  108OSM    H3G11144   5.588   5.574  10.031 -0.9334  1.1699  0.6343
  108OSM    C4F11145   5.449   5.482   9.898  0.6974  0.5189 -0.3359
  108OSM    H4F11146   5.394   5.576   9.877  0.3580  0.0690 -1.5695
  108OSM    H4G11147   5.376   5.398   9.903  0.3982  0.7946 -0.0327
  108OSM    C5F11148   5.545   5.455   9.786  0.5792  0.3443  0.7884
  108OSM    H5F11149   5.618   5.373   9.794  1.0345  0.7983  1.3197
  108OSM    H5G11150   5.603   5.549   9.770  0.3799  0.0421 -2.0158
  108OSM    C6F11151   5.462   5.442   9.658 -0.2569 -0.5749 -0.0220
  108OSM    H6F11152   5.391   5.524   9.636 -0.2191 -0.8489 -1.1883
  108OSM    H6G11153   5.398   5.353   9.673  2.0501 -2.3532 -0.3374
  108OSM    C7F11154   5.555   5.426   9.528 -0.0326 -0.1846 -0.1869
  108OSM    H7F11155   5.648   5.366   9.541 -0.7653 -1.0302  1.2673
  108OSM    H7G11156   5.582   5.531   9.506 -0.6797 -0.4922 -2.6448
  108OSM    C8F11157   5.477   5.351   9.422 -0.2201  0.2550 -0.0177
  108OSM    H8F11158   5.379   5.394   9.393  0.1596 -0.3557 -2.2689
  108OSM    H8G11159   5.466   5.248   9.463  0.3548  0.0121 -0.4648
  108OSM    C9F11160   5.562   5.343   9.302 -0.0328  0.0848 -0.7868
  108OSM    H9F11161   5.663   5.308   9.328 -0.4817 -0.5098  0.2086
  108OSM   C10F11162   5.537   5.382   9.179 -0.2878  0.4604  0.5053
  108OSM   H10F11163   5.612   5.368   9.100 -0.7647  1.3042 -0.0934
  108OSM   C11F11164   5.412   5.451   9.135 -0.0566 -0.2546 -0.0802
  108OSM   H11F11165   5.435   5.551   9.090  0.8262 -0.4861 -0.1591
  108OSM   H11G11166   5.346   5.472   9.222  0.6776 -0.2963  0.4945
  108OSM   C12F11167   5.325   5.377   9.033 -1.0572  0.5432 -0.2554
  108OSM   H12F11168   5.247   5.436   8.980 -1.3097  2.7814  2.4627
  108OSM   H12G11169   5.261   5.295   9.071 -0.5060 -0.3467 -1.2189
  108OSM   C13F11170   5.402   5.324   8.902  0.8516  0.0372  0.0164
  108OSM   H13F11171   5.461   5.234   8.927 -0.8524 -0.4605  2.4818
  108OSM   H13G11172   5.475   5.403   8.874 -1.9467  1.4229 -3.7947
  108OSM   C14F11173   5.305   5.291   8.786  0.2780 -0.7659 -0.1664
  108OSM   H14F11174   5.258   5.387   8.755  1.3601 -0.8357 -2.1029
  108OSM   H14G11175   5.225   5.219   8.815 -1.2784  1.3277  0.9185
  108OSM   C15F11176   5.392   5.226   8.675 -0.4695 -0.0664  1.0438
  108OSM   H15F11177   5.409   5.120   8.706 -0.3190 -0.7809 -1.3623
  108OSM   H15G11178   5.486   5.284   8.663  1.3765 -2.9065  1.1913
  108OSM   C16F11179   5.296   5.220   8.546  0.2147 -0.0098 -0.3693
  108OSM   H16F11180   5.278   5.323   8.510  0.2797 -0.3352 -1.3396
  108OSM   H16G11181   5.202   5.170   8.574 -1.2150  3.3257  1.0747
  108OSM   C17F11182   5.369   5.136   8.436  0.1895 -0.8355 -0.7772
  108OSM   H17F11183   5.297   5.086   8.368 -0.5953  1.2360 -1.5337
  108OSM   H17G11184   5.425   5.057   8.491 -2.6520 -2.1556  0.3165
  108OSM   C18F11185   5.461   5.227   8.352 -0.4737  0.1817  0.5632
  108OSM   H18F11186   5.515   5.297   8.419  1.2578 -0.5850  0.0166
  108OSM   H18G11187   5.402   5.283   8.277  0.7518  0.2636 -0.3598
  108OSM   H18H11188   5.533   5.162   8.296  1.0022  1.2416  1.2100
  109OSM      N11189   0.196   6.604  10.652 -0.0004  0.1723 -0.9158
  109OSM    C1511190   0.279   6.519  10.730 -0.2103 -1.5117 -0.7651
  109OSM   H15A11191   0.351   6.458  10.678 -0.5863 -2.1504 -0.5432
  109OSM   H15B11192   0.224   6.448  10.790  1.8175 -2.1117  0.4098
  109OSM   H15C11193   0.337   6.565  10.809 -1.2509 -2.0209  0.3294
  109OSM    C1411194   0.100   6.682  10.747 -0.5408  0.9108 -0.3386
  109OSM   H14A11195   0.152   6.743  10.819  1.1058 -2.3835  1.3655
  109OSM   H14B11196   0.024   6.621  10.793 -2.2550  2.0160 -1.6477
  109OSM   H14C11197   0.040   6.744  10.682 -0.7511 -0.3052 -1.3334
  109OSM    C1311198   0.286   6.703  10.578  0.2257 -1.0094 -0.4950
  109OSM   H13A11199   0.218   6.776  10.537  0.0322 -0.7689  0.2591
  109OSM   H13B11200   0.335   6.658  10.492  0.0324  0.9455 -1.6656
  109OSM   H13C11201   0.348   6.759  10.646 -1.7926 -0.6118  1.0572
  109OSM    C1211202   0.111   6.509  10.568  0.0096 -0.9603 -0.8130
  109OSM   H12A11203   0.057   6.433  10.621  0.7361  0.0290  1.3949
  109OSM   H12B11204   0.173   6.444  10.507  0.7756 -0.7642 -0.2593
  109OSM    C1111205   0.005   6.565  10.474 -0.0153 -0.0848  0.0284
  109OSM   H11A11206  -0.019   6.478  10.411  3.2116  0.8108 -2.5362
  109OSM   H11B11207   0.043   6.645  10.407  2.0984  0.2663  1.5901
  109OSM      P11208  -0.211   6.542  10.628 -0.0415  0.3705  0.3651
  109OSM    O1311209  -0.138   6.446  10.713 -0.1792 -0.5593 -0.2029
  109OSM    O1411210  -0.315   6.626  10.684 -0.5872 -0.3288  0.2793
  109OSM    O1111211  -0.271   6.448  10.511  0.2070 -0.2678  0.1793
  109OSM    O1211212  -0.104   6.623  10.551  0.0886  0.2547  0.4711
  109OSM    C1S11213  -0.323   6.515  10.395 -0.5187 -0.1304 -0.5783
  109OSM    H1S11214  -0.239   6.555  10.335 -0.0675  2.1485  1.4739
  109OSM    H1T11215  -0.380   6.603  10.431  1.1282  1.3617 -1.5271
  109OSM     NF11216  -0.458   6.504  10.189 -0.1680  0.1049 -0.2777
  109OSM    HNF11217  -0.532   6.571  10.194 -0.7835 -0.5728 -0.1521
  109OSM    C2S11218  -0.432   6.434  10.318 -0.1520 -0.7753 -0.2948
  109OSM    H2S11219  -0.401   6.331  10.291  0.3447 -0.8578  0.5750
  109OSM    C3S11220  -0.559   6.420  10.402  0.5626  0.0559 -0.1346
  109OSM    H3S11221  -0.598   6.520  10.432 -1.6764 -0.4207 -1.3239
  109OSM     O311222  -0.548   6.351  10.528 -0.3419  0.7770 -0.0341
  109OSM    HO311223  -0.453   6.350  10.543 -0.4654 -0.6245  0.7303
  109OSM    C4S11224  -0.662   6.341  10.321  0.1999  0.7067 -0.5094
  109OSM    H4S11225  -0.634   6.237  10.299 -3.8102 -0.2149 -1.6767
  109OSM    C5S11226  -0.781   6.392  10.287 -0.1733 -0.1726  0.4428
  109OSM    H5S11227  -0.802   6.498  10.308  1.0939  0.5102 -1.6463
  109OSM    C6S11228  -0.881   6.320  10.203  0.5712 -0.0282  0.2615
  109OSM    H6S11229  -0.976   6.300  10.255 -0.4808  1.1693 -1.1485
  109OSM    H6T11230  -0.847   6.219  10.171 -2.3525 -0.8192 -0.4370
  109OSM    C7S11231  -0.906   6.389  10.064  0.4452 -0.3231 -0.1034
  109OSM    H7S11232  -0.942   6.494  10.073  1.7518  0.0118  1.5893
  109OSM    H7T11233  -0.982   6.338  10.002 -0.9934  0.7776  0.7170
  109OSM    C8S11234  -0.780   6.412   9.975 -0.4090  0.2966 -0.2637
  109OSM    H8S11235  -0.738   6.313   9.945  0.6119  0.7270 -0.2960
  109OSM    H8T11236  -0.700   6.462  10.033 -0.0143 -1.4459  0.7256
  109OSM    C9S11237  -0.798   6.499   9.851  0.0894  0.1087 -0.3391
  109OSM    H9S11238  -0.711   6.559   9.819 -2.1537  2.8871 -1.4180
  109OSM    H9T11239  -0.877   6.576   9.864  0.3765  0.0176  2.2983
  109OSM   C10S11240  -0.845   6.429   9.719 -0.1991 -0.4242 -0.5060
  109OSM   H10S11241  -0.954   6.408   9.723  0.3774 -3.1228  2.4983
  109OSM   H10T11242  -0.791   6.332   9.720  1.4696  0.4497 -2.2222
  109OSM   C11S11243  -0.809   6.496   9.583 -0.9006  0.2860 -0.2189
  109OSM   H11S11244  -0.700   6.488   9.563 -0.8614 -1.2351  0.5358
  109OSM   H11T11245  -0.841   6.602   9.592  1.6298  0.9273  1.4249
  109OSM   C12S11246  -0.890   6.433   9.471  0.0601  0.3353  0.0537
  109OSM   H12S11247  -0.999   6.434   9.494  0.5360 -2.2432  2.7496
  109OSM   H12T11248  -0.851   6.329   9.460 -0.9950 -0.1723  0.9660
  109OSM   C13S11249  -0.856   6.509   9.337  0.4304 -1.4301 -0.2208
  109OSM   H13S11250  -0.746   6.510   9.324  0.3758  1.6233 -0.7351
  109OSM   H13T11251  -0.906   6.608   9.344 -0.1247 -1.7375  0.1789
  109OSM   C14S11252  -0.940   6.441   9.235  0.2042 -0.0936  0.6171
  109OSM   H14S11253  -1.051   6.443   9.244  0.2553  0.2931  1.1651
  109OSM   H14T11254  -0.917   6.333   9.248 -0.6808 -0.3184  0.3516
  109OSM   C15S11255  -0.902   6.491   9.093  0.6805  0.5951 -0.6873
  109OSM   H15S11256  -0.798   6.455   9.081 -0.0689 -1.3872 -1.4869
  109OSM   H15T11257  -0.910   6.602   9.086  0.6178  0.7279  1.2879
  109OSM   C16S11258  -0.976   6.414   8.982 -0.2924  0.0117  0.3586
  109OSM   H16S11259  -1.081   6.445   8.999 -0.5381 -0.2582 -0.6823
  109OSM   H16T11260  -0.967   6.304   8.991 -0.0241  0.1540  2.1073
  109OSM   C17S11261  -0.931   6.462   8.841 -0.2215  1.0199 -0.6077
  109OSM   H17S11262  -0.982   6.394   8.770  1.5512  1.2258 -2.1297
  109OSM   H17T11263  -0.823   6.447   8.817 -0.1268  0.0343  0.4104
  109OSM   C18S11264  -0.972   6.604   8.812  0.3213  0.1435 -0.8195
  109OSM   H18S11265  -1.064   6.641   8.862  0.6479  0.2837 -0.3178
  109OSM   H18T11266  -0.991   6.616   8.703  0.4653 -0.1448 -0.8775
  109OSM   H18U11267  -0.888   6.670   8.846 -0.0965 -0.1215  0.7680
  109OSM    C1F11268  -0.368   6.492  10.086  0.2491 -0.2331  0.3766
  109OSM     OF11269  -0.262   6.435  10.098  0.9559  0.0119 -0.1541
  109OSM    C2F11270  -0.396   6.563   9.956  0.5308 -1.1481 -0.0457
  109OSM    H2F11271  -0.321   6.645   9.944 -0.2886 -0.1750  1.2963
  109OSM    H2G11272  -0.498   6.607   9.957  0.4356 -1.2871 -1.9702
  109OSM    C3F11273  -0.384   6.468   9.834  0.0084 -0.3544  0.6718
  109OSM    H3F11274  -0.444   6.376   9.851 -0.8325 -0.2541 -1.5484
  109OSM    H3G11275  -0.282   6.425   9.821 -0.1588 -1.1361  1.9040
  109OSM    C4F11276  -0.432   6.535   9.702 -0.8358  0.6797 -0.6180
  109OSM    H4F11277  -0.364   6.621   9.682  1.5832  0.0549  4.1883
  109OSM    H4G11278  -0.531   6.581   9.725 -0.9862 -0.1720  0.4815
  109OSM    C5F11279  -0.432   6.445   9.577 -0.0276 -0.0102  0.0268
  109OSM    H5F11280  -0.515   6.373   9.589 -0.9413  1.0586  0.1784
  109OSM    H5G11281  -0.336   6.389   9.586  0.2394  0.1712 -1.4456
  109OSM    C6F11282  -0.437   6.523   9.444 -0.2974 -0.1247  0.5756
  109OSM    H6F11283  -0.351   6.588   9.418  1.6839 -2.9370 -0.1325
  109OSM    H6G11284  -0.527   6.585   9.461 -0.3825  0.7527 -2.7048
  109OSM    C7F11285  -0.456   6.437   9.316 -0.5361  0.5179 -0.1880
  109OSM    H7F11286  -0.529   6.357   9.342 -2.1451  2.2637  0.7103
  109OSM    H7G11287  -0.358   6.387   9.298  0.2012  1.7564  0.3836
  109OSM    C8F11288  -0.492   6.515   9.190  0.0142  0.0926  1.2555
  109OSM    H8F11289  -0.597   6.550   9.191 -0.3309 -0.8084 -0.7838
  109OSM    H8G11290  -0.495   6.449   9.100 -2.4229  0.1051  1.3109
  109OSM    C9F11291  -0.386   6.614   9.158 -0.1676  0.4269 -0.8447
  109OSM    H9F11292  -0.407   6.711   9.205  0.1289  1.0230 -1.9290
  109OSM   C10F11293  -0.285   6.597   9.076 -0.0085 -0.2463 -0.6651
  109OSM   H10F11294  -0.224   6.683   9.045  0.1613 -0.3250 -0.5512
  109OSM   C11F11295  -0.261   6.467   8.996  0.6730  0.4114 -0.4175
  109OSM   H11F11296  -0.327   6.384   9.028  0.9171  0.9051  1.3982
  109OSM   H11G11297  -0.162   6.426   9.025  0.9406  0.6763 -0.9355
  109OSM   C12F11298  -0.260   6.486   8.847 -0.3633 -0.1224 -0.1859
  109OSM   H12F11299  -0.184   6.557   8.809 -0.7652  0.0973 -0.5848
  109OSM   H12G11300  -0.350   6.535   8.803  1.5423  1.8901 -1.9403
  109OSM   C13F11301  -0.230   6.353   8.781 -0.7658  0.5699  0.6388
  109OSM   H13F11302  -0.252   6.377   8.675  0.1502  2.2167  0.7994
  109OSM   H13G11303  -0.297   6.270   8.810  1.0799 -0.9427  0.6689
  109OSM   C14F11304  -0.082   6.327   8.788  0.6264 -0.7695  0.4576
  109OSM   H14F11305  -0.044   6.308   8.891  1.8570 -0.7640  0.0162
  109OSM   H14G11306  -0.028   6.419   8.756 -0.8012  0.5522  1.7931
  109OSM   C15F11307  -0.032   6.222   8.691  0.3131 -0.2370  0.3711
  109OSM   H15F11308   0.078   6.231   8.675  0.0646  1.8364 -0.3261
  109OSM   H15G11309  -0.093   6.229   8.598 -1.3691 -0.1544  1.4659
  109OSM   C16F11310  -0.061   6.077   8.729 -0.2976 -0.5347 -0.3773
  109OSM   H16F11311  -0.171   6.066   8.745 -0.2668  0.0437  0.2885
  109OSM   H16G11312  -0.018   6.061   8.830 -1.3064  1.2229  0.3758
  109OSM   C17F11313  -0.008   5.966   8.642 -0.4242  0.4780 -0.2450
  109OSM   H17F11314  -0.042   5.870   8.687 -0.9200  1.1368  0.7945
  109OSM   H17G11315   0.103   5.967   8.653 -0.5624  1.9118  1.2788
  109OSM   C18F11316  -0.047   5.974   8.492 -0.0797 -0.2157 -0.2759
  109OSM   H18F11317   0.014   6.050   8.438 -1.0606  1.3951  0.8590
  109OSM   H18G11318  -0.157   5.988   8.489  0.1676  1.5444 -1.8612
  109OSM   H18H11319  -0.027   5.875   8.445 -0.5947 -0.9190  0.9616
  110OSM      N11320   0.882   6.307  10.997 -0.0090 -0.7076  0.6210
  110OSM    C1511321   0.931   6.441  11.027  0.4398  0.4645 -0.5492
  110OSM   H15A11322   1.039   6.445  11.028  0.4981 -1.0384 -1.0272
  110OSM   H15B11323   0.897   6.480  11.122  0.3799  1.9972 -1.1724
  110OSM   H15C11324   0.903   6.507  10.946 -1.4348  0.1621 -0.1639
  110OSM    C1411325   0.959   6.210  11.069 -0.5873 -0.5221 -0.5623
  110OSM   H14A11326   0.934   6.117  11.020  2.5784 -1.1824 -1.0493
  110OSM   H14B11327   0.950   6.216  11.177 -2.5120 -2.6637 -0.5682
  110OSM   H14C11328   1.065   6.224  11.050 -0.9463  1.3068 -1.3084
  110OSM    C1311329   0.741   6.307  11.058 -0.3501 -0.1303  0.4062
  110OSM   H13A11330   0.739   6.317  11.165  1.7567 -0.2829  0.4835
  110OSM   H13B11331   0.711   6.205  11.045  0.7707 -0.4946  0.5805
  110OSM   H13C11332   0.673   6.376  11.010  0.9600  0.4489 -0.6652
  110OSM    C1211333   0.888   6.282  10.844  1.0178 -0.7349 -0.5147
  110OSM   H12A11334   0.823   6.345  10.785  0.0444  1.2683  2.5724
  110OSM   H12B11335   0.847   6.183  10.831 -0.9899  0.0627 -0.4252
  110OSM    C1111336   1.028   6.283  10.783 -0.9687 -0.4366 -0.2073
  110OSM   H11A11337   1.085   6.376  10.805 -1.5792  0.2860 -1.5885
  110OSM   H11B11338   1.034   6.291  10.672  0.3918 -1.5778 -0.2305
  110OSM      P11339   1.057   6.028  10.775  0.0402 -0.1504 -0.0789
  110OSM    O1311340   1.173   5.948  10.821 -0.3627  0.5874  0.0677
  110OSM    O1411341   0.925   6.000  10.835 -0.0516  0.0825  0.4102
  110OSM    O1111342   1.051   6.028  10.615 -0.6443 -0.4101 -0.0686
  110OSM    O1211343   1.102   6.174  10.817  0.6324  0.4873  0.0451
  110OSM    C1S11344   0.938   6.026  10.533 -0.8212  0.5743  0.7900
  110OSM    H1S11345   0.890   6.125  10.540 -0.3671  1.1771 -3.2359
  110OSM    H1T11346   0.864   5.950  10.567  0.7418 -0.5683  1.7322
  110OSM     NF11347   0.830   6.011  10.312  0.0407  0.1641  0.2060
  110OSM    HNF11348   0.767   5.936  10.330 -1.1634  1.4097  1.3311
  110OSM    C2S11349   0.959   6.003  10.377 -0.3617 -0.2235  0.4958
  110OSM    H2S11350   1.021   6.088  10.342 -0.0248 -0.9206 -0.6351
  110OSM    C3S11351   1.041   5.873  10.339  0.3615 -0.3299  0.5304
  110OSM    H3S11352   0.975   5.785  10.358 -1.2956  0.6591 -0.5900
  110OSM     O311353   1.150   5.854  10.426  0.3233 -0.1124  0.0239
  110OSM    HO311354   1.143   5.914  10.500 -2.1813 -0.1810 -0.1163
  110OSM    C4S11355   1.078   5.876  10.196  0.5084 -0.2641  0.4091
  110OSM    H4S11356   1.127   5.971  10.173 -0.4436  0.2448  0.4545
  110OSM    C5S11357   1.062   5.776  10.110  0.2107 -0.2498  0.2913
  110OSM    H5S11358   1.029   5.675  10.142  1.1304 -1.2069 -1.7003
  110OSM    C6S11359   1.089   5.778   9.959 -0.2615  0.1717  0.9464
  110OSM    H6S11360   1.106   5.674   9.924 -1.2600  0.5108 -0.5809
  110OSM    H6T11361   1.175   5.841   9.929  1.1199 -2.3977 -0.6673
  110OSM    C7S11362   0.961   5.830   9.879 -0.6061  0.2004 -0.3191
  110OSM    H7S11363   0.942   5.932   9.916  0.7578 -0.4443  2.2477
  110OSM    H7T11364   0.873   5.764   9.899 -1.0872  1.2246  0.9345
  110OSM    C8S11365   0.974   5.854   9.731 -0.1674  0.1627  0.3592
  110OSM    H8S11366   1.046   5.938   9.718  0.0685 -0.1475 -0.3308
  110OSM    H8T11367   0.881   5.905   9.697 -0.6773 -0.3978  0.8848
  110OSM    C9S11368   1.007   5.729   9.651  0.8947 -0.0892  0.1780
  110OSM    H9S11369   0.916   5.675   9.615  0.0643  1.8629 -0.7091
  110OSM    H9T11370   1.062   5.650   9.707 -0.7713 -0.4153  1.3928
  110OSM   C10S11371   1.072   5.756   9.505  0.9380  1.0798 -0.5454
  110OSM   H10S11372   1.120   5.658   9.485  0.6218  0.6304  0.8393
  110OSM   H10T11373   1.153   5.831   9.517  1.4852  0.1405  1.9666
  110OSM   C11S11374   0.963   5.795   9.402 -0.2975  0.6401 -0.1154
  110OSM   H11S11375   0.898   5.864   9.459  0.8180 -0.4136  2.4830
  110OSM   H11T11376   0.912   5.698   9.381 -1.2912  0.9506  0.8067
  110OSM   C12S11377   1.011   5.852   9.271  0.0860 -0.2710  0.0809
  110OSM   H12S11378   1.064   5.949   9.282 -0.5661  0.1848 -0.6672
  110OSM   H12T11379   0.920   5.883   9.215  1.6818  3.4831 -0.6160
  110OSM   C13S11380   1.100   5.762   9.183 -0.4378 -0.0573  0.4369
  110OSM   H13S11381   1.029   5.687   9.142 -1.5791 -0.0023  2.2398
  110OSM   H13T11382   1.178   5.711   9.243 -0.1119  1.0031  0.9288
  110OSM   C14S11383   1.158   5.826   9.055  0.4866 -0.0700 -0.1381
  110OSM   H14S11384   1.217   5.914   9.089 -0.3292  0.4248  0.0165
  110OSM   H14T11385   1.069   5.862   9.000  0.9338 -1.9292 -2.1529
  110OSM   C15S11386   1.244   5.717   8.995 -0.2147  0.2893 -0.8098
  110OSM   H15S11387   1.187   5.622   9.002  0.3272  0.0609  0.8045
  110OSM   H15T11388   1.327   5.698   9.067 -0.2576  0.7732 -0.6341
  110OSM   C16S11389   1.294   5.741   8.854  0.1776  0.3195 -0.6282
  110OSM   H16S11390   1.204   5.751   8.789 -0.5028  1.6671  0.5089
  110OSM   H16T11391   1.363   5.663   8.815  0.3061  0.6339 -1.0356
  110OSM   C17S11392   1.359   5.878   8.844 -0.9502 -0.3238 -0.1412
  110OSM   H17S11393   1.434   5.888   8.925 -2.0257 -1.0573  0.9550
  110OSM   H17T11394   1.283   5.954   8.871 -1.0926 -0.7189  0.5744
  110OSM   C18S11395   1.411   5.909   8.708  0.1553  0.5632 -0.0658
  110OSM   H18S11396   1.495   5.844   8.675 -0.6757 -0.5036 -0.1401
  110OSM   H18T11397   1.442   6.014   8.693  1.5695 -0.1089 -2.0966
  110OSM   H18U11398   1.330   5.888   8.634  0.5873  2.2434 -1.0193
  110OSM    C1F11399   0.764   6.128  10.303  0.0848 -1.1951  0.5434
  110OSM     OF11400   0.820   6.233  10.323  0.4715  0.5902 -0.0091
  110OSM    C2F11401   0.622   6.130  10.248  0.6476 -0.0451 -0.2749
  110OSM    H2F11402   0.548   6.132  10.331  0.3698  0.6691 -0.5435
  110OSM    H2G11403   0.609   6.033  10.195  0.9761  0.3116 -1.0079
  110OSM    C3F11404   0.587   6.247  10.149 -0.0010  0.9305 -0.2468
  110OSM    H3F11405   0.625   6.329  10.214 -0.4223 -0.3325  1.6475
  110OSM    H3G11406   0.478   6.262  10.134 -0.2494 -0.7960 -0.2735
  110OSM    C4F11407   0.656   6.243  10.012 -0.2221 -0.3139  0.4902
  110OSM    H4F11408   0.745   6.176  10.018  1.0882  1.4324  0.7654
  110OSM    H4G11409   0.698   6.345  10.003 -0.9398 -0.2606 -2.9037
  110OSM    C5F11410   0.562   6.227   9.889 -0.3566 -0.3418  0.0780
  110OSM    H5F11411   0.482   6.304   9.890 -1.7694 -1.7539 -0.4505
  110OSM    H5G11412   0.520   6.125   9.902  1.8423 -1.0808  1.4720
  110OSM    C6F11413   0.641   6.261   9.757  0.7392  0.1734  0.1137
  110OSM    H6F11414   0.705   6.171   9.747  2.0624  1.1820 -0.7078
  110OSM    H6G11415   0.698   6.354   9.777  0.1624  0.4553  0.4532
  110OSM    C7F11416   0.550   6.280   9.631 -0.3658  0.0760  0.3303
  110OSM    H7F11417   0.601   6.343   9.554 -1.1026  0.9921  0.5814
  110OSM    H7G11418   0.471   6.355   9.650 -1.3459 -0.7160 -0.6018
  110OSM    C8F11419   0.497   6.148   9.568 -0.0146  0.2624  0.1740
  110OSM    H8F11420   0.418   6.184   9.499  0.8039  1.4792 -0.1480
  110OSM    H8G11421   0.450   6.084   9.646 -0.4079 -1.5939 -1.5471
  110OSM    C9F11422   0.606   6.070   9.495 -1.1055 -0.5909  0.1482
  110OSM    H9F11423   0.659   5.992   9.552 -0.4515 -1.1233 -1.1811
  110OSM   C10F11424   0.633   6.070   9.370  0.2941  0.4935 -0.1178
  110OSM   H10F11425   0.712   6.006   9.329 -1.7194 -2.1191 -0.0435
  110OSM   C11F11426   0.566   6.162   9.266 -0.1111  0.3807 -0.7798
  110OSM   H11F11427   0.460   6.181   9.296 -0.3840 -0.7994 -0.9847
  110OSM   H11G11428   0.568   6.108   9.169  0.0378 -1.1931  0.0852
  110OSM   C12F11429   0.632   6.303   9.271 -0.5071  0.4937 -0.3909
  110OSM   H12F11430   0.669   6.323   9.374 -2.5460 -1.9074  0.8678
  110OSM   H12G11431   0.547   6.372   9.252  0.8177  2.3186  0.1546
  110OSM   C13F11432   0.731   6.338   9.154 -0.3660  0.2438 -0.3098
  110OSM   H13F11433   0.775   6.439   9.169  0.5221 -0.2947  0.9263
  110OSM   H13G11434   0.668   6.333   9.063 -1.7882  1.9052  0.5587
  110OSM   C14F11435   0.838   6.231   9.127  0.0346 -0.0833 -0.9324
  110OSM   H14F11436   0.784   6.135   9.136 -0.4788  0.4080  1.3625
  110OSM   H14G11437   0.924   6.231   9.197  0.4822 -0.8484 -1.4685
  110OSM   C15F11438   0.902   6.235   8.980  0.3858 -0.8197  0.2209
  110OSM   H15F11439   0.966   6.325   8.970 -1.4758  0.4759 -0.2193
  110OSM   H15G11440   0.811   6.245   8.917  0.5712 -0.3112  0.0320
  110OSM   C16F11441   0.956   6.098   8.927  0.1737  0.2069 -0.2485
  110OSM   H16F11442   0.884   6.015   8.944  0.0820  0.1249 -1.0171
  110OSM   H16G11443   1.043   6.079   8.994 -0.4561 -0.5894  0.3421
  110OSM   C17F11444   0.981   6.085   8.779 -0.7093 -0.1697  0.6500
  110OSM   H17F11445   0.995   5.980   8.747  0.2063  0.6566 -1.7679
  110OSM   H17G11446   1.071   6.133   8.736 -0.3134 -2.5135 -1.2029
  110OSM   C18F11447   0.868   6.144   8.690 -0.0317 -0.0301  0.0957
  110OSM   H18F11448   0.766   6.112   8.719  0.2017  0.2661  1.2749
  110OSM   H18G11449   0.894   6.120   8.585  3.1832  1.0899  0.5671
  110OSM   H18H11450   0.859   6.254   8.695 -0.1546  0.0080 -0.8722
  111OSM      N11451   1.475   2.913  11.023 -0.2021  0.5488  0.1082
  111OSM    C1511452   1.514   3.050  10.971 -0.6092 -0.8596 -0.8157
  111OSM   H15A11453   1.505   3.118  11.054  0.2997  0.6438 -1.9280
  111OSM   H15B11454   1.446   3.083  10.895 -1.5207  1.5300  0.9791
  111OSM   H15C11455   1.618   3.046  10.942 -0.6245  0.8756 -1.1708
  111OSM    C1411456   1.577   2.858  11.122 -0.0835 -0.4618 -0.2167
  111OSM   H14A11457   1.589   2.923  11.207 -0.6471 -1.4670  0.6393
  111OSM   H14B11458   1.671   2.829  11.078 -0.3464 -0.8568 -0.5196
  111OSM   H14C11459   1.553   2.762  11.164  3.1672 -1.0898  0.3296
  111OSM    C1311460   1.353   2.941  11.099  0.2419 -0.2943  0.2273
  111OSM   H13A11461   1.382   2.982  11.195 -0.1085  1.5150 -0.4203
  111OSM   H13B11462   1.282   2.859  11.103 -1.6068  1.2380  0.0412
  111OSM   H13C11463   1.289   3.015  11.051  0.4914  0.3814  0.9155
  111OSM    C1211464   1.461   2.825  10.897  0.5188 -0.2977  0.8589
  111OSM   H12A11465   1.384   2.869  10.836 -1.4081 -3.0527  1.2128
  111OSM   H12B11466   1.437   2.723  10.922 -0.2822 -0.9024 -2.2051
  111OSM    C1111467   1.587   2.805  10.810  0.0877  0.1366 -0.4133
  111OSM   H11A11468   1.633   2.902  10.785 -1.6812  0.7489 -1.3738
  111OSM   H11B11469   1.554   2.767  10.711 -0.1432 -0.6355 -0.0438
  111OSM      P11470   1.711   2.574  10.825  0.2504  0.4094 -0.5527
  111OSM    O1311471   1.760   2.492  10.944 -0.3726 -0.8163 -0.1708
  111OSM    O1411472   1.593   2.521  10.755 -0.2550 -0.4369  0.2252
  111OSM    O1111473   1.827   2.610  10.720 -0.1691  0.3896 -0.3212
  111OSM    O1211474   1.672   2.717  10.873 -0.7705 -0.1419 -0.2283
  111OSM    C1S11475   1.845   2.545  10.590  0.0875 -0.4308 -0.1155
  111OSM    H1S11476   1.779   2.456  10.577  1.4162 -1.4888  0.2569
  111OSM    H1T11477   1.948   2.505  10.582  0.5333  0.4516  1.0687
  111OSM     NF11478   1.835   2.584  10.345 -0.0021  0.0409  0.1905
  111OSM    HNF11479   1.922   2.597  10.298 -0.5920  0.5991 -0.7527
  111OSM    C2S11480   1.825   2.645  10.476 -0.4699  0.0312  0.1173
  111OSM    H2S11481   1.727   2.696  10.489 -1.0481 -0.9820 -0.2663
  111OSM    C3S11482   1.927   2.761  10.480  0.5954 -0.1971 -0.1713
  111OSM    H3S11483   2.026   2.713  10.462  1.5123  0.7379  2.1700
  111OSM     O311484   1.924   2.817  10.605  0.4448 -0.1871 -0.1367
  111OSM    HO311485   1.877   2.750  10.654  0.2459  0.5145  0.6446
  111OSM    C4S11486   1.901   2.873  10.377  0.2881  0.1579 -0.0819
  111OSM    H4S11487   1.831   2.948  10.417  1.5876  0.8257  1.0178
  111OSM    C5S11488   1.934   2.882  10.248  0.4866 -0.2646 -0.3509
  111OSM    H5S11489   1.997   2.800  10.210 -0.9550 -1.7746  0.4023
  111OSM    C6S11490   1.895   2.985  10.151  0.3102  0.2363  0.8743
  111OSM    H6S11491   1.987   3.004  10.092  0.5085 -0.5658  0.9219
  111OSM    H6T11492   1.865   3.080  10.201  1.3727  0.4115  1.2052
  111OSM    C7S11493   1.788   2.926  10.052 -0.6449  0.7376  0.6235
  111OSM    H7S11494   1.823   2.827  10.018  1.0120  1.7652 -0.7477
  111OSM    H7T11495   1.785   2.994   9.964 -0.4334  0.9442  0.7734
  111OSM    C8S11496   1.638   2.918  10.101  0.0341 -0.6185  0.0679
  111OSM    H8S11497   1.631   3.003  10.173 -1.9344 -1.6706  1.1549
  111OSM    H8T11498   1.627   2.830  10.167 -1.1331 -0.6596 -0.1667
  111OSM    C9S11499   1.529   2.921  10.004  0.4688 -0.6468  1.0414
  111OSM    H9S11500   1.562   2.990   9.923 -0.3690 -2.3981 -0.8641
  111OSM    H9T11501   1.450   2.969  10.066 -0.5262 -1.4113  0.4029
  111OSM   C10S11502   1.469   2.788   9.966  0.5677 -0.4044  0.9071
  111OSM   H10S11503   1.372   2.795   9.913  1.4526  0.3859 -0.6364
  111OSM   H10T11504   1.447   2.735  10.061 -2.1706 -0.7187  0.1379
  111OSM   C11S11505   1.560   2.707   9.873  0.4057 -0.1382  0.8345
  111OSM   H11S11506   1.504   2.614   9.847  0.7149 -0.4085  1.1444
  111OSM   H11T11507   1.648   2.669   9.928  0.9950 -0.0080 -0.0016
  111OSM   C12S11508   1.595   2.786   9.744 -0.1766  0.3583  0.5461
  111OSM   H12S11509   1.657   2.875   9.769  2.8279 -1.4941 -0.1104
  111OSM   H12T11510   1.496   2.818   9.705 -1.5100 -2.8751  1.0505
  111OSM   C13S11511   1.661   2.713   9.627 -0.2067 -0.6285 -0.5448
  111OSM   H13S11512   1.749   2.666   9.677  0.8553  3.1901  1.3786
  111OSM   H13T11513   1.698   2.799   9.566  0.2563  1.7946  2.9966
  111OSM   C14S11514   1.579   2.623   9.534  0.3171 -0.1316 -0.1890
  111OSM   H14S11515   1.504   2.686   9.482 -0.5989  0.2213  1.5018
  111OSM   H14T11516   1.526   2.545   9.594  0.0929  0.5363  0.4991
  111OSM   C15S11517   1.664   2.545   9.435 -0.6709 -0.4087 -0.1240
  111OSM   H15S11518   1.708   2.456   9.485 -3.1309 -0.5041  1.9262
  111OSM   H15T11519   1.731   2.611   9.376  1.7530 -3.3014 -0.7098
  111OSM   C16S11520   1.579   2.493   9.320 -0.3734 -0.1968 -0.5667
  111OSM   H16S11521   1.534   2.570   9.254 -0.5655  0.3929  0.2514
  111OSM   H16T11522   1.496   2.445   9.376 -1.4530 -0.9899 -2.7513
  111OSM   C17S11523   1.649   2.381   9.244  0.5651 -0.9211 -0.7922
  111OSM   H17S11524   1.685   2.301   9.313 -1.9112 -1.2498  0.1537
  111OSM   H17T11525   1.724   2.429   9.178  1.7380  1.6524  2.2435
  111OSM   C18S11526   1.561   2.305   9.143  0.0704 -0.2457 -0.3504
  111OSM   H18S11527   1.526   2.373   9.063  0.8617  1.9986  1.1655
  111OSM   H18T11528   1.474   2.256   9.191 -0.2704 -1.0533 -1.7737
  111OSM   H18U11529   1.631   2.230   9.099  1.4692  0.5012  0.5332
  111OSM    C1F11530   1.740   2.511  10.292  0.4047  0.5144 -0.1691
  111OSM     OF11531   1.640   2.469  10.353  0.1518 -0.8982  0.4898
  111OSM    C2F11532   1.763   2.473  10.150  0.5840 -0.5557  0.4264
  111OSM    H2F11533   1.859   2.420  10.135 -0.0912 -1.1099 -2.3041
  111OSM    H2G11534   1.762   2.564  10.086  2.9833 -1.4139 -0.9151
  111OSM    C3F11535   1.654   2.372  10.095 -0.3328 -0.0170 -0.8986
  111OSM    H3F11536   1.555   2.421  10.090 -1.4499 -2.1767 -0.7209
  111OSM    H3G11537   1.653   2.280  10.157 -1.0193 -0.9156 -2.2016
  111OSM    C4F11538   1.687   2.316   9.956  0.0249 -0.0191  0.2445
  111OSM    H4F11539   1.790   2.273   9.956 -0.3266 -0.8885  1.1611
  111OSM    H4G11540   1.686   2.399   9.882 -0.4083  0.6049  0.9393
  111OSM    C5F11541   1.590   2.206   9.910  0.5116  0.0746  0.0303
  111OSM    H5F11542   1.496   2.251   9.949  1.0814 -0.7064  2.3947
  111OSM    H5G11543   1.606   2.108   9.961  0.1301 -0.0842 -0.1504
  111OSM    C6F11544   1.568   2.207   9.765 -0.5938 -0.1051 -0.6608
  111OSM    H6F11545   1.659   2.158   9.726  1.3058  1.8058  1.2545
  111OSM    H6G11546   1.568   2.311   9.725 -0.0899 -0.7377 -2.3452
  111OSM    C7F11547   1.453   2.126   9.705  0.6569 -0.0222  0.4821
  111OSM    H7F11548   1.360   2.187   9.712 -0.5896 -1.9500  1.1636
  111OSM    H7G11549   1.439   2.033   9.763 -0.8441  0.8017  1.4838
  111OSM    C8F11550   1.475   2.111   9.550 -0.3757  0.0531 -0.3041
  111OSM    H8F11551   1.575   2.065   9.540 -1.0264 -1.0701 -1.8874
  111OSM    H8G11552   1.473   2.213   9.506 -0.1849 -0.3553 -1.2677
  111OSM    C9F11553   1.357   2.025   9.503 -0.1968 -0.8837 -0.1852
  111OSM    H9F11554   1.255   2.065   9.512 -0.3485 -0.6948 -2.4857
  111OSM   C10F11555   1.368   1.897   9.473  0.5228  0.3779 -0.7267
  111OSM   H10F11556   1.280   1.836   9.451  0.0885  0.4142  0.8675
  111OSM   C11F11557   1.498   1.818   9.461  0.0158 -0.1811 -0.2482
  111OSM   H11F11558   1.480   1.712   9.489  2.0336 -0.3222  0.5911
  111OSM   H11G11559   1.575   1.856   9.531  2.1293 -2.1754 -1.4234
  111OSM   C12F11560   1.544   1.822   9.319 -0.8333 -0.2093  0.5575
  111OSM   H12F11561   1.638   1.764   9.308 -1.7954 -1.1804 -3.1617
  111OSM   H12G11562   1.578   1.927   9.302 -1.3519 -0.0817  0.3011
  111OSM   C13F11563   1.448   1.768   9.214  0.6927 -0.1158 -0.3569
  111OSM   H13F11564   1.356   1.830   9.221  1.6081  1.2485 -0.2638
  111OSM   H13G11565   1.423   1.666   9.250  1.6474 -1.1091 -2.4219
  111OSM   C14F11566   1.505   1.770   9.071  0.5147  0.3410  0.5206
  111OSM   H14F11567   1.432   1.709   9.013 -0.5126  0.9125  1.2103
  111OSM   H14G11568   1.606   1.724   9.074  0.1498 -0.4593  0.6872
  111OSM   C15F11569   1.523   1.914   9.009  0.1425  0.1022  0.0640
  111OSM   H15F11570   1.615   1.965   9.046 -0.4880  0.5869  1.0280
  111OSM   H15G11571   1.430   1.968   9.039 -0.4661  0.7327 -2.8702
  111OSM   C16F11572   1.543   1.911   8.865  0.4863 -0.2436 -0.0139
  111OSM   H16F11573   1.544   2.015   8.826 -1.5274  0.5721  2.0120
  111OSM   H16G11574   1.459   1.864   8.808  1.3932  0.9356 -2.3775
  111OSM   C17F11575   1.671   1.833   8.831 -0.1765 -0.0442 -0.1541
  111OSM   H17F11576   1.653   1.725   8.813  1.3629 -0.1375 -1.2162
  111OSM   H17G11577   1.748   1.839   8.911  0.4817  2.7897 -0.9586
  111OSM   C18F11578   1.736   1.872   8.690  1.1121  0.0896 -0.1784
  111OSM   H18F11579   1.661   1.863   8.609  2.0754  0.6836 -1.1557
  111OSM   H18G11580   1.824   1.809   8.663  0.8715 -0.4895  0.3730
  111OSM   H18H11581   1.763   1.980   8.693 -0.8858  0.5912  0.6355
  112OSM      N11582   2.504   6.593  11.309  0.0349  0.3919 -0.2202
  112OSM    C1511583   2.445   6.455  11.317 -0.7402  0.0136  0.0278
  112OSM   H15A11584   2.385   6.439  11.229 -1.0103 -2.3668  0.6054
  112OSM   H15B11585   2.378   6.447  11.402 -2.8354 -3.0156 -1.7758
  112OSM   H15C11586   2.523   6.380  11.322  0.5773  1.3911  0.3378
  112OSM    C1411587   2.592   6.619  11.429  0.1679  0.0459  0.2337
  112OSM   H14A11588   2.537   6.595  11.519  0.3746  3.2499  1.2742
  112OSM   H14B11589   2.624   6.722  11.434  1.9052 -0.5004  0.8674
  112OSM   H14C11590   2.683   6.562  11.425  1.2035  1.8224 -2.4386
  112OSM    C1311591   2.591   6.596  11.187 -0.4720 -0.0291 -0.0610
  112OSM   H13A11592   2.527   6.596  11.101 -0.7627  3.4237  0.1031
  112OSM   H13B11593   2.653   6.507  11.187 -0.1583  0.1914 -0.3863
  112OSM   H13C11594   2.652   6.683  11.169 -0.0577 -0.4091 -0.5034
  112OSM    C1211595   2.395   6.698  11.304  0.1366  0.9793  0.4645
  112OSM   H12A11596   2.432   6.795  11.332  1.7948  0.8129 -1.0932
  112OSM   H12B11597   2.326   6.680  11.386 -0.5207  0.5099 -0.1896
  112OSM    C1111598   2.308   6.716  11.174  0.1807 -0.2597 -0.2314
  112OSM   H11A11599   2.369   6.760  11.092  2.2366 -1.5203  0.5940
  112OSM   H11B11600   2.221   6.780  11.202  0.8989  0.3505  0.6432
  112OSM      P11601   2.113   6.525  11.132 -0.2216  0.2874  0.5712
  112OSM    O1311602   2.123   6.380  11.112  0.3336  0.1243 -0.1971
  112OSM    O1411603   2.038   6.580  11.249  0.6257  0.6342  0.4438
  112OSM    O1111604   2.043   6.588  11.003  0.5732  0.0442 -0.4130
  112OSM    O1211605   2.255   6.591  11.130  0.5767  0.1688 -0.6776
  112OSM    C1S11606   2.121   6.651  10.899 -0.6759 -0.0687  0.1205
  112OSM    H1S11607   2.215   6.593  10.894  1.0526  2.6506  0.1427
  112OSM    H1T11608   2.135   6.758  10.924  0.9072 -0.7795  2.3536
  112OSM     NF11609   2.129   6.660  10.640  1.2960  0.0244 -0.0131
  112OSM    HNF11610   2.131   6.751  10.598  2.3505 -1.0215 -2.2741
  112OSM    C2S11611   2.042   6.623  10.759 -0.0811 -0.5033 -0.6151
  112OSM    H2S11612   2.019   6.515  10.755  3.4683 -1.3837  0.9694
  112OSM    C3S11613   1.908   6.701  10.758 -0.3372 -0.6288 -0.0332
  112OSM    H3S11614   1.927   6.807  10.734 -1.5828 -0.1342  1.1316
  112OSM     O311615   1.842   6.686  10.880  0.1961  0.0141 -0.4532
  112OSM    HO311616   1.921   6.671  10.933  0.5265 -0.4470 -1.0754
  112OSM    C4S11617   1.828   6.651  10.642 -0.1714 -0.6769  0.2310
  112OSM    H4S11618   1.844   6.545  10.617  2.4698 -0.2056 -0.2539
  112OSM    C5S11619   1.752   6.733  10.559 -0.5246  1.1524 -0.2861
  112OSM    H5S11620   1.750   6.840  10.585  1.1041  1.1486 -0.0906
  112OSM    C6S11621   1.677   6.694  10.430 -0.6089 -0.1478 -1.1059
  112OSM    H6S11622   1.711   6.744  10.336 -0.4732 -1.5397 -1.8110
  112OSM    H6T11623   1.570   6.717  10.448 -0.9979 -2.4172 -0.3862
  112OSM    C7S11624   1.672   6.540  10.396  0.4501  0.1519 -0.4966
  112OSM    H7S11625   1.606   6.494  10.473 -0.2050  0.6538 -0.7492
  112OSM    H7T11626   1.773   6.499  10.415  0.8702  2.3223  2.4144
  112OSM    C8S11627   1.619   6.509  10.258 -0.2761 -0.1349 -0.1961
  112OSM    H8S11628   1.533   6.576  10.237  0.7964  1.4457  0.3475
  112OSM    H8T11629   1.584   6.405  10.277 -0.5681  0.2809  1.6983
  112OSM    C9S11630   1.735   6.520  10.159 -0.2253 -0.1922  0.3007
  112OSM    H9S11631   1.825   6.462  10.189 -1.1518 -1.6077  0.4036
  112OSM    H9T11632   1.763   6.627  10.159  3.6510 -1.1435 -1.3793
  112OSM   C10S11633   1.695   6.474  10.014 -1.0305  0.7447  0.1852
  112OSM   H10S11634   1.593   6.515   9.998 -0.5988  1.5558 -0.5392
  112OSM   H10T11635   1.676   6.364  10.016  0.9954  0.3278 -1.6007
  112OSM   C11S11636   1.793   6.518   9.902 -0.5168  0.5572 -0.1968
  112OSM   H11S11637   1.886   6.459   9.888  0.1679  2.3764 -3.7708
  112OSM   H11T11638   1.827   6.618   9.935 -0.6870  0.4221  0.4037
  112OSM   C12S11639   1.724   6.518   9.757  0.1828 -0.3577  1.0087
  112OSM   H12S11640   1.631   6.578   9.771  0.9931  1.2569 -0.2659
  112OSM   H12T11641   1.692   6.416   9.729 -1.3477  0.7514 -1.4421
  112OSM   C13S11642   1.813   6.576   9.642  0.4597 -0.3541  0.1406
  112OSM   H13S11643   1.881   6.497   9.603  1.6732  1.5802 -1.7992
  112OSM   H13T11644   1.868   6.669   9.667  1.7562 -1.3536  1.1016
  112OSM   C14S11645   1.724   6.612   9.514 -0.2144 -0.1526 -1.1629
  112OSM   H14S11646   1.648   6.693   9.522  0.8162  0.7469 -0.4588
  112OSM   H14T11647   1.669   6.518   9.491  1.8346 -1.5718 -0.3462
  112OSM   C15S11648   1.818   6.657   9.399 -0.4429 -0.3306 -0.4775
  112OSM   H15S11649   1.909   6.594   9.392 -0.6117 -0.7910  1.2695
  112OSM   H15T11650   1.859   6.758   9.422 -0.1928  0.1497 -2.8696
  112OSM   C16S11651   1.742   6.661   9.269 -0.1698  0.2275  0.2499
  112OSM   H16S11652   1.648   6.716   9.291 -1.3105 -1.2587 -0.8000
  112OSM   H16T11653   1.714   6.558   9.238  0.1135  1.1181 -3.2733
  112OSM   C17S11654   1.806   6.732   9.148  0.0687 -0.6050 -0.5974
  112OSM   H17S11655   1.826   6.826   9.204 -1.0234 -0.7421  0.0537
  112OSM   H17T11656   1.741   6.745   9.059 -1.0856  0.5706  0.3928
  112OSM   C18S11657   1.944   6.677   9.107  0.4474  0.6219 -0.2238
  112OSM   H18S11658   1.996   6.736   9.028  0.6229  0.4319 -0.2501
  112OSM   H18T11659   1.924   6.578   9.061  0.2137  1.5068 -2.0676
  112OSM   H18U11660   2.012   6.663   9.194 -0.5626  0.0555  0.4768
  112OSM    C1F11661   2.225   6.576  10.601 -0.4588 -0.0319 -0.0718
  112OSM     OF11662   2.235   6.466  10.647  0.1246  0.3092 -0.3785
  112OSM    C2F11663   2.319   6.620  10.495 -0.4326 -0.0280  0.4008
  112OSM    H2F11664   2.418   6.638  10.542 -0.6719  1.7867  0.2291
  112OSM    H2G11665   2.302   6.727  10.471  0.9290  0.5207  1.7635
  112OSM    C3F11666   2.339   6.526  10.376 -0.0109  0.2914 -0.8636
  112OSM    H3F11667   2.347   6.421  10.413 -0.5143  0.5658  0.0556
  112OSM    H3G11668   2.436   6.555  10.330  0.6958  1.5749  1.3162
  112OSM    C4F11669   2.236   6.521  10.263  0.4597 -0.1977  0.0513
  112OSM    H4F11670   2.166   6.438  10.286  1.1927 -1.4695 -2.1214
  112OSM    H4G11671   2.301   6.485  10.180  0.3389 -1.5960  0.5490
  112OSM    C5F11672   2.161   6.653  10.242 -0.2231  0.0195 -0.1328
  112OSM    H5F11673   2.230   6.740  10.236 -0.2296  0.2547  2.3866
  112OSM    H5G11674   2.099   6.677  10.331 -2.5160 -0.1850 -1.6462
  112OSM    C6F11675   2.066   6.653  10.117 -0.8300 -0.4774 -0.1650
  112OSM    H6F11676   1.982   6.720  10.144  1.3966  2.3902 -0.0442
  112OSM    H6G11677   2.023   6.555  10.089 -1.4723 -0.8782  2.1415
  112OSM    C7F11678   2.141   6.713   9.996  0.4802  0.3391 -0.0317
  112OSM    H7F11679   2.235   6.654   9.982  1.4605  1.7920  0.2944
  112OSM    H7G11680   2.171   6.811  10.039  3.9350 -1.0764  0.9505
  112OSM    C8F11681   2.051   6.739   9.868 -0.2880  0.4150  0.2842
  112OSM    H8F11682   1.961   6.785   9.915 -2.4039 -2.2436 -1.0291
  112OSM    H8G11683   2.028   6.639   9.826 -0.0307  0.3037  0.4060
  112OSM    C9F11684   2.105   6.834   9.765 -0.1430  0.1880 -0.3464
  112OSM    H9F11685   2.073   6.940   9.763  1.4201  0.6738 -0.5249
  112OSM   C10F11686   2.189   6.796   9.664 -0.6081  0.7859 -0.1925
  112OSM   H10F11687   2.218   6.853   9.574  3.6686 -0.4841  0.2893
  112OSM   C11F11688   2.248   6.655   9.653 -0.4247  0.2286 -0.5039
  112OSM   H11F11689   2.183   6.573   9.615  1.8045 -0.9769 -1.8162
  112OSM   H11G11690   2.276   6.621   9.755  0.7451  0.3706 -0.7685
  112OSM   C12F11691   2.376   6.647   9.576 -0.0757  0.5270 -0.3968
  112OSM   H12F11692   2.426   6.559   9.622 -0.6708  1.8448  2.9325
  112OSM   H12G11693   2.453   6.723   9.602  0.7253  0.1759 -1.6958
  112OSM   C13F11694   2.353   6.638   9.419 -0.7223 -0.5122 -0.2806
  112OSM   H13F11695   2.321   6.739   9.386 -1.0805 -0.4643  0.2160
  112OSM   H13G11696   2.273   6.565   9.399 -2.0955  0.5284  1.2636
  112OSM   C14F11697   2.476   6.591   9.335  0.1453  0.0053  0.6580
  112OSM   H14F11698   2.511   6.488   9.358 -0.7152  0.0464  2.2164
  112OSM   H14G11699   2.563   6.644   9.378 -0.2603  0.7483  0.5680
  112OSM   C15F11700   2.463   6.623   9.184  0.0750  0.4369  0.6082
  112OSM   H15F11701   2.561   6.610   9.133 -0.4239 -1.6802  0.1763
  112OSM   H15G11702   2.431   6.729   9.174  0.1529  0.5083  1.1015
  112OSM   C16F11703   2.365   6.530   9.120  1.0752  0.0463  0.3690
  112OSM   H16F11704   2.262   6.544   9.158  0.8215 -0.7961  0.0039
  112OSM   H16G11705   2.394   6.423   9.125 -0.4966 -0.4553 -0.7261
  112OSM   C17F11706   2.356   6.557   8.970  0.2031  0.3037  0.4987
  112OSM   H17F11707   2.318   6.660   8.953 -0.1907 -0.0874 -1.0391
  112OSM   H17G11708   2.282   6.490   8.920  0.0778  0.4426  0.4994
  112OSM   C18F11709   2.494   6.549   8.890 -0.9265 -0.0960  0.1712
  112OSM   H18F11710   2.558   6.639   8.894  1.1228 -1.4639 -1.1923
  112OSM   H18G11711   2.469   6.539   8.782  1.9042 -1.5622 -0.3899
  112OSM   H18H11712   2.556   6.460   8.916 -0.0130  0.6734  0.6239
  113OSM      N11713   6.441   3.225  10.968 -0.3513 -0.1621 -0.5094
  113OSM    C1511714   6.537   3.144  10.888 -0.1038 -0.0506  0.6852
  113OSM   H15A11715   6.486   3.083  10.815  0.9829 -0.5894  0.3487
  113OSM   H15B11716   6.600   3.071  10.938 -0.4059 -0.9130 -0.1631
  113OSM   H15C11717   6.610   3.206  10.837 -2.4112  1.8513 -0.3932
  113OSM    C1411718   6.363   3.131  11.055 -0.4343  0.4806  0.2833
  113OSM   H14A11719   6.294   3.181  11.121 -0.2228  0.7139  0.3302
  113OSM   H14B11720   6.428   3.081  11.125 -1.6203 -3.2813 -1.1817
  113OSM   H14C11721   6.317   3.058  10.990  2.5260 -0.0398 -1.3617
  113OSM    C1311722   6.507   3.309  11.065  1.0277  0.7557  0.3950
  113OSM   H13A11723   6.578   3.253  11.125 -1.3348 -1.9353  0.7789
  113OSM   H13B11724   6.435   3.343  11.138  0.7972  0.9753  0.0665
  113OSM   H13C11725   6.552   3.400  11.028  1.8931  1.1403  2.3332
  113OSM    C1211726   6.350   3.308  10.881  0.0243 -0.7224 -0.1623
  113OSM   H12A11727   6.272   3.356  10.938  0.3791  1.1243 -1.1739
  113OSM   H12B11728   6.291   3.247  10.815 -0.1620 -0.8832  0.1526
  113OSM    C1111729   6.410   3.414  10.784  1.1973 -0.2419 -0.6155
  113OSM   H11A11730   6.319   3.444  10.727  1.9431  0.4987 -1.4375
  113OSM   H11B11731   6.487   3.358  10.726  1.4183 -0.8876  0.2918
  113OSM      P11732   6.407   3.656  10.912  0.2918 -0.2199 -0.1895
  113OSM    O1311733   6.384   3.630  11.059 -0.6258  0.3427  0.3529
  113OSM    O1411734   6.501   3.761  10.881 -0.7440  0.1673  0.1310
  113OSM    O1111735   6.272   3.681  10.838 -0.0996 -0.3578  0.4789
  113OSM    O1211736   6.469   3.523  10.851 -0.0106 -0.2599  0.0342
  113OSM    C1S11737   6.259   3.754  10.713 -0.3147  0.1841 -0.3662
  113OSM    H1S11738   6.264   3.684  10.627 -0.8049 -0.4120  0.0777
  113OSM    H1T11739   6.333   3.835  10.699 -1.1723  1.0135 -0.1644
  113OSM     NF11740   6.127   3.902  10.569  0.0565  0.0478  0.3911
  113OSM    HNF11741   6.154   3.998  10.562 -0.2208 -0.0608 -3.6544
  113OSM    C2S11742   6.126   3.832  10.697 -0.0674  0.1236  0.1359
  113OSM    H2S11743   6.036   3.767  10.704  0.0535  0.2294  3.0421
  113OSM    C3S11744   6.122   3.937  10.808  0.1914 -0.5564 -0.0783
  113OSM    H3S11745   6.217   3.994  10.803 -0.8234  1.2607  0.7740
  113OSM     O311746   6.125   3.882  10.942  0.3023 -0.3165  0.5203
  113OSM    HO311747   6.162   3.795  10.928  0.5690 -0.2018  0.5073
  113OSM    C4S11748   6.003   4.025  10.807 -0.1867  1.1731  0.9912
  113OSM    H4S11749   5.903   3.989  10.835 -0.3887 -0.3642 -1.6539
  113OSM    C5S11750   6.025   4.149  10.763 -0.0533  0.1327  0.2152
  113OSM    H5S11751   6.124   4.168  10.720  0.0398 -0.3482  0.2092
  113OSM    C6S11752   5.921   4.256  10.759 -0.4399  0.5219  0.4692
  113OSM    H6S11753   5.968   4.350  10.795 -0.7341  0.4480  1.0552
  113OSM    H6T11754   5.839   4.245  10.833 -1.7105  1.1746 -0.8403
  113OSM    C7S11755   5.851   4.278  10.623  0.2442  0.3809  0.0152
  113OSM    H7S11756   5.791   4.372  10.620 -1.1001 -0.4931 -1.6891
  113OSM    H7T11757   5.787   4.191  10.595 -1.8027  1.8253  0.0956
  113OSM    C8S11758   5.954   4.295  10.510 -0.2283 -0.7714 -0.3627
  113OSM    H8S11759   5.992   4.190  10.512 -2.9825 -1.8386 -1.1191
  113OSM    H8T11760   6.032   4.369  10.538 -2.3349  0.6493  1.9556
  113OSM    C9S11761   5.886   4.327  10.378 -0.1805  1.2045  0.5307
  113OSM    H9S11762   5.857   4.433  10.390  0.1209  1.1325  1.9127
  113OSM    H9T11763   5.790   4.276  10.357  0.5546 -0.0504  0.1630
  113OSM   C10S11764   5.979   4.307  10.260  0.2539 -0.2790 -0.0731
  113OSM   H10S11765   6.013   4.202  10.245 -1.7305 -1.0583  0.7474
  113OSM   H10T11766   6.076   4.358  10.280 -0.6203  1.1311  0.6001
  113OSM   C11S11767   5.922   4.358  10.132 -0.0559  0.1885  0.7571
  113OSM   H11S11768   5.926   4.468  10.142  1.9920  0.1179  1.0779
  113OSM   H11T11769   5.817   4.325  10.114  0.0207  0.0288  0.5890
  113OSM   C12S11770   6.000   4.317  10.013 -0.1599  0.5788  0.5610
  113OSM   H12S11771   6.009   4.207   9.997  0.4940  0.7594 -0.3601
  113OSM   H12T11772   6.106   4.352  10.016 -0.5281  1.5844  2.7878
  113OSM   C13S11773   5.949   4.380   9.884  0.1748 -0.3946 -0.2322
  113OSM   H13S11774   5.953   4.491   9.887 -1.0479 -0.3764  1.1651
  113OSM   H13T11775   5.842   4.357   9.866 -0.3286  2.1027 -0.6810
  113OSM   C14S11776   6.021   4.326   9.766  0.1967  0.0402  0.1744
  113OSM   H14S11777   5.988   4.225   9.734  0.0993 -0.2483  1.1637
  113OSM   H14T11778   6.130   4.314   9.787  0.0700  1.7249  1.9949
  113OSM   C15S11779   6.011   4.418   9.650 -0.1741  0.5930  0.4549
  113OSM   H15S11780   6.065   4.513   9.671  1.1284  0.1189 -0.6322
  113OSM   H15T11781   5.904   4.440   9.634 -0.4130  0.9289  2.4336
  113OSM   C16S11782   6.061   4.370   9.511  0.1878 -0.5104  0.1678
  113OSM   H16S11783   6.170   4.351   9.511 -0.0934 -2.1975 -1.2594
  113OSM   H16T11784   6.041   4.457   9.445  2.8290  0.7930  1.0270
  113OSM   C17S11785   5.993   4.247   9.465 -0.1870 -0.7747 -0.8471
  113OSM   H17S11786   5.886   4.276   9.458 -0.0464  0.2258  0.8833
  113OSM   H17T11787   6.001   4.160   9.534 -0.8905 -0.5573 -0.4889
  113OSM   C18S11788   6.051   4.204   9.333  0.0172  0.4526 -0.4009
  113OSM   H18S11789   6.130   4.127   9.346  0.5946  1.1458  0.1957
  113OSM   H18T11790   6.098   4.292   9.284 -1.3357  1.1122 -0.5305
  113OSM   H18U11791   5.981   4.160   9.259 -0.1119 -0.4320  0.2437
  113OSM    C1F11792   6.106   3.838  10.459  0.3675  0.0080  0.2632
  113OSM     OF11793   6.088   3.719  10.460 -0.2198  0.0681  0.0232
  113OSM    C2F11794   6.092   3.918  10.338  0.4400 -0.4197  0.0830
  113OSM    H2F11795   6.164   4.002  10.340  0.6529 -0.6183  0.6449
  113OSM    H2G11796   5.991   3.965  10.338  0.1955 -0.8982 -1.6683
  113OSM    C3F11797   6.112   3.846  10.206 -0.6842  0.9124  0.0348
  113OSM    H3F11798   6.028   3.780  10.176  0.7049  0.9103 -4.2075
  113OSM    H3G11799   6.202   3.782  10.208 -1.7377 -0.5787  0.6442
  113OSM    C4F11800   6.125   3.961  10.100  0.1261 -0.7494  0.1427
  113OSM    H4F11801   6.178   4.045  10.150 -0.5381  0.4680 -1.1507
  113OSM    H4G11802   6.024   4.007  10.092  0.4529  0.7511  3.8721
  113OSM    C5F11803   6.180   3.923   9.963  0.5635  0.2868  0.5477
  113OSM    H5F11804   6.093   3.906   9.895  1.1901  1.2666 -0.5267
  113OSM    H5G11805   6.239   3.830   9.966  0.4609  0.2052  0.1427
  113OSM    C6F11806   6.257   4.030   9.894 -0.1349  0.0189 -0.2275
  113OSM    H6F11807   6.338   4.057   9.965 -0.5733  0.2368  0.1911
  113OSM    H6G11808   6.198   4.124   9.887 -1.6293 -0.7918  1.3576
  113OSM    C7F11809   6.319   3.984   9.758  0.4699 -0.4413  0.0418
  113OSM    H7F11810   6.345   3.876   9.753  0.0551 -0.6308  1.8196
  113OSM    H7G11811   6.415   4.039   9.742  0.7433  0.2310  3.6450
  113OSM    C8F11812   6.246   4.033   9.631  0.0018  0.5372  0.7483
  113OSM    H8F11813   6.308   4.025   9.539 -1.3060  0.0671 -0.1164
  113OSM    H8G11814   6.234   4.144   9.634 -0.1878  0.5346  0.1350
  113OSM    C9F11815   6.116   3.959   9.635  0.3449 -0.1428  0.1963
  113OSM    H9F11816   6.031   4.010   9.683 -0.9135  1.0598 -3.1600
  113OSM   C10F11817   6.093   3.841   9.577  0.2593  0.2797  0.4533
  113OSM   H10F11818   5.993   3.800   9.597 -2.0260  5.6991  0.9180
  113OSM   C11F11819   6.189   3.752   9.505  0.6195 -0.3201 -0.3566
  113OSM   H11F11820   6.208   3.659   9.562  0.8249 -1.6188 -2.4738
  113OSM   H11G11821   6.289   3.801   9.496  1.2354 -1.6199 -0.6511
  113OSM   C12F11822   6.143   3.710   9.363 -0.2028 -0.4546 -0.2395
  113OSM   H12F11823   6.059   3.638   9.376 -1.3366  0.8279 -0.2635
  113OSM   H12G11824   6.222   3.656   9.307  0.3524 -0.1783  0.2739
  113OSM   C13F11825   6.104   3.837   9.276  0.9611  1.0358 -0.2709
  113OSM   H13F11826   6.195   3.901   9.271 -0.4113  2.8970 -2.1094
  113OSM   H13G11827   6.028   3.906   9.318 -1.2017 -0.1370 -2.1253
  113OSM   C14F11828   6.055   3.806   9.134 -0.2089  0.2914 -0.2918
  113OSM   H14F11829   5.971   3.733   9.137 -2.2691  2.5962 -0.7645
  113OSM   H14G11830   6.139   3.775   9.069 -0.1098 -1.9728  0.8545
  113OSM   C15F11831   5.998   3.929   9.063  0.0207  0.2704  0.6259
  113OSM   H15F11832   6.079   4.004   9.054  0.3530 -0.1845 -0.1997
  113OSM   H15G11833   5.924   3.966   9.137  1.2335  1.9041  1.0618
  113OSM   C16F11834   5.929   3.889   8.932 -0.5198 -0.2346  0.0223
  113OSM   H16F11835   5.858   3.812   8.968  1.2651 -0.7150  2.6381
  113OSM   H16G11836   5.996   3.839   8.858  0.1912 -0.2712  0.6788
  113OSM   C17F11837   5.856   4.005   8.871  0.6489  0.3302  0.0712
  113OSM   H17F11838   5.788   4.051   8.946  0.8851  0.7024  0.0616
  113OSM   H17G11839   5.780   3.961   8.802  0.7540  1.6111 -0.8890
  113OSM   C18F11840   5.932   4.121   8.807 -0.2558  0.0514 -0.6990
  113OSM   H18F11841   5.969   4.196   8.880 -3.2951  2.9668 -2.0454
  113OSM   H18G11842   5.854   4.170   8.746 -3.2542 -2.2363  1.1338
  113OSM   H18H11843   6.019   4.080   8.752 -0.4675 -0.7983 -0.4116
  114OSM      N11844   0.488   0.279  10.854 -0.1209 -0.5232 -0.8161
  114OSM    C1511845   0.515   0.423  10.896 -1.4241 -0.0480 -0.4014
  114OSM   H15A11846   0.600   0.426  10.962 -0.3528  2.2218 -1.8657
  114OSM   H15B11847   0.437   0.463  10.959 -0.2358  1.0396  0.3747
  114OSM   H15C11848   0.540   0.487  10.813  0.8527 -2.2294 -1.4792
  114OSM    C1411849   0.371   0.285  10.760  0.0802  0.2343  0.2608
  114OSM   H14A11850   0.395   0.350  10.677  3.3354  0.3496  1.2494
  114OSM   H14B11851   0.284   0.325  10.810  0.1757 -0.4281  0.9699
  114OSM   H14C11852   0.345   0.185  10.728  0.3199 -1.3998  4.7959
  114OSM    C1311853   0.607   0.232  10.771 -0.4004  0.3453 -0.7085
  114OSM   H13A11854   0.622   0.304  10.691  1.5164  0.8101  0.0714
  114OSM   H13B11855   0.586   0.135  10.730 -1.6724  0.8434 -1.2748
  114OSM   H13C11856   0.700   0.222  10.823  0.4040 -1.5778 -2.4460
  114OSM    C1211857   0.462   0.186  10.973  0.1137 -0.2406  0.0859
  114OSM   H12A11858   0.387   0.231  11.037  0.1017 -1.5572  1.0170
  114OSM   H12B11859   0.554   0.183  11.031  0.2594  2.0036  0.0453
  114OSM    C1111860   0.413   0.043  10.934 -1.2038 -0.0178  0.3594
  114OSM   H11A11861   0.322   0.044  10.870 -0.8015 -0.8033 -0.2315
  114OSM   H11B11862   0.390  -0.016  11.025  0.4854 -1.3594 -0.0539
  114OSM      P11863   0.627  -0.113  10.938  0.5002  0.3561 -0.0236
  114OSM    O1311864   0.669  -0.044  11.057 -0.3375 -0.2090 -0.6781
  114OSM    O1411865   0.584  -0.257  10.939 -0.4397  0.9409  0.5399
  114OSM    O1111866   0.742  -0.089  10.839  0.1430  0.2619  0.4433
  114OSM    O1211867   0.515  -0.029  10.862  0.5651 -0.1024  0.6541
  114OSM    C1S11868   0.728  -0.134  10.706  0.4248 -0.4555  0.7902
  114OSM    H1S11869   0.634  -0.092  10.663  1.1119  1.2125  0.8882
  114OSM    H1T11870   0.726  -0.245  10.704  0.8702 -0.4537  0.0844
  114OSM     NF11871   0.826  -0.101  10.486  0.4403  0.3345 -0.1062
  114OSM    HNF11872   0.884  -0.169  10.442 -1.4078 -2.2449  1.3459
  114OSM    C2S11873   0.850  -0.081  10.631 -0.7797  0.2975 -0.2032
  114OSM    H2S11874   0.857   0.027  10.657  0.6251  0.2195 -0.2045
  114OSM    C3S11875   0.980  -0.143  10.682 -0.2193  0.0072  0.0328
  114OSM    H3S11876   0.973  -0.253  10.672  1.5651 -0.1739  0.7239
  114OSM     O311877   1.022  -0.116  10.817  0.1175 -0.1994 -0.4535
  114OSM    HO311878   0.939  -0.077  10.845  0.4468 -0.6477  1.2053
  114OSM    C4S11879   1.090  -0.091  10.596  0.0819  0.0192 -0.0636
  114OSM    H4S11880   1.096   0.016  10.572 -0.1487 -0.3704 -1.9065
  114OSM    C5S11881   1.179  -0.176  10.530 -0.0637 -0.0765  0.2983
  114OSM    H5S11882   1.165  -0.285  10.529 -1.8646  0.1317 -1.6541
  114OSM    C6S11883   1.277  -0.118  10.433 -0.5389  0.1741  0.6749
  114OSM    H6S11884   1.283  -0.198  10.356  2.6725  2.4853 -1.6025
  114OSM    H6T11885   1.372  -0.113  10.490  0.2475 -1.2748 -0.4645
  114OSM    C7S11886   1.251   0.018  10.373 -0.0351  0.0438 -0.0176
  114OSM    H7S11887   1.256   0.095  10.453 -1.0785  1.5090 -1.3122
  114OSM    H7T11888   1.147   0.022  10.333  0.3493 -0.8497 -1.1202
  114OSM    C8S11889   1.352   0.055  10.263  0.1149 -0.2904  0.1837
  114OSM    H8S11890   1.456   0.045  10.301  0.1115 -0.6950  0.0895
  114OSM    H8T11891   1.332   0.164  10.250 -0.4946 -0.3366  0.6866
  114OSM    C9S11892   1.339  -0.025  10.134  0.0940  0.5414  0.3173
  114OSM    H9S11893   1.235  -0.033  10.093  0.4631 -2.8793 -0.1523
  114OSM    H9T11894   1.356  -0.130  10.167 -1.3188  0.1470 -0.1603
  114OSM   C10S11895   1.411   0.017   9.998 -0.8616  0.1966  0.3311
  114OSM   H10S11896   1.521   0.023  10.013 -0.8340 -2.2411  1.4517
  114OSM   H10T11897   1.364   0.117   9.993  1.5840  1.4442  1.2917
  114OSM   C11S11898   1.376  -0.075   9.880 -0.5369  0.0680 -0.1942
  114OSM   H11S11899   1.275  -0.120   9.869 -0.7967  0.7971 -0.8604
  114OSM   H11T11900   1.450  -0.155   9.861  1.8582  2.1427  0.1608
  114OSM   C12S11901   1.393   0.013   9.749  0.4547  0.5638 -0.6675
  114OSM   H12S11902   1.491   0.057   9.721  0.6021  1.2916  0.9278
  114OSM   H12T11903   1.335   0.106   9.767  0.3787  0.8896 -2.5090
  114OSM   C13S11904   1.342  -0.055   9.625 -0.2380  0.2824 -0.0685
  114OSM   H13S11905   1.244  -0.108   9.630  0.2667 -0.6166  0.3948
  114OSM   H13T11906   1.417  -0.132   9.599  1.0720  1.2857  0.6752
  114OSM   C14S11907   1.336   0.044   9.510  0.3475 -0.1183  0.1041
  114OSM   H14S11908   1.417   0.120   9.513  0.0380  0.1928  0.6335
  114OSM   H14T11909   1.237   0.095   9.513  0.7545  0.6699  0.1141
  114OSM   C15S11910   1.318  -0.035   9.384  0.5833 -0.8336  0.1728
  114OSM   H15S11911   1.239  -0.113   9.385 -0.0857 -0.1617  0.1681
  114OSM   H15T11912   1.414  -0.081   9.352 -0.7568 -0.5420 -4.6997
  114OSM   C16S11913   1.284   0.059   9.269 -0.1756  0.4775  0.5040
  114OSM   H16S11914   1.353   0.146   9.275  1.5071 -0.7602 -0.5256
  114OSM   H16T11915   1.178   0.089   9.286  0.8770  3.7200  1.6796
  114OSM   C17S11916   1.301  -0.005   9.132 -0.1280  0.2332  0.3686
  114OSM   H17S11917   1.236  -0.094   9.144 -0.5952  0.4116 -0.8275
  114OSM   H17T11918   1.405  -0.043   9.117  0.4912  1.3720  1.6670
  114OSM   C18S11919   1.246   0.071   9.013  0.1567  0.2375 -0.7452
  114OSM   H18S11920   1.191   0.163   9.042 -3.0305 -1.9446  0.3798
  114OSM   H18T11921   1.192   0.006   8.941  0.1020 -0.1224 -0.3785
  114OSM   H18U11922   1.323   0.118   8.948  0.9183 -0.7014 -0.5320
  114OSM    C1F11923   0.731  -0.038  10.424  0.3724 -0.3177  0.0645
  114OSM     OF11924   0.692   0.072  10.465 -0.2137  0.9460 -0.0066
  114OSM    C2F11925   0.686  -0.103  10.297  0.4046  0.6376  0.1853
  114OSM    H2F11926   0.604  -0.172  10.325  1.2255  0.4735  2.2225
  114OSM    H2G11927   0.769  -0.163  10.254  0.4266 -0.3010  1.5242
  114OSM    C3F11928   0.648  -0.003  10.190 -0.3594  0.1145  0.6779
  114OSM    H3F11929   0.736   0.061  10.169 -0.2885 -0.3029 -0.3638
  114OSM    H3G11930   0.561   0.065  10.206 -0.7731 -0.0124 -0.9279
  114OSM    C4F11931   0.617  -0.068  10.055 -0.1583  0.0743  0.7984
  114OSM    H4F11932   0.532  -0.137  10.075 -0.7976 -0.2159 -2.6100
  114OSM    H4G11933   0.699  -0.139  10.027  0.0343  0.5758  0.0891
  114OSM    C5F11934   0.567   0.028   9.948 -0.4249  0.7066  0.9697
  114OSM    H5F11935   0.644   0.101   9.915 -1.1266  1.3149  0.6563
  114OSM    H5G11936   0.489   0.098   9.983 -2.5330 -0.0595 -2.0269
  114OSM    C6F11937   0.516  -0.043   9.824 -0.1123 -0.4030 -0.1705
  114OSM    H6F11938   0.431  -0.110   9.851 -1.3124  0.8128 -0.8361
  114OSM    H6G11939   0.600  -0.098   9.778 -1.9785 -2.1804 -1.5326
  114OSM    C7F11940   0.464   0.049   9.718 -0.3274  0.4658 -0.5400
  114OSM    H7F11941   0.548   0.107   9.674  0.0059  0.0582 -0.4454
  114OSM    H7G11942   0.397   0.123   9.767 -0.5449 -0.1873  0.1500
  114OSM    C8F11943   0.398  -0.030   9.608 -0.1220 -0.2696 -0.1208
  114OSM    H8F11944   0.337   0.029   9.536 -0.4082  0.6657  0.8764
  114OSM    H8G11945   0.324  -0.106   9.642  1.5289 -1.3953  1.0487
  114OSM    C9F11946   0.493  -0.094   9.519  0.4065  0.8461 -0.7997
  114OSM    H9F11947   0.598  -0.097   9.551 -0.2030  1.2571  1.3047
  114OSM   C10F11948   0.468  -0.154   9.398 -0.2799 -0.3776  0.3772
  114OSM   H10F11949   0.554  -0.210   9.360  1.4354  1.8761  0.8737
  114OSM   C11F11950   0.332  -0.169   9.334 -0.5076 -0.4737 -0.3825
  114OSM   H11F11951   0.250  -0.118   9.390 -1.6408 -0.8119 -1.7049
  114OSM   H11G11952   0.308  -0.277   9.326 -0.8831 -0.3742 -0.6178
  114OSM   C12F11953   0.335  -0.097   9.203  0.9469  0.3722 -0.1870
  114OSM   H12F11954   0.427  -0.116   9.143 -0.4676  0.7289 -2.4980
  114OSM   H12G11955   0.336   0.011   9.228 -0.0710  0.3961 -0.2347
  114OSM   C13F11956   0.211  -0.120   9.118 -0.3892  0.3322 -0.1458
  114OSM   H13F11957   0.120  -0.090   9.174 -1.5284 -1.3701 -1.0270
  114OSM   H13G11958   0.205  -0.230   9.103 -0.1776  0.1279  1.2135
  114OSM   C14F11959   0.214  -0.066   8.971  0.3964 -0.5316 -0.6725
  114OSM   H14F11960   0.320  -0.038   8.950 -0.0983  0.0633 -2.4811
  114OSM   H14G11961   0.157   0.029   8.971 -0.5831 -1.1077  0.9768
  114OSM   C15F11962   0.154  -0.142   8.857  0.0920  0.1881  0.0119
  114OSM   H15F11963   0.051  -0.173   8.885 -0.1352  0.4883 -0.4883
  114OSM   H15G11964   0.217  -0.230   8.834 -0.0567 -0.0258  0.4190
  114OSM   C16F11965   0.122  -0.055   8.726 -0.5400  0.0343 -0.6940
  114OSM   H16F11966   0.045   0.023   8.746  0.6136  1.0726 -0.2020
  114OSM   H16G11967   0.063  -0.118   8.656 -0.9010 -0.8948  0.4479
  114OSM   C17F11968   0.248  -0.005   8.652 -0.1013 -0.2495 -0.6051
  114OSM   H17F11969   0.313  -0.091   8.623 -0.9419 -1.3954  0.8424
  114OSM   H17G11970   0.316   0.041   8.727 -0.3994 -0.0609 -0.4514
  114OSM   C18F11971   0.232   0.073   8.522  0.3688  0.4932 -0.1702
  114OSM   H18F11972   0.183   0.013   8.443  0.1770  1.1009 -0.5090
  114OSM   H18G11973   0.330   0.108   8.483  0.4715 -0.5220 -0.8302
  114OSM   H18H11974   0.167   0.159   8.547 -3.3066 -2.0174 -0.6251
  115OSM      N11975   4.143   5.669  11.308 -0.4860  0.3944  0.5200
  115OSM    C1511976   4.000   5.699  11.336 -0.9971 -0.0223 -0.5884
  115OSM   H15A11977   3.967   5.679  11.437 -1.0095 -0.9606 -0.7761
  115OSM   H15B11978   3.941   5.634  11.274  0.0665 -2.7879  1.2433
  115OSM   H15C11979   3.973   5.800  11.309  0.7768  1.4005  2.6222
  115OSM    C1411980   4.226   5.769  11.386 -0.0676  0.2926 -0.1606
  115OSM   H14A11981   4.303   5.808  11.321  0.1850 -1.4886 -0.9466
  115OSM   H14B11982   4.273   5.731  11.476 -0.8398 -0.1771  0.0488
  115OSM   H14C11983   4.165   5.857  11.402 -1.6858 -0.7170 -0.7080
  115OSM    C1311984   4.177   5.528  11.339 -1.1244 -0.5019  0.1881
  115OSM   H13A11985   4.143   5.454  11.268  0.4576 -1.2712  0.2103
  115OSM   H13B11986   4.126   5.489  11.426 -0.8323 -1.4947 -0.0768
  115OSM   H13C11987   4.284   5.516  11.335 -0.5913  3.1448  1.3348
  115OSM    C1211988   4.170   5.699  11.155 -0.5537  0.3977 -0.6805
  115OSM   H12A11989   4.135   5.799  11.135 -1.8315  0.2891  0.8798
  115OSM   H12B11990   4.097   5.635  11.107  0.6777 -0.2636 -1.7012
  115OSM    C1111991   4.318   5.688  11.103  0.1418 -0.7456  0.5565
  115OSM   H11A11992   4.311   5.667  10.994 -0.8592 -0.4042  0.5491
  115OSM   H11B11993   4.362   5.597  11.151 -1.6991 -1.4854  0.9179
  115OSM      P11994   4.541   5.813  11.091  0.4430  0.1604  0.5160
  115OSM    O1311995   4.585   5.955  11.108 -0.0893 -0.5331 -0.1226
  115OSM    O1411996   4.614   5.706  11.164 -0.4404 -0.5041  0.2269
  115OSM    O1111997   4.525   5.776  10.931 -0.3970  0.6248 -0.5495
  115OSM    O1211998   4.388   5.810  11.136  0.0852 -0.0026 -0.0094
  115OSM    C1S11999   4.461   5.865  10.833  0.1572  0.0062 -0.0273
  115OSM    H1S12000   4.522   5.956  10.815 -1.1534  0.9424  0.1627
  115OSM    H1T12001   4.365   5.898  10.879  1.5352  3.0545  0.8013
  115OSM     NF12002   4.395   5.897  10.594  0.2893  0.7437 -0.8472
  115OSM    HNF12003   4.299   5.905  10.569  0.1159  1.2188 -0.0358
  115OSM    C2S12004   4.439   5.797  10.689  0.2257  0.5342 -0.7164
  115OSM    H2S12005   4.536   5.764  10.646  2.0689  3.4269  1.0230
  115OSM    C3S12006   4.345   5.676  10.704  1.3170  1.6853  0.3102
  115OSM    H3S12007   4.270   5.703  10.782 -2.2694 -2.3075 -1.5692
  115OSM     O312008   4.409   5.561  10.749 -0.0802  0.4030 -0.4895
  115OSM    HO312009   4.495   5.593  10.774 -0.4621  1.4445 -0.4853
  115OSM    C4S12010   4.275   5.635  10.568  0.6489  0.1884 -0.1727
  115OSM    H4S12011   4.177   5.683  10.548  0.4033 -0.1208  0.2916
  115OSM    C5S12012   4.311   5.547  10.472  0.4660  0.7765  0.7170
  115OSM    H5S12013   4.402   5.486  10.483  0.1318  0.3300  1.0330
  115OSM    C6S12014   4.235   5.508  10.347 -0.6072 -0.4006 -0.1279
  115OSM    H6S12015   4.148   5.575  10.330 -0.2109  0.3997  0.9736
  115OSM    H6T12016   4.194   5.406  10.364  0.0754 -0.6821 -0.1657
  115OSM    C7S12017   4.319   5.505  10.218  0.2099 -0.0513  0.3922
  115OSM    H7S12018   4.416   5.451  10.233 -0.8893 -1.5845  2.2418
  115OSM    H7T12019   4.360   5.605  10.195  0.5003 -0.8575 -2.8889
  115OSM    C8S12020   4.243   5.446  10.098  0.1046  0.3665  0.7106
  115OSM    H8S12021   4.149   5.503  10.081 -0.7034 -1.0331  0.3670
  115OSM    H8T12022   4.211   5.344  10.126  0.0334 -0.0433 -0.8236
  115OSM    C9S12023   4.333   5.443   9.971 -0.4167 -0.4470  0.0128
  115OSM    H9S12024   4.431   5.400  10.000 -0.2258 -1.4780 -2.1537
  115OSM    H9T12025   4.366   5.541   9.930  1.4465 -1.1052 -0.0979
  115OSM   C10S12026   4.270   5.366   9.851 -0.0532  0.4569  0.5386
  115OSM   H10S12027   4.164   5.394   9.831  0.2169  2.6065  2.0332
  115OSM   H10T12028   4.286   5.258   9.870 -2.1777  0.0645  0.2377
  115OSM   C11S12029   4.356   5.395   9.724 -0.7919  0.3216 -0.4891
  115OSM   H11S12030   4.461   5.372   9.749 -0.2239  1.2022 -1.9849
  115OSM   H11T12031   4.362   5.503   9.701 -0.6548  1.1916  3.4372
  115OSM   C12S12032   4.308   5.327   9.602  0.5487  0.4237 -0.2169
  115OSM   H12S12033   4.198   5.346   9.596  0.5412  0.5934  0.3543
  115OSM   H12T12034   4.315   5.218   9.618 -1.6461  0.4431  1.1845
  115OSM   C13S12035   4.401   5.355   9.478  0.3058 -0.3426 -0.2143
  115OSM   H13S12036   4.503   5.315   9.496  1.2132  1.8411 -0.2371
  115OSM   H13T12037   4.421   5.463   9.458  0.0387 -0.2439  0.0515
  115OSM   C14S12038   4.339   5.304   9.351  0.2175 -0.0550 -0.6429
  115OSM   H14S12039   4.228   5.310   9.345  0.1601  0.1057  0.5833
  115OSM   H14T12040   4.364   5.196   9.344  1.4223  0.0165  2.1775
  115OSM   C15S12041   4.405   5.355   9.225  0.0875 -0.0509  0.1275
  115OSM   H15S12042   4.515   5.339   9.227  0.0944  0.0485  0.4075
  115OSM   H15T12043   4.394   5.465   9.216  1.2441  0.0687  0.1061
  115OSM   C16S12044   4.336   5.274   9.109  0.2128 -0.2461 -0.4421
  115OSM   H16S12045   4.229   5.301   9.117  0.3878  1.1959 -2.7389
  115OSM   H16T12046   4.342   5.166   9.135  0.3608  0.0879  0.9605
  115OSM   C17S12047   4.394   5.298   8.966  1.3267  0.4402  0.7143
  115OSM   H17S12048   4.494   5.251   8.961  0.6139 -0.8576 -2.0746
  115OSM   H17T12049   4.395   5.409   8.959 -4.3533  0.5299 -0.8041
  115OSM   C18S12050   4.302   5.233   8.865 -0.0056 -0.3176  0.3961
  115OSM   H18S12051   4.196   5.256   8.883  0.0765  0.7041 -0.4009
  115OSM   H18T12052   4.302   5.122   8.878 -1.1677 -0.3993 -0.3102
  115OSM   H18U12053   4.339   5.267   8.765 -0.5050  3.5370  1.4688
  115OSM    C1F12054   4.484   5.995  10.554 -0.2667 -0.1958 -0.0350
  115OSM     OF12055   4.594   6.001  10.602 -0.0217 -0.5625 -0.0199
  115OSM    C2F12056   4.432   6.094  10.458  0.2684 -0.2972  0.3764
  115OSM    H2F12057   4.418   6.195  10.502  2.4892 -0.3827  1.3298
  115OSM    H2G12058   4.328   6.060  10.441 -0.0193 -0.0347  1.5990
  115OSM    C3F12059   4.502   6.095  10.327  0.2331  0.1677  0.0810
  115OSM    H3F12060   4.514   5.995  10.281 -0.8301 -0.4365  1.0925
  115OSM    H3G12061   4.607   6.126  10.344  0.6985 -0.5735 -1.3858
  115OSM    C4F12062   4.451   6.195  10.227 -0.0719  0.1147  0.8599
  115OSM    H4F12063   4.437   6.296  10.269  3.7485  1.0277  0.1180
  115OSM    H4G12064   4.345   6.169  10.206 -0.4566  0.2930  2.5508
  115OSM    C5F12065   4.542   6.186  10.105  0.0227 -0.0720 -0.2936
  115OSM    H5F12066   4.532   6.079  10.075  2.9555 -0.6376  0.5372
  115OSM    H5G12067   4.648   6.202  10.133  0.6432 -2.0746 -1.3288
  115OSM    C6F12068   4.503   6.267   9.985 -0.7781 -1.1564  0.2506
  115OSM    H6F12069   4.504   6.376  10.006 -0.5243 -1.2874  0.9070
  115OSM    H6G12070   4.399   6.239   9.958 -0.6225 -3.3249  1.7216
  115OSM    C7F12071   4.581   6.240   9.856  0.4388 -0.2117 -0.3286
  115OSM    H7F12072   4.595   6.133   9.830  2.2406  0.1216 -0.8553
  115OSM    H7G12073   4.680   6.292   9.861  0.4192 -0.2063 -0.0469
  115OSM    C8F12074   4.516   6.311   9.733  0.5860 -0.0398 -0.4132
  115OSM    H8F12075   4.507   6.415   9.770  0.1417 -0.9496  2.1429
  115OSM    H8G12076   4.410   6.281   9.720  1.1045 -0.4175 -4.3012
  115OSM    C9F12077   4.592   6.293   9.599 -0.1071 -0.3446 -0.1873
  115OSM    H9F12078   4.632   6.191   9.591  0.7890  0.0938 -1.4489
  115OSM   C10F12079   4.604   6.379   9.493  0.8430  0.3353 -0.3036
  115OSM   H10F12080   4.648   6.358   9.395 -1.3499  0.6441 -1.3832
  115OSM   C11F12081   4.549   6.513   9.485  0.3936  0.9318  0.7047
  115OSM   H11F12082   4.630   6.589   9.480  0.4859  0.9733  2.4793
  115OSM   H11G12083   4.489   6.524   9.578 -0.5155  0.0136  0.2338
  115OSM   C12F12084   4.453   6.529   9.366  0.0492  0.7079 -0.3722
  115OSM   H12F12085   4.517   6.511   9.278 -1.1657  3.5630 -1.9126
  115OSM   H12G12086   4.435   6.639   9.359  1.4638  0.8665 -1.6952
  115OSM   C13F12087   4.317   6.451   9.363 -0.2778 -0.0211  0.3152
  115OSM   H13F12088   4.258   6.497   9.445 -2.8656 -2.5118 -0.0704
  115OSM   H13G12089   4.344   6.347   9.391  0.3869 -0.6807 -2.5832
  115OSM   C14F12090   4.250   6.445   9.223  0.5156 -0.1096 -0.4223
  115OSM   H14F12091   4.162   6.378   9.233 -1.3883  2.4295  0.2370
  115OSM   H14G12092   4.318   6.420   9.139  1.5445 -3.3450  1.2458
  115OSM   C15F12093   4.176   6.577   9.193  0.3064 -0.4063  0.5488
  115OSM   H15F12094   4.238   6.668   9.204  0.5843 -0.8623  3.1296
  115OSM   H15G12095   4.102   6.590   9.275  0.1041  3.0499 -0.1379
  115OSM   C16F12096   4.100   6.561   9.061 -0.0215 -0.0101 -0.6573
  115OSM   H16F12097   4.025   6.642   9.048  0.5786  0.6704  0.1215
  115OSM   H16G12098   4.049   6.464   9.083 -0.1126  0.1178 -0.2997
  115OSM   C17F12099   4.185   6.562   8.933  0.2016 -0.3549 -0.2998
  115OSM   H17F12100   4.231   6.462   8.931 -1.4490 -1.1618  1.1515
  115OSM   H17G12101   4.265   6.638   8.944 -0.2714 -0.0476  1.1434
  115OSM   C18F12102   4.111   6.593   8.801 -0.6363 -0.5136 -0.0788
  115OSM   H18F12103   4.021   6.529   8.799 -3.0726  2.7879  0.0019
  115OSM   H18G12104   4.170   6.563   8.711  1.0268 -0.5137  0.9856
  115OSM   H18H12105   4.084   6.700   8.790  3.3092  0.6236  0.6897
  116OSM      N12106   0.709   2.617  11.069  0.3615  0.0766  0.1348
  116OSM    C1512107   0.825   2.633  11.160  0.0576 -0.2851  0.1806
  116OSM   H15A12108   0.816   2.586  11.257  1.3216  2.6030  1.7542
  116OSM   H15B12109   0.841   2.739  11.174  0.4258 -0.6176  2.3113
  116OSM   H15C12110   0.918   2.598  11.118  0.3988  1.3010 -0.4482
  116OSM    C1412111   0.697   2.467  11.035 -0.3999 -0.1419 -0.3760
  116OSM   H14A12112   0.701   2.411  11.127  1.3696  0.2698 -0.1908
  116OSM   H14B12113   0.784   2.425  10.986 -0.1250  0.4739 -0.4284
  116OSM   H14C12114   0.611   2.441  10.975 -0.2723  1.0242 -1.0750
  116OSM    C1312115   0.589   2.658  11.150  0.0434  0.3140 -0.0466
  116OSM   H13A12116   0.612   2.757  11.186  2.1548  0.1017 -0.7698
  116OSM   H13B12117   0.583   2.582  11.227 -2.0006  0.0251 -0.4438
  116OSM   H13C12118   0.502   2.665  11.086 -1.0257  1.5179  1.4915
  116OSM    C1212119   0.727   2.694  10.936 -0.0839  0.5485 -0.0174
  116OSM   H12A12120   0.737   2.802  10.943 -2.2986  0.7858 -0.3093
  116OSM   H12B12121   0.637   2.687  10.878  0.0521 -0.8621 -0.0780
  116OSM    C1112122   0.850   2.643  10.843 -0.4950  0.1305 -0.1009
  116OSM   H11A12123   0.835   2.698  10.748 -2.6381  0.7383  0.5340
  116OSM   H11B12124   0.820   2.540  10.813 -0.3439  0.2881 -0.7970
  116OSM      P12125   1.104   2.713  10.847  0.1958  0.2377  0.2600
  116OSM    O1312126   1.101   2.860  10.852 -1.0636  0.4080  0.0077
  116OSM    O1412127   1.231   2.649  10.901 -0.3179  0.0249  0.1753
  116OSM    O1112128   1.093   2.681  10.693  0.1106  0.6743  0.0548
  116OSM    O1212129   0.981   2.656  10.912 -0.0594  0.0604 -0.4980
  116OSM    C1S12130   1.203   2.667  10.612 -0.5114 -0.5322 -0.4010
  116OSM    H1S12131   1.231   2.559  10.616  2.3823 -0.0238 -3.8242
  116OSM    H1T12132   1.292   2.723  10.645 -0.9362  1.0707 -1.9037
  116OSM     NF12133   1.249   2.651  10.376  0.6298  0.1638 -0.1253
  116OSM    HNF12134   1.339   2.694  10.373  0.3069  0.7847 -1.2065
  116OSM    C2S12135   1.163   2.713  10.474 -1.0762 -0.0251  0.5765
  116OSM    H2S12136   1.061   2.686  10.439 -1.2963  1.1886  0.2834
  116OSM    C3S12137   1.158   2.866  10.461 -0.6751  0.4414  0.9058
  116OSM    H3S12138   1.255   2.921  10.464 -0.7979  0.7527 -0.7313
  116OSM     O312139   1.083   2.938  10.555  0.4502  0.2550  0.1002
  116OSM    HO312140   1.056   2.880  10.627  0.2237 -0.4551 -0.5448
  116OSM    C4S12141   1.111   2.907  10.328 -0.2740  0.0747 -0.0908
  116OSM    H4S12142   1.020   2.856  10.293  1.4612 -2.8699 -0.5079
  116OSM    C5S12143   1.162   3.006  10.258 -0.0235 -0.0833 -0.3923
  116OSM    H5S12144   1.244   3.068  10.298 -0.3206  0.3423 -0.4408
  116OSM    C6S12145   1.114   3.048  10.126  0.4528 -0.4763  0.1014
  116OSM    H6S12146   1.196   3.096  10.068 -0.6012 -1.3227 -2.1702
  116OSM    H6T12147   1.036   3.126  10.142  0.4128 -0.3461 -0.7227
  116OSM    C7S12148   1.050   2.939  10.037 -0.4581  0.4621  0.0349
  116OSM    H7S12149   0.971   2.890  10.097  0.6465 -1.9795 -0.4426
  116OSM    H7T12150   1.118   2.852  10.019 -1.9360 -0.5030 -0.9908
  116OSM    C8S12151   0.998   2.995   9.907  0.1612 -0.8214  0.5102
  116OSM    H8S12152   1.086   3.044   9.861  0.6192 -2.6968 -0.6752
  116OSM    H8T12153   0.924   3.076   9.926 -0.2019 -1.5635  2.3773
  116OSM    C9S12154   0.946   2.899   9.801 -0.5146  0.1346  0.9372
  116OSM    H9S12155   0.865   2.845   9.856  0.7423  0.6389  3.3621
  116OSM    H9T12156   1.022   2.825   9.768 -0.2294  2.5341 -4.1665
  116OSM   C10S12157   0.900   2.966   9.668 -0.3126 -0.1670  0.2273
  116OSM   H10S12158   0.810   3.027   9.686 -1.0693 -0.9051 -0.9807
  116OSM   H10T12159   0.872   2.877   9.607  1.4781 -0.2613 -0.4852
  116OSM   C11S12160   1.001   3.049   9.597 -0.8076 -0.9452  0.2296
  116OSM   H11S12161   1.091   2.993   9.565  1.1143  1.3201  1.4930
  116OSM   H11T12162   1.037   3.127   9.668 -0.4227 -1.2422  0.3629
  116OSM   C12S12163   0.944   3.107   9.467 -0.4031  0.2447  0.3606
  116OSM   H12S12164   1.015   3.174   9.414 -1.1641  0.4420 -0.4125
  116OSM   H12T12165   0.865   3.177   9.504  0.4214  2.3684 -1.7825
  116OSM   C13S12166   0.889   3.018   9.354  0.0000  0.3477 -0.6123
  116OSM   H13S12167   0.781   2.994   9.369  0.2901 -1.8403 -1.8769
  116OSM   H13T12168   0.938   2.919   9.350 -1.8155 -0.6226  0.5262
  116OSM   C14S12169   0.896   3.088   9.222  0.0080  0.1097  0.6254
  116OSM   H14S12170   1.002   3.083   9.191 -0.2524  0.7545 -0.4096
  116OSM   H14T12171   0.856   3.191   9.227  2.3869  0.9318  4.1608
  116OSM   C15S12172   0.816   3.017   9.109  0.2793  0.3515  0.3684
  116OSM   H15S12173   0.711   3.003   9.143 -0.8683 -0.8481 -3.4057
  116OSM   H15T12174   0.858   2.914   9.102 -1.9605 -0.5007 -1.3505
  116OSM   C16S12175   0.843   3.076   8.970  0.1337 -0.3052  0.9237
  116OSM   H16S12176   0.946   3.041   8.949  0.0156 -0.2279  0.1851
  116OSM   H16T12177   0.839   3.186   8.987 -1.2125  0.1736 -2.0734
  116OSM   C17S12178   0.742   3.033   8.861 -0.4283 -0.7665  0.6344
  116OSM   H17S12179   0.717   2.925   8.867  0.2130 -0.8121  3.0271
  116OSM   H17T12180   0.784   3.045   8.759 -1.7136  2.9762  0.4616
  116OSM   C18S12181   0.628   3.136   8.866  0.5462 -0.3469  0.2510
  116OSM   H18S12182   0.557   3.108   8.785  1.0339 -0.6293 -0.0858
  116OSM   H18T12183   0.671   3.236   8.840  1.1691 -0.4179  0.9930
  116OSM   H18U12184   0.576   3.143   8.964  0.5034 -1.4746  0.3067
  116OSM    C1F12185   1.224   2.529  10.328 -0.6963  1.1319 -0.5365
  116OSM     OF12186   1.122   2.467  10.365  0.1704  0.2061  0.1446
  116OSM    C2F12187   1.327   2.468  10.230  0.4384 -0.3096 -1.0242
  116OSM    H2F12188   1.373   2.378  10.277  3.4502  3.2005  3.1183
  116OSM    H2G12189   1.405   2.545  10.218 -0.2812  0.5260 -0.4026
  116OSM    C3F12190   1.260   2.423  10.100  0.0639  0.0518  0.2239
  116OSM    H3F12191   1.197   2.339  10.137  0.4439  0.6744  2.3058
  116OSM    H3G12192   1.340   2.385  10.033  0.5106  0.0256  0.7691
  116OSM    C4F12193   1.177   2.544  10.043 -0.3475 -0.3897  0.4672
  116OSM    H4F12194   1.249   2.627  10.021 -0.3601 -0.1738  1.2167
  116OSM    H4G12195   1.103   2.586  10.114 -0.8680 -0.6345  0.0738
  116OSM    C5F12196   1.096   2.508   9.916  0.3451  0.0336 -0.0428
  116OSM    H5F12197   1.014   2.582   9.909  1.6105  1.4269 -0.5229
  116OSM    H5G12198   1.048   2.410   9.937  1.5318 -0.3206  1.1334
  116OSM    C6F12199   1.178   2.532   9.794  0.1610  0.4433  0.7145
  116OSM    H6F12200   1.280   2.488   9.790  0.1631  0.5719 -1.0093
  116OSM    H6G12201   1.188   2.643   9.794 -0.7949  0.5484  2.5092
  116OSM    C7F12202   1.102   2.482   9.672  0.0089  0.0223 -0.2236
  116OSM    H7F12203   1.011   2.544   9.657  2.1965  2.8826 -2.3485
  116OSM    H7G12204   1.073   2.377   9.694 -0.3500  0.4233  1.2827
  116OSM    C8F12205   1.201   2.483   9.549 -0.7858 -0.0821 -0.3205
  116OSM    H8F12206   1.145   2.427   9.472 -1.5478  0.0744  0.1151
  116OSM    H8G12207   1.289   2.423   9.581 -1.1884 -1.5425 -1.9060
  116OSM    C9F12208   1.221   2.624   9.502  0.0419  0.8081 -0.1709
  116OSM    H9F12209   1.248   2.686   9.589  0.0191  0.2519  0.2314
  116OSM   C10F12210   1.201   2.675   9.377  0.3138 -0.5894  0.3517
  116OSM   H10F12211   1.217   2.782   9.357  0.5754 -0.7332 -0.2182
  116OSM   C11F12212   1.164   2.586   9.263  0.0348  0.0743 -0.3293
  116OSM   H11F12213   1.064   2.541   9.282  0.5258 -0.1830  1.7082
  116OSM   H11G12214   1.243   2.510   9.243 -0.2109 -0.9900  2.5599
  116OSM   C12F12215   1.162   2.669   9.137 -0.0666 -0.8045  0.1098
  116OSM   H12F12216   1.258   2.724   9.121 -0.0758 -0.6794  0.4683
  116OSM   H12G12217   1.093   2.755   9.154  0.7053  0.1965 -1.7172
  116OSM   C13F12218   1.102   2.602   9.009  0.1465 -0.4336 -0.2646
  116OSM   H13F12219   1.001   2.560   9.029  0.6148 -0.1526  2.9314
  116OSM   H13G12220   1.172   2.520   8.984  1.3937 -0.3485  2.7743
  116OSM   C14F12221   1.101   2.702   8.889 -0.8957 -0.1623 -0.4058
  116OSM   H14F12222   1.207   2.729   8.871 -0.6587 -0.8327 -0.0468
  116OSM   H14G12223   1.045   2.797   8.904  0.7059  0.7269  0.0875
  116OSM   C15F12224   1.030   2.637   8.770  0.8802  0.1508  0.5042
  116OSM   H15F12225   0.939   2.583   8.801 -0.6811  0.9491 -2.4412
  116OSM   H15G12226   1.107   2.572   8.723  0.3687 -0.3613  0.3723
  116OSM   C16F12227   0.979   2.747   8.657 -0.0691  0.2982 -0.8542
  116OSM   H16F12228   0.888   2.789   8.706 -0.2546 -0.7012 -0.3432
  116OSM   H16G12229   0.954   2.679   8.573  0.3416  0.1442 -0.8526
  116OSM   C17F12230   1.074   2.853   8.610 -0.2017 -0.5164 -0.0679
  116OSM   H17F12231   1.117   2.915   8.692 -2.0487  1.0958 -0.2569
  116OSM   H17G12232   1.016   2.921   8.544  1.4603 -0.4931 -1.5211
  116OSM   C18F12233   1.177   2.802   8.509 -0.7520  0.0841  0.1752
  116OSM   H18F12234   1.262   2.870   8.486  0.4251 -1.9220 -1.4844
  116OSM   H18G12235   1.138   2.793   8.406 -0.3485 -0.2689  0.0552
  116OSM   H18H12236   1.219   2.706   8.546 -2.6570 -0.8051  0.0730
  117OSM      N12237   5.837   3.779  11.212 -0.3120  0.3020 -0.4821
  117OSM    C1512238   5.910   3.898  11.164 -0.4698 -0.2010  0.1353
  117OSM   H15A12239   6.001   3.880  11.109 -1.2292 -0.8084 -0.9335
  117OSM   H15B12240   5.951   3.957  11.244 -0.6061  0.1821 -0.0752
  117OSM   H15C12241   5.846   3.963  11.106  0.0939  0.6811  0.4845
  117OSM    C1412242   5.922   3.689  11.292  0.4678 -0.5846  0.0007
  117OSM   H14A12243   6.013   3.660  11.242 -0.7022 -1.4484 -1.6632
  117OSM   H14B12244   5.872   3.599  11.325 -0.0078 -0.3203 -0.0019
  117OSM   H14C12245   5.943   3.749  11.380  0.2757 -2.4593  1.3541
  117OSM    C1312246   5.715   3.828  11.291  0.4154  0.0601  0.7883
  117OSM   H13A12247   5.655   3.902  11.241  1.2431  0.8475  0.9421
  117OSM   H13B12248   5.747   3.871  11.385  1.1472 -1.0553  1.0684
  117OSM   H13C12249   5.656   3.743  11.324 -0.3796  0.1059 -0.5116
  117OSM    C1212250   5.776   3.708  11.096  0.0673  0.3255  0.0977
  117OSM   H12A12251   5.702   3.766  11.044  2.1564  2.0201 -1.0779
  117OSM   H12B12252   5.723   3.624  11.140  0.9894 -1.2036 -1.6403
  117OSM    C1112253   5.860   3.657  10.979 -0.3510  0.0070 -0.6301
  117OSM   H11A12254   5.903   3.736  10.914  0.7407  1.1743  1.4669
  117OSM   H11B12255   5.799   3.598  10.907  1.5930 -0.0902 -2.2394
  117OSM      P12256   5.959   3.415  11.005 -0.2326  0.3552  0.0156
  117OSM    O1312257   6.094   3.359  11.038  0.0384  0.1154 -0.3369
  117OSM    O1412258   5.843   3.363  11.085 -0.4215  0.0758 -0.6083
  117OSM    O1112259   5.929   3.389  10.849  0.6880  0.6108  0.0174
  117OSM    O1212260   5.965   3.566  11.016 -0.1117 -0.3852 -0.2468
  117OSM    C1S12261   6.016   3.436  10.748 -0.2862  0.0131  0.1772
  117OSM    H1S12262   6.115   3.386  10.759 -1.3373 -2.2915 -0.4663
  117OSM    H1T12263   6.044   3.539  10.778  0.2187  0.0550 -0.4220
  117OSM     NF12264   6.059   3.443  10.516  0.1063 -0.6672  0.5724
  117OSM    HNF12265   6.057   3.539  10.491  0.0394 -0.3512  1.7687
  117OSM    C2S12266   5.956   3.413  10.611  0.4281  0.1489  0.2626
  117OSM    H2S12267   5.940   3.303  10.612 -1.9882  0.4649 -0.6696
  117OSM    C3S12268   5.826   3.488  10.591  1.0647 -0.0587 -0.7244
  117OSM    H3S12269   5.850   3.596  10.605 -0.2156  0.1033  0.3153
  117OSM     O312270   5.720   3.459  10.683  0.3999  0.4550 -0.5703
  117OSM    HO312271   5.764   3.428  10.763 -1.0288 -1.6288 -0.5591
  117OSM    C4S12272   5.759   3.467  10.460 -1.4292  0.5581 -0.1678
  117OSM    H4S12273   5.691   3.381  10.465  0.5981 -0.9551  3.4778
  117OSM    C5S12274   5.773   3.556  10.355 -0.1635  1.1324  0.0948
  117OSM    H5S12275   5.833   3.647  10.364 -2.3372  2.5500  0.6119
  117OSM    C6S12276   5.693   3.542  10.239 -0.9139 -0.2123  0.1956
  117OSM    H6S12277   5.639   3.638  10.224  1.2202  0.8264 -1.0931
  117OSM    H6T12278   5.620   3.459  10.246 -0.9209 -0.3726 -1.6480
  117OSM    C7S12279   5.785   3.511  10.122  0.5463 -0.1781  0.2685
  117OSM    H7S12280   5.841   3.416  10.127  0.8970 -0.0964 -1.7578
  117OSM    H7T12281   5.866   3.587  10.124  0.0395  0.3579  0.4935
  117OSM    C8S12282   5.699   3.509   9.993 -0.3941 -0.2554 -0.3383
  117OSM    H8S12283   5.659   3.612   9.977  1.4458  0.8045  1.6510
  117OSM    H8T12284   5.616   3.438  10.013  0.1082 -0.2342  1.9407
  117OSM    C9S12285   5.781   3.464   9.873  0.5245  0.0352 -0.3035
  117OSM    H9S12286   5.816   3.358   9.874  0.3679 -0.0102  0.1072
  117OSM    H9T12287   5.879   3.517   9.870  0.9673 -0.7071  1.0351
  117OSM   C10S12288   5.720   3.502   9.744  1.1686 -0.7487  0.5369
  117OSM   H10S12289   5.683   3.606   9.753  0.9332 -0.6724 -1.0430
  117OSM   H10T12290   5.637   3.433   9.716  0.7074 -0.0567  0.1785
  117OSM   C11S12291   5.819   3.497   9.630  0.8255 -0.0980  0.0299
  117OSM   H11S12292   5.870   3.398   9.624 -0.7308 -0.9626  0.6735
  117OSM   H11T12293   5.891   3.582   9.625  0.2925  0.3329 -0.3373
  117OSM   C12S12294   5.741   3.499   9.500 -0.5216 -0.1061  0.6019
  117OSM   H12S12295   5.677   3.589   9.498 -2.7508 -1.6636  0.1322
  117OSM   H12T12296   5.668   3.416   9.494  1.7864 -2.2975  1.9146
  117OSM   C13S12297   5.816   3.503   9.373  0.1537 -0.0383 -0.2821
  117OSM   H13S12298   5.886   3.418   9.363 -1.6062 -1.4332 -1.2640
  117OSM   H13T12299   5.889   3.586   9.382 -0.3577  0.1176  2.8456
  117OSM   C14S12300   5.731   3.509   9.246 -0.8351 -0.6386  0.5267
  117OSM   H14S12301   5.682   3.607   9.229 -0.7155 -0.7896 -0.7858
  117OSM   H14T12302   5.652   3.435   9.271 -3.2530  1.6776 -0.0360
  117OSM   C15S12303   5.807   3.473   9.119 -0.0876 -0.3251  0.5245
  117OSM   H15S12304   5.864   3.379   9.132  1.7546  0.1455 -3.4391
  117OSM   H15T12305   5.865   3.561   9.083  0.5703 -0.6826  0.6948
  117OSM   C16S12306   5.708   3.440   8.999  0.2802  0.8157 -0.7086
  117OSM   H16S12307   5.646   3.353   9.031 -2.1564  2.5513 -0.5896
  117OSM   H16T12308   5.784   3.418   8.921  0.6979 -1.6862  0.3407
  117OSM   C17S12309   5.627   3.556   8.955  0.0056  0.2291  0.4190
  117OSM   H17S12310   5.689   3.646   8.935 -0.4148  0.5187  0.4170
  117OSM   H17T12311   5.561   3.582   9.040 -1.0027  1.6302 -0.7575
  117OSM   C18S12312   5.561   3.527   8.824 -0.0291 -0.1648 -0.1996
  117OSM   H18S12313   5.635   3.505   8.744 -0.9371 -0.6831 -0.9129
  117OSM   H18T12314   5.500   3.616   8.798 -1.8077 -1.4053 -0.3431
  117OSM   H18U12315   5.492   3.442   8.838  0.3730 -0.5967 -0.8174
  117OSM    C1F12316   6.159   3.360  10.488  0.3292  0.0328  0.1856
  117OSM     OF12317   6.169   3.251  10.543 -0.3697  0.1968 -0.1275
  117OSM    C2F12318   6.267   3.405  10.395  0.8168 -0.6709 -0.5065
  117OSM    H2F12319   6.366   3.384  10.440  0.9904  1.2923  0.0714
  117OSM    H2G12320   6.257   3.515  10.380 -2.6027 -0.8595 -0.0888
  117OSM    C3F12321   6.255   3.330  10.258  0.2370 -0.1452  0.5194
  117OSM    H3F12322   6.264   3.219  10.264 -1.2347 -0.5578 -3.2285
  117OSM    H3G12323   6.337   3.359  10.190  0.5763 -4.3216 -1.0268
  117OSM    C4F12324   6.116   3.351  10.181  0.0281 -0.1092  0.2837
  117OSM    H4F12325   6.106   3.459  10.156 -0.6755 -0.2279  0.0190
  117OSM    H4G12326   6.025   3.314  10.234  0.4225  0.6084  1.4642
  117OSM    C5F12327   6.107   3.280  10.044  0.2900  0.1699 -0.1111
  117OSM    H5F12328   6.002   3.250  10.024  0.5968 -0.0622 -1.4345
  117OSM    H5G12329   6.161   3.183  10.048  1.9039  1.0343 -0.5971
  117OSM    C6F12330   6.181   3.360   9.932 -0.8562 -0.3113 -0.1310
  117OSM    H6F12331   6.284   3.395   9.955 -1.3361  1.8251 -1.1512
  117OSM    H6G12332   6.126   3.455   9.916  0.6737  0.7729  0.8968
  117OSM    C7F12333   6.176   3.297   9.799 -0.3728  0.2340 -0.0602
  117OSM    H7F12334   6.072   3.276   9.768  0.0246 -0.6178 -0.8368
  117OSM    H7G12335   6.228   3.199   9.793  0.7566  0.9279 -2.2885
  117OSM    C8F12336   6.238   3.384   9.695  0.2683  0.5049  0.5500
  117OSM    H8F12337   6.345   3.406   9.716  0.6739  0.3428 -1.2802
  117OSM    H8G12338   6.176   3.476   9.688 -0.8944 -0.2053  1.4478
  117OSM    C9F12339   6.221   3.314   9.558 -0.1848 -0.4589 -0.1555
  117OSM    H9F12340   6.116   3.294   9.530 -0.4051  1.2870 -0.5993
  117OSM   C10F12341   6.325   3.284   9.479 -0.2858 -0.0747  0.6900
  117OSM   H10F12342   6.305   3.238   9.381  2.0937  0.5163 -0.1202
  117OSM   C11F12343   6.464   3.330   9.496 -0.1626  0.0355  0.4500
  117OSM   H11F12344   6.516   3.245   9.545 -1.0575 -0.1964  1.0062
  117OSM   H11G12345   6.487   3.422   9.554  0.4534  0.1593  0.0186
  117OSM   C12F12346   6.522   3.368   9.353 -0.0008 -0.3798 -0.2045
  117OSM   H12F12347   6.504   3.288   9.278  1.1182  0.2995 -1.1998
  117OSM   H12G12348   6.632   3.372   9.367  0.1309 -3.3085  0.0075
  117OSM   C13F12349   6.480   3.501   9.296 -0.3490  0.1926 -0.4660
  117OSM   H13F12350   6.457   3.570   9.380 -4.1642 -2.7146  1.0025
  117OSM   H13G12351   6.383   3.482   9.246 -0.3380  0.9134 -0.7811
  117OSM   C14F12352   6.584   3.581   9.212  0.7346  0.0431 -0.3324
  117OSM   H14F12353   6.668   3.588   9.285  0.0896 -1.7610  0.6143
  117OSM   H14G12354   6.563   3.685   9.180 -0.1605 -0.1183 -0.2710
  117OSM   C15F12355   6.634   3.508   9.078  1.0529  0.3117  0.2236
  117OSM   H15F12356   6.693   3.422   9.117  2.3326  1.0968  0.0717
  117OSM   H15G12357   6.704   3.584   9.038  0.8335  0.3716 -0.0442
  117OSM   C16F12358   6.527   3.490   8.972  0.8008 -0.5714  0.1983
  117OSM   H16F12359   6.458   3.573   8.950 -0.4559 -1.4831  0.6517
  117OSM   H16G12360   6.453   3.410   8.995  0.9159 -0.5334  0.7043
  117OSM   C17F12361   6.606   3.458   8.841 -0.3277  0.4958  0.4104
  117OSM   H17F12362   6.668   3.370   8.867 -1.8567 -0.7702 -0.1674
  117OSM   H17G12363   6.670   3.543   8.809  0.6006  0.3846  1.9111
  117OSM   C18F12364   6.517   3.427   8.726  0.3126 -0.3781  0.6423
  117OSM   H18F12365   6.469   3.327   8.732  1.5641 -0.9055  1.9793
  117OSM   H18G12366   6.585   3.430   8.638  0.9563 -1.0438  1.1080
  117OSM   H18H12367   6.435   3.502   8.716 -0.1525 -0.8602  0.8022
  118OSM      N12368   6.351   4.007  11.211  0.6469 -0.4047  0.5259
  118OSM    C1512369   6.471   3.946  11.140 -0.3019  0.1243  0.2391
  118OSM   H15A12370   6.521   3.896  11.222 -1.2958  0.2116  0.8989
  118OSM   H15B12371   6.534   4.025  11.100 -0.4723  0.3096  0.3382
  118OSM   H15C12372   6.436   3.880  11.062 -0.7252  1.1493 -0.4465
  118OSM    C1412373   6.263   3.895  11.263 -0.3515 -0.3073 -0.3020
  118OSM   H14A12374   6.247   3.816  11.191  0.4747 -1.6230  0.9227
  118OSM   H14B12375   6.165   3.922  11.299  0.8909  1.3649  1.9346
  118OSM   H14C12376   6.317   3.848  11.345 -1.5656 -1.4444 -0.1211
  118OSM    C1312377   6.394   4.095  11.326 -0.3596 -0.3513  0.1864
  118OSM   H13A12378   6.310   4.156  11.357 -0.2808 -0.3818  0.4600
  118OSM   H13B12379   6.466   4.170  11.294 -0.7529 -0.6441 -1.4483
  118OSM   H13C12380   6.445   4.042  11.404  0.5616  1.7953  1.0754
  118OSM    C1212381   6.277   4.094  11.103  0.3929 -0.0108 -0.9880
  118OSM   H12A12382   6.197   4.151  11.147  0.7297  1.2030 -1.8989
  118OSM   H12B12383   6.227   4.019  11.044 -0.0771  0.1420 -0.7831
  118OSM    C1112384   6.353   4.189  11.008 -0.4085  0.2122 -0.2280
  118OSM   H11A12385   6.282   4.225  10.930 -0.2922 -1.0865 -0.9629
  118OSM   H11B12386   6.435   4.143  10.948 -0.4647 -2.3485  1.5486
  118OSM      P12387   6.350   4.426  11.119 -0.4383 -0.0363 -0.0577
  118OSM    O1312388   6.273   4.400  11.242  0.2636  0.0054 -0.1578
  118OSM    O1412389   6.451   4.534  11.127 -0.2722 -0.2541  0.0854
  118OSM    O1112390   6.253   4.449  10.994 -0.6327  0.2479  0.3639
  118OSM    O1212391   6.411   4.295  11.076  0.4226  0.6338 -0.2913
  118OSM    C1S12392   6.312   4.493  10.868 -0.5229  0.4529 -0.4638
  118OSM    H1S12393   6.358   4.405  10.818 -0.1868  0.5381 -0.3080
  118OSM    H1T12394   6.391   4.568  10.886  0.9081 -0.7204 -1.7745
  118OSM     NF12395   6.275   4.606  10.652 -0.2432 -0.1026  0.5849
  118OSM    HNF12396   6.280   4.705  10.656 -0.4895 -0.1581  2.7020
  118OSM    C2S12397   6.208   4.552  10.774 -0.5700  0.1212  0.4843
  118OSM    H2S12398   6.141   4.472  10.735 -1.0232  0.3514  0.7934
  118OSM    C3S12399   6.114   4.665  10.839  0.4121 -0.2853 -0.1284
  118OSM    H3S12400   6.183   4.747  10.866  2.3112 -1.4216 -1.4161
  118OSM     O312401   6.038   4.616  10.949 -0.0437 -0.2848 -0.0856
  118OSM    HO312402   6.082   4.533  10.966  1.4492 -0.1704 -3.1689
  118OSM    C4S12403   6.022   4.723  10.735 -0.5847  0.0436  0.2064
  118OSM    H4S12404   6.060   4.820  10.700  0.5564 -0.4549  0.0222
  118OSM    C5S12405   5.909   4.674  10.684  0.3143  0.1370 -0.0474
  118OSM    H5S12406   5.873   4.584  10.736 -0.1265 -0.2203 -0.9564
  118OSM    C6S12407   5.823   4.744  10.582  0.0910 -0.2861  1.0881
  118OSM    H6S12408   5.757   4.811  10.640 -0.4847  0.1762 -0.0925
  118OSM    H6T12409   5.764   4.665  10.530  2.0600 -0.4876 -0.9177
  118OSM    C7S12410   5.891   4.826  10.473  0.2384 -0.2909 -0.4151
  118OSM    H7S12411   5.952   4.904  10.524  0.8539 -0.0144 -1.5453
  118OSM    H7T12412   5.811   4.879  10.416  1.7376  2.0137 -0.4531
  118OSM    C8S12413   5.966   4.750  10.364 -0.8491 -0.3390  0.3722
  118OSM    H8S12414   5.889   4.708  10.296  0.3342  0.4607 -1.5074
  118OSM    H8T12415   6.035   4.669  10.398 -1.9900 -1.6110 -0.3180
  118OSM    C9S12416   6.044   4.847  10.266  0.0437 -0.2864  0.2223
  118OSM    H9S12417   6.117   4.893  10.336  2.3052 -0.7615 -1.7594
  118OSM    H9T12418   5.984   4.936  10.237 -2.0836 -1.4048  1.0620
  118OSM   C10S12419   6.110   4.787  10.146 -0.1683 -0.2137  0.9870
  118OSM   H10S12420   6.143   4.682  10.160 -1.5204 -0.7467  0.2365
  118OSM   H10T12421   6.201   4.850  10.131 -0.9800  0.6739 -0.3222
  118OSM   C11S12422   6.021   4.790  10.026 -0.4346 -0.2982 -0.3909
  118OSM   H11S12423   5.954   4.878  10.035  1.4537  1.2611 -1.0491
  118OSM   H11T12424   5.957   4.700  10.028 -1.4965  0.4424 -0.9288
  118OSM   C12S12425   6.097   4.795   9.884  0.3967 -0.2416 -0.1821
  118OSM   H12S12426   6.159   4.704   9.882 -0.4002 -0.7845 -0.5250
  118OSM   H12T12427   6.166   4.881   9.896 -0.0178  0.0344  0.2693
  118OSM   C13S12428   6.007   4.803   9.760  0.1097 -0.3606 -0.2342
  118OSM   H13S12429   5.943   4.894   9.762 -0.3276 -0.6659 -0.1511
  118OSM   H13T12430   5.946   4.710   9.753 -0.3151 -0.0641 -0.5140
  118OSM   C14S12431   6.097   4.801   9.632 -0.4889 -0.2902 -0.3398
  118OSM   H14S12432   6.164   4.715   9.654  0.7412  0.4536 -1.1043
  118OSM   H14T12433   6.160   4.892   9.632  0.0586 -0.6677 -0.3770
  118OSM   C15S12434   6.026   4.786   9.500  0.3564  0.0926  0.0454
  118OSM   H15S12435   5.974   4.881   9.474  1.4314  0.7401  0.2199
  118OSM   H15T12436   5.963   4.695   9.494 -0.4835  0.7395 -1.2206
  118OSM   C16S12437   6.130   4.786   9.390  0.0947  0.2141  0.1299
  118OSM   H16S12438   6.187   4.691   9.387  1.1480  0.8760 -1.6997
  118OSM   H16T12439   6.202   4.871   9.397 -0.3232  0.5272  0.6174
  118OSM   C17S12440   6.058   4.793   9.252 -0.0717  0.7161  0.6971
  118OSM   H17S12441   6.131   4.800   9.168 -0.0718 -0.1398  0.6214
  118OSM   H17T12442   5.995   4.885   9.246 -1.3032  0.0025  2.4310
  118OSM   C18S12443   5.977   4.665   9.221 -0.4205 -0.2570  0.3551
  118OSM   H18S12444   5.889   4.655   9.287  0.3147  2.0768  1.7321
  118OSM   H18T12445   6.044   4.578   9.238 -1.8008 -1.0490  1.9151
  118OSM   H18U12446   5.932   4.648   9.121 -1.7256  3.5075  0.2069
  118OSM    C1F12447   6.324   4.533  10.551 -1.0068  0.6625  0.1954
  118OSM     OF12448   6.341   4.409  10.571  0.5873  0.4666 -0.0793
  118OSM    C2F12449   6.343   4.605  10.417  0.9283 -0.4363  0.3841
  118OSM    H2F12450   6.354   4.715  10.429  0.1949 -0.4056  0.8398
  118OSM    H2G12451   6.255   4.578  10.354  0.7618  1.4294 -0.2032
  118OSM    C3F12452   6.467   4.569  10.330  0.1984  0.1077  1.1075
  118OSM    H3F12453   6.493   4.464  10.352 -1.7483 -0.1660  2.1916
  118OSM    H3G12454   6.551   4.628  10.373 -1.8465  1.7119  3.0364
  118OSM    C4F12455   6.465   4.605  10.180 -0.5554  0.4103  0.0193
  118OSM    H4F12456   6.550   4.673  10.162 -1.3943  1.7358  1.0342
  118OSM    H4G12457   6.372   4.661  10.154  0.0704  2.8157  2.8087
  118OSM    C5F12458   6.458   4.492  10.075 -0.8932  0.0793 -0.2707
  118OSM    H5F12459   6.380   4.419  10.104 -0.6912  0.0086  0.0898
  118OSM    H5G12460   6.554   4.438  10.072 -1.7620 -1.5746  0.9081
  118OSM    C6F12461   6.434   4.554   9.936 -0.0528  1.4046  0.0207
  118OSM    H6F12462   6.527   4.611   9.916  0.1440  0.8165 -0.7548
  118OSM    H6G12463   6.346   4.622   9.947 -1.0400  0.1799 -0.1896
  118OSM    C7F12464   6.399   4.453   9.828  0.5597  1.0391 -0.1511
  118OSM    H7F12465   6.297   4.418   9.854  0.3986  0.7122 -1.1981
  118OSM    H7G12466   6.468   4.368   9.850 -2.1883 -1.5222 -1.0534
  118OSM    C8F12467   6.407   4.505   9.682  0.3064 -0.5409  0.3997
  118OSM    H8F12468   6.347   4.598   9.690 -0.6940 -0.9465 -1.8219
  118OSM    H8G12469   6.346   4.439   9.617 -0.0076  0.3909 -0.2643
  118OSM    C9F12470   6.553   4.535   9.642 -1.0962  0.3414  0.0537
  118OSM    H9F12471   6.636   4.525   9.714 -0.2959 -2.6281 -1.2184
  118OSM   C10F12472   6.584   4.585   9.523 -0.1566  0.4337 -0.1200
  118OSM   H10F12473   6.690   4.597   9.496 -0.6676  1.7083 -1.6411
  118OSM   C11F12474   6.501   4.624   9.408  0.5503 -0.0775 -0.7771
  118OSM   H11F12475   6.487   4.734   9.405  2.3188  0.1474 -0.9386
  118OSM   H11G12476   6.396   4.587   9.410 -0.1171  1.7501 -0.8565
  118OSM   C12F12477   6.567   4.572   9.276 -0.0650  0.2011  0.9307
  118OSM   H12F12478   6.658   4.632   9.255 -0.4046 -0.2805 -2.2243
  118OSM   H12G12479   6.501   4.599   9.190  1.1166  0.5070  0.1105
  118OSM   C13F12480   6.598   4.426   9.257  1.1478  0.0920 -0.7347
  118OSM   H13F12481   6.660   4.387   9.341  1.4774  0.5931 -0.7426
  118OSM   H13G12482   6.666   4.410   9.171  2.4248 -2.6737  0.7241
  118OSM   C14F12483   6.470   4.338   9.247  0.3863  0.6203 -0.5751
  118OSM   H14F12484   6.419   4.367   9.152 -1.7841  0.6534  0.5677
  118OSM   H14G12485   6.400   4.359   9.330  0.9844 -1.7066  0.5584
  118OSM   C15F12486   6.491   4.183   9.237  0.3580 -0.4883 -0.0491
  118OSM   H15F12487   6.538   4.142   9.145 -0.0473 -0.7370 -0.1485
  118OSM   H15G12488   6.388   4.146   9.255 -1.3108  3.1972 -1.4955
  118OSM   C16F12489   6.564   4.126   9.366  0.6385  0.7195 -0.4171
  118OSM   H16F12490   6.513   4.152   9.461  1.2778 -0.2003  0.1829
  118OSM   H16G12491   6.663   4.176   9.371  1.6289 -1.1677 -0.8655
  118OSM   C17F12492   6.594   3.973   9.368  0.6214  0.1466 -0.2232
  118OSM   H17F12493   6.654   3.931   9.284  2.0988  0.2087  0.7762
  118OSM   H17G12494   6.494   3.926   9.368 -0.1281  1.7143  0.2009
  118OSM   C18F12495   6.661   3.924   9.499 -0.1958 -0.2546 -0.8250
  118OSM   H18F12496   6.667   3.814   9.508  0.1437 -0.1287  0.6502
  118OSM   H18G12497   6.612   3.961   9.592  0.2333  0.1300 -0.7513
  118OSM   H18H12498   6.766   3.960   9.501 -0.2112 -0.2291 -0.1208
  119OSM      N12499   0.555   3.402  10.735  0.5387 -0.0967 -0.4727
  119OSM    C1512500   0.633   3.498  10.815 -0.6451 -0.2542 -0.0033
  119OSM   H15A12501   0.719   3.449  10.858 -0.9643 -0.9970 -0.2180
  119OSM   H15B12502   0.575   3.560  10.881 -1.5351  0.1340 -1.1305
  119OSM   H15C12503   0.673   3.574  10.748  0.2592  0.4452  1.2870
  119OSM    C1412504   0.594   3.382  10.589 -0.3446 -0.2624 -1.0366
  119OSM   H14A12505   0.597   3.472  10.530 -0.7879 -0.0846 -0.7900
  119OSM   H14B12506   0.537   3.310  10.533  0.1655 -2.0862  0.7261
  119OSM   H14C12507   0.697   3.349  10.595 -0.8667 -1.6504  1.0919
  119OSM    C1312508   0.562   3.272  10.801 -0.0223  0.6565 -0.1374
  119OSM   H13A12509   0.511   3.187  10.759  3.0562 -1.0254 -0.6805
  119OSM   H13B12510   0.529   3.284  10.903 -0.4020  1.3525 -0.3440
  119OSM   H13C12511   0.667   3.247  10.815 -0.0512  1.0730  0.8943
  119OSM    C1212512   0.408   3.450  10.732 -0.2307 -0.0499  0.2148
  119OSM   H12A12513   0.350   3.367  10.695  1.3591 -1.3069  0.4874
  119OSM   H12B12514   0.395   3.534  10.665 -3.0817 -0.3728  0.3248
  119OSM    C1112515   0.341   3.477  10.872  0.5508  0.1344  0.0777
  119OSM   H11A12516   0.361   3.396  10.946  0.2851 -1.5177 -1.6075
  119OSM   H11B12517   0.230   3.468  10.866  0.5623  0.1339 -0.1664
  119OSM      P12518   0.297   3.736  10.879  0.1660  0.1443  0.1181
  119OSM    O1312519   0.167   3.733  10.946  0.2370 -0.2060 -0.2318
  119OSM    O1412520   0.381   3.854  10.895 -0.4400  0.3843  0.1630
  119OSM    O1112521   0.278   3.717  10.724 -0.6999  0.2635 -0.0687
  119OSM    O1212522   0.383   3.604  10.910  0.0893 -0.1606  0.3371
  119OSM    C1S12523   0.159   3.662  10.668  0.4403 -1.4190  0.2450
  119OSM    H1S12524   0.072   3.695  10.730  1.7670  0.3091  1.2277
  119OSM    H1T12525   0.151   3.551  10.669 -0.1161 -1.5086 -3.8670
  119OSM     NF12526  -0.005   3.663  10.483 -0.2439 -0.2939  0.7162
  119OSM    HNF12527  -0.023   3.584  10.425 -3.1893 -0.6726  2.0490
  119OSM    C2S12528   0.130   3.704  10.520  0.6139 -0.4564 -0.2445
  119OSM    H2S12529   0.127   3.815  10.523 -0.7424 -0.5152  0.9559
  119OSM    C3S12530   0.240   3.658  10.424 -0.5989 -0.3186 -0.4079
  119OSM    H3S12531   0.233   3.552  10.392 -4.0420 -0.4170  0.4595
  119OSM     O312532   0.367   3.682  10.478 -0.1885  0.3294 -0.1893
  119OSM    HO312533   0.350   3.721  10.564 -0.7464 -0.4268  0.0589
  119OSM    C4S12534   0.232   3.742  10.297 -0.0290 -0.2486  0.6572
  119OSM    H4S12535   0.287   3.837  10.296 -1.1677  0.4129  0.6273
  119OSM    C5S12536   0.171   3.705  10.178 -0.0379 -0.4634  0.1951
  119OSM    H5S12537   0.125   3.605  10.180  0.8585 -0.8647  1.1827
  119OSM    C6S12538   0.171   3.777  10.050 -0.0938 -0.1210  0.7899
  119OSM    H6S12539   0.256   3.848  10.045  1.9755 -2.5902 -0.1298
  119OSM    H6T12540   0.076   3.832  10.032 -1.2554 -2.2758  0.2606
  119OSM    C7S12541   0.189   3.675   9.931 -0.6233  0.5065 -0.0921
  119OSM    H7S12542   0.105   3.601   9.929 -0.9300  0.8643 -0.6119
  119OSM    H7T12543   0.280   3.615   9.952 -0.6406  0.3569 -0.4366
  119OSM    C8S12544   0.190   3.755   9.793 -1.1462 -0.2515  0.4912
  119OSM    H8S12545   0.262   3.839   9.802 -1.6408  0.1214  1.0337
  119OSM    H8T12546   0.090   3.803   9.783 -1.0846 -0.2591 -0.1354
  119OSM    C9S12547   0.222   3.663   9.671  0.7612  0.5828  0.0442
  119OSM    H9S12548   0.151   3.578   9.666  0.7403  0.7172 -2.5224
  119OSM    H9T12549   0.325   3.627   9.693  0.3004 -0.7231  0.0615
  119OSM   C10S12550   0.216   3.744   9.537 -1.1394  0.2209  0.0730
  119OSM   H10S12551   0.301   3.815   9.531 -1.4611  0.6226  0.2943
  119OSM   H10T12552   0.118   3.796   9.528 -0.7189  1.2234  1.2208
  119OSM   C11S12553   0.245   3.644   9.419 -0.2981  0.4779 -0.2664
  119OSM   H11S12554   0.156   3.580   9.402  0.1592 -0.4361  0.7170
  119OSM   H11T12555   0.329   3.575   9.443 -0.8106 -0.2848 -0.6362
  119OSM   C12S12556   0.268   3.712   9.285 -0.6068  0.1143 -0.6092
  119OSM   H12S12557   0.283   3.630   9.212 -2.7217 -0.5461 -0.3488
  119OSM   H12T12558   0.361   3.769   9.306 -0.6563  0.5157 -1.4853
  119OSM   C13S12559   0.161   3.804   9.248  0.0620 -0.6991  0.4100
  119OSM   H13S12560   0.136   3.877   9.328  1.1530  0.4698 -0.2917
  119OSM   H13T12561   0.073   3.741   9.222 -0.5642  0.1627  0.4339
  119OSM   C14S12562   0.201   3.880   9.117 -0.0638  0.0138 -1.0934
  119OSM   H14S12563   0.295   3.937   9.134 -1.8008  3.2748 -1.8060
  119OSM   H14T12564   0.117   3.947   9.089 -1.8346 -1.4720  0.5375
  119OSM   C15S12565   0.222   3.788   8.994  0.0453 -0.1193  0.2274
  119OSM   H15S12566   0.126   3.736   8.972 -0.5618  0.6236  1.0863
  119OSM   H15T12567   0.294   3.708   9.024  1.0667  0.5771 -0.3759
  119OSM   C16S12568   0.266   3.861   8.874  0.6164  0.1780  0.0222
  119OSM   H16S12569   0.285   3.777   8.804  0.0355  1.4223 -1.6642
  119OSM   H16T12570   0.363   3.913   8.887  0.6350  0.0837  0.2786
  119OSM   C17S12571   0.156   3.943   8.808 -0.1212  0.4321  0.0696
  119OSM   H17S12572   0.136   4.026   8.879 -0.0080 -0.1122  0.7408
  119OSM   H17T12573   0.064   3.887   8.783 -0.3980  1.5511 -1.5320
  119OSM   C18S12574   0.206   4.011   8.682  0.7767  0.4688 -0.0777
  119OSM   H18S12575   0.122   4.071   8.641  0.1272 -2.0254 -2.5246
  119OSM   H18T12576   0.220   3.934   8.603 -1.6059 -0.1925  0.0978
  119OSM   H18U12577   0.298   4.071   8.696  0.5305  0.8737 -0.1933
  119OSM    C1F12578  -0.121   3.708  10.542 -0.2525 -0.5483 -0.0190
  119OSM     OF12579  -0.112   3.784  10.639 -0.2676 -0.0109  0.5539
  119OSM    C2F12580  -0.250   3.655  10.493  0.3180 -0.6723 -0.8521
  119OSM    H2F12581  -0.298   3.624  10.589  1.1365 -1.1294 -0.5893
  119OSM    H2G12582  -0.245   3.558  10.439  0.1776 -0.7287 -0.7656
  119OSM    C3F12583  -0.331   3.763  10.406  0.5227  0.0978 -0.4090
  119OSM    H3F12584  -0.335   3.851  10.474  2.0227  0.2627 -0.5206
  119OSM    H3G12585  -0.432   3.718  10.389  0.3606  0.7479 -1.1776
  119OSM    C4F12586  -0.280   3.776  10.266 -0.2002 -0.4723  0.8600
  119OSM    H4F12587  -0.170   3.791  10.264 -0.0570 -0.9540  3.3783
  119OSM    H4G12588  -0.328   3.859  10.209 -0.0158 -1.5583 -0.9146
  119OSM    C5F12589  -0.318   3.657  10.180 -0.3719  0.3918 -0.0342
  119OSM    H5F12590  -0.421   3.617  10.189 -0.0452 -1.2087 -2.6996
  119OSM    H5G12591  -0.256   3.575  10.222 -3.0726 -1.8648 -0.3160
  119OSM    C6F12592  -0.268   3.692  10.040  0.3741  0.0210  0.7200
  119OSM    H6F12593  -0.158   3.708  10.042  0.2663  1.0786 -0.8620
  119OSM    H6G12594  -0.321   3.787  10.016  0.9688  0.6408  1.7785
  119OSM    C7F12595  -0.284   3.579   9.938  1.2230 -1.0943 -0.0010
  119OSM    H7F12596  -0.237   3.610   9.843  0.5465 -3.2684 -1.0904
  119OSM    H7G12597  -0.392   3.559   9.919  1.1822 -1.4320  0.5647
  119OSM    C8F12598  -0.211   3.447   9.978 -0.6386  0.4226 -0.8679
  119OSM    H8F12599  -0.235   3.408  10.080  1.2730 -1.3980 -1.0646
  119OSM    H8G12600  -0.105   3.480   9.981 -0.3590 -0.4473 -0.8214
  119OSM    C9F12601  -0.225   3.324   9.891 -0.4786 -0.1933  0.1940
  119OSM    H9F12602  -0.319   3.269   9.901 -0.4679 -0.3069 -0.2977
  119OSM   C10F12603  -0.128   3.279   9.806 -0.7416  0.1284 -0.4199
  119OSM   H10F12604  -0.140   3.197   9.734  2.6697 -1.7706  1.0024
  119OSM   C11F12605   0.010   3.353   9.805 -0.3064 -0.6147  0.4368
  119OSM   H11F12606   0.061   3.346   9.903 -0.2740  2.0417  0.6277
  119OSM   H11G12607  -0.006   3.463   9.801  2.5606 -0.1297  1.0192
  119OSM   C12F12608   0.097   3.299   9.690  0.1182  0.0903 -0.6864
  119OSM   H12F12609   0.140   3.200   9.716  0.6537 -0.1496 -2.4301
  119OSM   H12G12610   0.186   3.365   9.686  0.5514 -0.4166  0.3691
  119OSM   C13F12611   0.042   3.286   9.548 -0.3800 -0.5311 -0.0395
  119OSM   H13F12612   0.004   3.384   9.513  1.3156 -0.1107 -0.7486
  119OSM   H13G12613  -0.040   3.211   9.543  0.0025 -1.1164  1.9225
  119OSM   C14F12614   0.139   3.233   9.436  0.2732 -0.6855  0.2724
  119OSM   H14F12615   0.162   3.125   9.451 -0.3702 -0.5696  2.2314
  119OSM   H14G12616   0.235   3.288   9.443 -0.6086  0.9126  0.1746
  119OSM   C15F12617   0.099   3.254   9.295 -0.6736  0.2997  0.1468
  119OSM   H15F12618   0.065   3.359   9.280 -0.3953  0.8148  2.8584
  119OSM   H15G12619   0.013   3.186   9.278 -0.6010 -0.2804  2.0520
  119OSM   C16F12620   0.201   3.221   9.185  0.6281  0.0533 -0.1365
  119OSM   H16F12621   0.222   3.111   9.189  0.5240  0.0318 -0.1677
  119OSM   H16G12622   0.298   3.272   9.202  0.3452  0.8500 -0.9022
  119OSM   C17F12623   0.156   3.256   9.046 -0.6758 -0.0010 -0.3813
  119OSM   H17F12624   0.150   3.367   9.035  1.6409  0.1252 -0.5600
  119OSM   H17G12625   0.056   3.208   9.037 -0.6507 -0.7040  2.7580
  119OSM   C18F12626   0.245   3.208   8.933  0.1157 -0.1633 -0.3850
  119OSM   H18F12627   0.247   3.097   8.934  0.1375 -0.1872  2.8516
  119OSM   H18G12628   0.349   3.247   8.937 -0.0134  0.3663 -1.8700
  119OSM   H18H12629   0.203   3.236   8.834 -2.6926 -1.7975  0.2675
  120OSM      N12630   6.172   0.059  10.676  0.0029 -0.8069  0.2396
  120OSM    C1512631   6.280   0.048  10.775  0.0058  0.1668 -0.3874
  120OSM   H15A12632   6.252  -0.006  10.865 -1.3975 -0.0098 -0.9149
  120OSM   H15B12633   6.294   0.152  10.797  1.5260 -0.0895 -0.0903
  120OSM   H15C12634   6.376   0.014  10.740  1.0828  1.5745  1.1651
  120OSM    C1412635   6.142  -0.080  10.640  0.2233  0.0375 -0.0798
  120OSM   H14A12636   6.095  -0.141  10.716  0.4226 -1.1714 -0.8991
  120OSM   H14B12637   6.234  -0.124  10.605  0.6761  1.2310 -0.4015
  120OSM   H14C12638   6.075  -0.082  10.555  0.3443 -1.9821 -0.1646
  120OSM    C1312639   6.051   0.121  10.736 -0.7831 -0.2567  0.5341
  120OSM   H13A12640   5.977   0.156  10.667 -1.7446  1.1885  2.2405
  120OSM   H13B12641   6.072   0.214  10.787  1.0508 -1.4475  2.0433
  120OSM   H13C12642   5.997   0.058  10.805 -0.2705  0.5465  1.6861
  120OSM    C1212643   6.222   0.140  10.560  0.2904 -0.3788  0.0805
  120OSM   H12A12644   6.320   0.102  10.535  1.3393  1.6831  0.9756
  120OSM   H12B12645   6.234   0.243  10.591  0.9695 -0.3960 -0.1177
  120OSM    C1112646   6.123   0.149  10.443 -0.4363  0.0644  0.2471
  120OSM   H11A12647   6.078   0.053  10.411 -1.0881  0.6185 -0.5113
  120OSM   H11B12648   6.178   0.196  10.359 -0.3253 -1.1823 -0.3947
  120OSM      P12649   6.012   0.385  10.465 -0.3409  0.0603 -0.1374
  120OSM    O1312650   5.882   0.452  10.493  0.2237  0.3243 -0.5020
  120OSM    O1412651   6.130   0.440  10.541 -0.7016 -0.3052  0.4762
  120OSM    O1112652   6.058   0.390  10.315 -0.1667  0.2237 -0.3851
  120OSM    O1212653   6.002   0.228  10.478 -0.3916  0.3252  0.0628
  120OSM    C1S12654   5.956   0.440  10.222  0.3584 -0.8349  1.0105
  120OSM    H1S12655   5.952   0.551  10.216  1.4752 -0.7833  1.1020
  120OSM    H1T12656   5.850   0.413  10.239  0.0637  0.0481  0.6066
  120OSM     NF12657   5.951   0.478   9.972 -0.1225  0.6901 -0.3039
  120OSM    HNF12658   5.878   0.446   9.912 -1.5208 -1.5643  2.4468
  120OSM    C2S12659   5.993   0.393  10.079 -1.2361  0.3974  0.7217
  120OSM    H2S12660   6.104   0.393  10.069 -1.3421 -0.3216 -0.5326
  120OSM    C3S12661   5.949   0.253  10.067  0.5217 -0.0065  0.5882
  120OSM    H3S12662   5.840   0.254  10.046  0.8299 -0.4223 -1.1583
  120OSM     O312663   5.971   0.165  10.177 -0.5820  0.0386  0.5694
  120OSM    HO312664   6.003   0.228  10.243 -0.3356 -2.1982  2.6634
  120OSM    C4S12665   6.002   0.195   9.935  0.5216 -0.1534 -0.1053
  120OSM    H4S12666   5.928   0.190   9.854 -0.2847 -0.1857  0.6208
  120OSM    C5S12667   6.127   0.147   9.906  0.8393  0.0562  0.1026
  120OSM    H5S12668   6.198   0.160   9.988  0.9642 -2.3041  0.4259
  120OSM    C6S12669   6.174   0.081   9.776 -0.1658  0.4545 -0.2673
  120OSM    H6S12670   6.201  -0.023   9.804  0.9208  0.4421 -1.3334
  120OSM    H6T12671   6.270   0.131   9.753  0.9705 -0.1185  2.8764
  120OSM    C7S12672   6.077   0.099   9.662  0.2536 -0.0168  0.3736
  120OSM    H7S12673   6.036   0.202   9.659 -1.1360 -0.5968 -1.5228
  120OSM    H7T12674   5.988   0.032   9.667 -0.0921  0.1979 -2.0233
  120OSM    C8S12675   6.145   0.075   9.524 -0.1504 -0.0472  0.2759
  120OSM    H8S12676   6.169  -0.033   9.517 -2.1745 -0.5297  0.5287
  120OSM    H8T12677   6.235   0.139   9.530 -0.1824  0.3433 -2.7360
  120OSM    C9S12678   6.057   0.115   9.401 -0.3708  0.0119 -0.1650
  120OSM    H9S12679   6.033   0.224   9.404 -0.7396 -0.0026 -1.8085
  120OSM    H9T12680   5.960   0.062   9.410 -1.1545  0.7574 -3.3368
  120OSM   C10S12681   6.112   0.090   9.263  0.3868 -0.1694 -0.4903
  120OSM   H10S12682   6.141  -0.017   9.259  0.9033  0.0052 -1.9566
  120OSM   H10T12683   6.208   0.142   9.244 -0.1892  0.5126 -1.6080
  120OSM   C11S12684   6.019   0.120   9.144  0.0752 -0.6756  0.4680
  120OSM   H11S12685   5.997   0.229   9.143 -1.4020 -0.9655 -0.2146
  120OSM   H11T12686   5.924   0.074   9.177 -0.2402 -1.2788 -1.2036
  120OSM   C12S12687   6.075   0.053   9.017 -0.0651  0.4315 -0.5108
  120OSM   H12S12688   5.992   0.049   8.943  0.3387 -0.6142 -0.9095
  120OSM   H12T12689   6.102  -0.050   9.048 -0.6238  0.5021  0.2267
  120OSM   C13S12690   6.193   0.116   8.946 -0.7444 -0.1971  0.6370
  120OSM   H13S12691   6.277   0.140   9.016  1.3784 -2.1650 -1.1680
  120OSM   H13T12692   6.152   0.210   8.904 -1.1332 -0.7834 -0.2822
  120OSM   C14S12693   6.269   0.027   8.837  0.0083  0.1491 -0.3891
  120OSM   H14S12694   6.315  -0.060   8.888 -1.4412 -1.2723 -1.4356
  120OSM   H14T12695   6.352   0.086   8.793 -0.2260  0.4739 -0.3935
  120OSM   C15S12696   6.177  -0.004   8.723  0.3587 -0.1267 -0.2739
  120OSM   H15S12697   6.150   0.096   8.683 -2.2687 -1.5131 -2.1321
  120OSM   H15T12698   6.085  -0.055   8.760  0.9037 -2.5708 -2.1763
  120OSM   C16S12699   6.241  -0.100   8.627 -0.1893  0.2534 -0.5206
  120OSM   H16S12700   6.168  -0.179   8.600 -0.2869 -0.0809  0.6766
  120OSM   H16T12701   6.321  -0.146   8.689  0.6738  1.7476 -0.5077
  120OSM   C17S12702   6.322  -0.040   8.518  0.9014 -0.4655  0.0334
  120OSM   H17S12703   6.394   0.036   8.554  0.4198  0.8288 -1.6768
  120OSM   H17T12704   6.245   0.005   8.452  0.8032 -0.6462  0.0247
  120OSM   C18S12705   6.405  -0.144   8.444 -0.0642 -0.1479 -0.7847
  120OSM   H18S12706   6.338  -0.217   8.393  3.4995 -1.3183 -3.9866
  120OSM   H18T12707   6.461  -0.201   8.522 -2.2265 -1.4082 -0.0955
  120OSM   H18U12708   6.472  -0.090   8.375 -1.1145  1.9266 -0.2236
  120OSM    C1F12709   5.999   0.592   9.939  0.6809  0.3993 -0.2479
  120OSM     OF12710   6.091   0.637  10.002 -0.2005 -0.0933  0.0692
  120OSM    C2F12711   5.940   0.658   9.826  0.1580  0.0844  0.2311
  120OSM    H2F12712   5.931   0.765   9.856 -0.9637 -0.4147  1.7655
  120OSM    H2G12713   5.839   0.625   9.792  0.8510 -2.5743  0.6288
  120OSM    C3F12714   6.045   0.658   9.711  0.8022 -0.0574 -0.2278
  120OSM    H3F12715   6.076   0.553   9.695 -1.1216 -1.0606  2.2558
  120OSM    H3G12716   6.136   0.709   9.747  0.7688 -0.2505  0.1336
  120OSM    C4F12717   6.006   0.740   9.588 -0.0008 -0.1824 -0.3304
  120OSM    H4F12718   5.914   0.703   9.540 -0.4188 -0.4168  0.6305
  120OSM    H4G12719   6.077   0.711   9.507 -1.2246 -1.1530 -1.0653
  120OSM    C5F12720   6.020   0.894   9.607 -0.6392  0.5035  0.3063
  120OSM    H5F12721   6.126   0.926   9.603 -0.5549  0.2870  0.6880
  120OSM    H5G12722   5.961   0.920   9.698  0.3281 -0.6745  1.3002
  120OSM    C6F12723   5.945   0.969   9.500  0.6794  1.1544  0.1332
  120OSM    H6F12724   5.835   0.958   9.510  0.6740  0.2183 -0.8636
  120OSM    H6G12725   5.973   0.940   9.396  0.4888  1.4123  0.0080
  120OSM    C7F12726   5.968   1.125   9.515  0.6552 -0.9409  0.0678
  120OSM    H7F12727   6.077   1.123   9.539  0.7909 -3.5428 -0.6351
  120OSM    H7G12728   5.918   1.169   9.604  1.2926  0.5897 -0.3082
  120OSM    C8F12729   5.923   1.219   9.395 -0.0019  0.3320 -0.6648
  120OSM    H8F12730   5.903   1.315   9.447 -0.5137 -0.2165  0.1419
  120OSM    H8G12731   5.828   1.183   9.350  0.7279  0.5693 -2.4655
  120OSM    C9F12732   6.033   1.240   9.285 -0.7221  0.1034 -0.4976
  120OSM    H9F12733   6.129   1.280   9.321 -1.0626 -0.3027  0.8932
  120OSM   C10F12734   6.026   1.179   9.166 -0.0671 -0.1207  0.2833
  120OSM   H10F12735   6.095   1.201   9.083  1.0222 -1.8387  0.7218
  120OSM   C11F12736   5.901   1.093   9.121 -0.4209  0.6422  0.0224
  120OSM   H11F12737   5.822   1.067   9.195 -0.0199 -0.4235  0.0843
  120OSM   H11G12738   5.947   0.993   9.106 -0.0744  0.6124  1.2427
  120OSM   C12F12739   5.835   1.131   8.982 -0.4214  0.7028 -0.1317
  120OSM   H12F12740   5.919   1.167   8.919  0.0719 -1.6357 -0.8793
  120OSM   H12G12741   5.764   1.212   9.006  1.0908  2.7381 -2.2730
  120OSM   C13F12742   5.763   1.019   8.903 -0.1787 -0.1174  0.9074
  120OSM   H13F12743   5.841   0.949   8.868  0.2848  0.5573  0.5875
  120OSM   H13G12744   5.739   1.069   8.806  0.7364  0.1498  0.8163
  120OSM   C14F12745   5.629   0.967   8.948 -0.0619  1.0469  0.5143
  120OSM   H14F12746   5.559   1.053   8.959 -1.4359  0.0205 -0.0352
  120OSM   H14G12747   5.643   0.916   9.046  1.3860 -1.6379 -1.0381
  120OSM   C15F12748   5.572   0.860   8.849 -0.1542  0.0515 -0.2186
  120OSM   H15F12749   5.649   0.780   8.841  1.1873  1.2957 -0.0997
  120OSM   H15G12750   5.557   0.911   8.752 -0.2747  1.0356  0.3056
  120OSM   C16F12751   5.437   0.804   8.891 -0.3369 -0.0082  0.4955
  120OSM   H16F12752   5.358   0.881   8.881  0.5037  0.4566 -3.8236
  120OSM   H16G12753   5.435   0.771   8.997 -0.5591 -0.3157  0.3984
  120OSM   C17F12754   5.398   0.681   8.811  0.0333 -0.3017 -0.1004
  120OSM   H17F12755   5.474   0.600   8.812 -1.9301 -2.2245 -0.3549
  120OSM   H17G12756   5.392   0.711   8.704 -1.7497 -2.0474 -0.5463
  120OSM   C18F12757   5.266   0.623   8.854  1.0788 -0.5112  0.1733
  120OSM   H18F12758   5.245   0.534   8.790  0.0044 -1.2406  1.5260
  120OSM   H18G12759   5.175   0.688   8.852  1.7226  0.3998  0.1396
  120OSM   H18H12760   5.285   0.592   8.959  0.8227  1.6644  0.8850
  121OSM      N12761   5.230   3.925  11.409  0.4209  0.3615  0.1700
  121OSM    C1512762   5.268   3.790  11.465  0.2660 -0.1832  0.2421
  121OSM   H15A12763   5.264   3.788  11.573 -4.3067  0.6911  0.1593
  121OSM   H15B12764   5.370   3.774  11.433 -0.2838 -3.2875 -0.0847
  121OSM   H15C12765   5.205   3.707  11.438 -0.0530 -0.7840  2.6752
  121OSM    C1412766   5.086   3.954  11.464 -0.0534  0.2098  0.1678
  121OSM   H14A12767   5.022   3.869  11.449  0.8252 -0.7323  1.6190
  121OSM   H14B12768   5.044   4.044  11.421  1.7725  1.0578  0.0979
  121OSM   H14C12769   5.076   3.977  11.569 -1.4728  0.1783  0.0516
  121OSM    C1312770   5.315   4.027  11.471 -0.0046 -0.1218 -0.1586
  121OSM   H13A12771   5.415   4.032  11.432 -0.3583  1.3603 -0.9200
  121OSM   H13B12772   5.326   3.995  11.573  1.2172  0.8769  0.0391
  121OSM   H13C12773   5.272   4.126  11.461  0.2594 -0.2481 -2.9884
  121OSM    C1212774   5.244   3.935  11.253  0.5441 -0.4900 -0.2790
  121OSM   H12A12775   5.207   4.027  11.211  0.7988 -0.4110 -0.3258
  121OSM   H12B12776   5.177   3.866  11.203  0.4950 -1.0377  0.5310
  121OSM    C1112777   5.385   3.919  11.199  0.5502 -0.5369  0.1228
  121OSM   H11A12778   5.444   3.998  11.250  0.1109 -1.0223  1.4055
  121OSM   H11B12779   5.384   3.951  11.093  1.1174 -1.2843 -0.1089
  121OSM      P12780   5.405   3.663  11.138  0.6354  0.0198 -0.2865
  121OSM    O1312781   5.458   3.539  11.198 -0.3267  0.4093 -0.3869
  121OSM    O1412782   5.259   3.665  11.118 -0.0158  0.3870  0.0754
  121OSM    O1112783   5.482   3.709  11.005  0.3608  0.3260  0.4358
  121OSM    O1212784   5.442   3.790  11.225  0.2299  0.4705 -0.0916
  121OSM    C1S12785   5.461   3.644  10.883 -0.6782  0.0745  0.3432
  121OSM    H1S12786   5.356   3.612  10.868 -1.1607  2.6300 -2.2335
  121OSM    H1T12787   5.535   3.562  10.877  0.8222  1.4685 -0.7795
  121OSM     NF12788   5.480   3.638  10.635 -0.2211  0.9666 -0.1415
  121OSM    HNF12789   5.570   3.614  10.600 -0.5643  1.0749 -1.0948
  121OSM    C2S12790   5.480   3.727  10.753  0.3961  0.0093 -0.4496
  121OSM    H2S12791   5.402   3.806  10.741 -0.1090 -0.2399  1.1513
  121OSM    C3S12792   5.609   3.806  10.763  0.0625 -0.0246 -0.4127
  121OSM    H3S12793   5.692   3.732  10.767 -0.6683 -0.7724  1.5627
  121OSM     O312794   5.617   3.881  10.884  0.2578 -0.1450 -0.1142
  121OSM    HO312795   5.540   3.857  10.936  0.8585 -0.4361  0.6490
  121OSM    C4S12796   5.621   3.900  10.645 -0.2230 -0.7588  0.8532
  121OSM    H4S12797   5.542   3.973  10.624 -0.3130 -0.7126  1.3550
  121OSM    C5S12798   5.723   3.890  10.557 -0.0826  0.4945 -0.1420
  121OSM    H5S12799   5.811   3.826  10.576  0.2932  0.7270 -1.0727
  121OSM    C6S12800   5.724   3.978  10.436  0.1119  1.0893  0.9265
  121OSM    H6S12801   5.812   4.043  10.454  2.6893 -1.3809 -2.0644
  121OSM    H6T12802   5.638   4.047  10.431 -1.6085 -1.0112  0.5817
  121OSM    C7S12803   5.737   3.909  10.301 -0.1273  0.2095  0.4660
  121OSM    H7S12804   5.645   3.847  10.291 -1.3417  2.0715 -0.3015
  121OSM    H7T12805   5.829   3.848  10.305 -0.2546 -0.3839 -3.5315
  121OSM    C8S12806   5.747   4.010  10.180  0.3936 -0.2247 -0.4210
  121OSM    H8S12807   5.836   4.076  10.177  1.0065 -0.9852  0.4774
  121OSM    H8T12808   5.664   4.084  10.191  1.6804  1.0750  0.8281
  121OSM    C9S12809   5.739   3.933  10.047  0.2789  0.1230 -0.0287
  121OSM    H9S12810   5.641   3.883  10.036  1.0890 -1.4391 -0.3062
  121OSM    H9T12811   5.803   3.842  10.045  1.5594  1.0190 -1.3610
  121OSM   C10S12812   5.754   4.018   9.925  0.1068 -0.7423  0.0668
  121OSM   H10S12813   5.860   4.047   9.913  0.9196 -2.6572  2.2191
  121OSM   H10T12814   5.697   4.113   9.939 -0.8562 -1.6015  2.2775
  121OSM   C11S12815   5.728   3.943   9.799 -0.4514 -0.1037  0.5043
  121OSM   H11S12816   5.628   3.900   9.819 -2.4226  3.9033 -0.4664
  121OSM   H11T12817   5.802   3.861   9.785  0.4596  0.3355  2.5646
  121OSM   C12S12818   5.722   4.021   9.669 -0.7557 -0.7184 -0.5293
  121OSM   H12S12819   5.807   4.085   9.637 -1.5927  0.9869  0.5689
  121OSM   H12T12820   5.640   4.095   9.679  0.4694  0.8243 -1.8038
  121OSM   C13S12821   5.676   3.936   9.555 -0.9612  0.1946 -0.2360
  121OSM   H13S12822   5.574   3.910   9.589 -0.3040 -2.0586  0.1447
  121OSM   H13T12823   5.746   3.851   9.541 -1.2053 -0.5018  2.5010
  121OSM   C14S12824   5.669   4.017   9.430 -0.6427  0.1918 -0.1696
  121OSM   H14S12825   5.776   4.045   9.419 -0.6703 -0.4448 -2.2359
  121OSM   H14T12826   5.619   4.113   9.455  0.2264  0.5762  0.1157
  121OSM   C15S12827   5.608   3.937   9.316  0.3827 -0.5839  0.2215
  121OSM   H15S12828   5.502   3.926   9.350  0.2878  0.9930  0.4716
  121OSM   H15T12829   5.647   3.833   9.306  0.5113 -0.5020 -0.1284
  121OSM   C16S12830   5.615   4.028   9.184 -0.0619 -0.1933 -0.1962
  121OSM   H16S12831   5.721   4.053   9.162 -0.4602  0.8435 -0.9601
  121OSM   H16T12832   5.549   4.116   9.202 -2.6709 -2.2165  0.4817
  121OSM   C17S12833   5.536   3.961   9.072 -0.3041 -0.3519  0.9067
  121OSM   H17S12834   5.441   3.917   9.110  0.6533 -2.3903  1.0459
  121OSM   H17T12835   5.588   3.865   9.051 -1.9765 -1.6585  2.4668
  121OSM   C18S12836   5.504   4.044   8.951  0.3168  0.0536 -0.0385
  121OSM   H18S12837   5.597   4.102   8.930 -0.5093  1.2452 -0.4609
  121OSM   H18T12838   5.422   4.117   8.966  1.3361  1.3886 -0.8157
  121OSM   H18U12839   5.483   3.981   8.862 -0.7697 -1.5397  1.3098
  121OSM    C1F12840   5.372   3.570  10.589 -0.4286  0.0367  0.3473
  121OSM     OF12841   5.261   3.571  10.646 -0.3278 -0.2643 -0.4274
  121OSM    C2F12842   5.378   3.495  10.460 -0.4483 -0.2105  0.1350
  121OSM    H2F12843   5.457   3.417  10.460 -1.0042 -0.8244 -2.3222
  121OSM    H2G12844   5.414   3.563  10.380 -1.0790 -1.4172 -1.2105
  121OSM    C3F12845   5.243   3.429  10.420  0.2333  0.2612  0.2261
  121OSM    H3F12846   5.166   3.510  10.429 -0.3562 -0.2842  0.1506
  121OSM    H3G12847   5.218   3.347  10.491 -1.3510 -0.4022 -1.0678
  121OSM    C4F12848   5.240   3.396  10.270 -0.1292 -0.8409  0.0978
  121OSM    H4F12849   5.150   3.338  10.242 -1.0149  1.2343 -1.4454
  121OSM    H4G12850   5.331   3.334  10.262  0.7517  0.3718  0.4556
  121OSM    C5F12851   5.236   3.532  10.188 -0.1817  0.5208 -0.4143
  121OSM    H5F12852   5.329   3.592  10.189  0.7995 -0.7894 -4.2407
  121OSM    H5G12853   5.161   3.597  10.238 -2.4981 -0.4767 -2.4622
  121OSM    C6F12854   5.202   3.516  10.039  0.1676 -0.4289 -0.3064
  121OSM    H6F12855   5.147   3.607  10.007  2.2619  0.2089 -2.2402
  121OSM    H6G12856   5.126   3.438  10.019 -0.6808  0.2749  0.1414
  121OSM    C7F12857   5.337   3.490   9.966  0.2297  0.0327  0.0692
  121OSM    H7F12858   5.387   3.404  10.016  0.4909  0.9869  1.4519
  121OSM    H7G12859   5.401   3.580   9.971 -2.1284  1.5853  4.5504
  121OSM    C8F12860   5.319   3.439   9.821  0.7301 -0.2138 -0.3112
  121OSM    H8F12861   5.280   3.335   9.810  3.0279 -1.3528  1.7502
  121OSM    H8G12862   5.424   3.429   9.789  0.7125  0.0929 -0.4607
  121OSM    C9F12863   5.260   3.554   9.736 -0.3730 -0.4651  0.0226
  121OSM    H9F12864   5.198   3.626   9.790 -1.7593 -1.2131 -0.5400
  121OSM   C10F12865   5.291   3.590   9.611 -0.3194  0.5877  0.4019
  121OSM   H10F12866   5.256   3.682   9.561  2.1696  2.0770  1.2779
  121OSM   C11F12867   5.383   3.508   9.517 -0.1657 -0.1069  0.3725
  121OSM   H11F12868   5.462   3.455   9.574  3.0959  1.5600 -2.4100
  121OSM   H11G12869   5.448   3.575   9.457 -1.5889  3.4612  2.6611
  121OSM   C12F12870   5.316   3.404   9.431 -0.2936 -0.3345  1.8096
  121OSM   H12F12871   5.246   3.342   9.492 -1.1956 -1.3675 -0.2293
  121OSM   H12G12872   5.393   3.343   9.379 -0.3034  3.0288 -2.3991
  121OSM   C13F12873   5.233   3.470   9.320 -0.3911 -0.0939  0.5979
  121OSM   H13F12874   5.172   3.559   9.349  0.5518  0.6864  0.2401
  121OSM   H13G12875   5.159   3.398   9.279 -2.2967  1.3748  1.3772
  121OSM   C14F12876   5.325   3.526   9.208  0.6734 -0.1355 -0.1843
  121OSM   H14F12877   5.413   3.460   9.193 -0.8860 -1.8725 -1.9952
  121OSM   H14G12878   5.364   3.625   9.239 -2.0050  1.2557 -1.0937
  121OSM   C15F12879   5.258   3.536   9.071  0.0507 -0.0134  0.8557
  121OSM   H15F12880   5.184   3.454   9.059  1.2673 -0.8108 -1.4716
  121OSM   H15G12881   5.342   3.524   9.000  0.0158  0.2728  0.7662
  121OSM   C16F12882   5.170   3.664   9.056 -0.3930  0.2217 -0.4702
  121OSM   H16F12883   5.236   3.752   9.075 -0.5383  0.5405 -1.3974
  121OSM   H16G12884   5.078   3.666   9.117  0.3802  2.8103  0.6868
  121OSM   C17F12885   5.119   3.699   8.915 -0.0623 -0.1945 -0.0784
  121OSM   H17F12886   5.198   3.711   8.837 -2.4630  2.9708 -2.1132
  121OSM   H17G12887   5.065   3.795   8.899 -0.9051 -0.3724  1.5745
  121OSM   C18F12888   5.030   3.592   8.854 -0.6616 -0.0997 -0.3198
  121OSM   H18F12889   5.032   3.589   8.743  0.1601  1.8387 -0.3746
  121OSM   H18G12890   4.925   3.592   8.890  0.2167  0.3448  2.3390
  121OSM   H18H12891   5.079   3.500   8.892  2.2930  2.0877  1.3359
  122OSM      N12892   5.539   1.625  10.890 -0.1588  0.7271  0.3524
  122OSM    C1512893   5.440   1.734  10.901 -0.0629 -0.0723  0.7862
  122OSM   H15A12894   5.356   1.719  10.836  1.1565  0.5192 -0.9757
  122OSM   H15B12895   5.491   1.830  10.896 -1.5491  0.8575  2.6716
  122OSM   H15C12896   5.402   1.741  11.002 -0.0362 -0.9686  0.8621
  122OSM    C1412897   5.658   1.640  10.980 -0.5657  0.4424 -0.2716
  122OSM   H14A12898   5.725   1.556  10.982  0.4015  1.1461 -1.7878
  122OSM   H14B12899   5.637   1.682  11.078 -0.4180 -0.8268  0.3166
  122OSM   H14C12900   5.711   1.717  10.926 -0.2844 -0.4891 -1.3346
  122OSM    C1312901   5.470   1.497  10.927  0.3701  0.0754 -0.3381
  122OSM   H13A12902   5.438   1.500  11.030 -3.2859 -2.4238 -1.2965
  122OSM   H13B12903   5.523   1.403  10.926 -3.3954 -2.1415 -0.9332
  122OSM   H13C12904   5.380   1.479  10.870 -1.2490  1.7437  1.6018
  122OSM    C1212905   5.582   1.614  10.744 -0.3389  0.4568 -0.0396
  122OSM   H12A12906   5.496   1.605  10.680 -1.3708 -1.3960  1.5579
  122OSM   H12B12907   5.638   1.522  10.729  0.0605  0.3751  1.7920
  122OSM    C1112908   5.660   1.730  10.684  0.4371  0.5473 -0.4325
  122OSM   H11A12909   5.603   1.826  10.678 -0.2803  0.0385 -2.1616
  122OSM   H11B12910   5.671   1.699  10.578 -4.0779  2.1076 -1.4977
  122OSM      P12911   5.902   1.645  10.724  0.0056  0.0725 -0.0090
  122OSM    O1312912   5.997   1.676  10.835  0.5076 -0.3866  0.1469
  122OSM    O1412913   5.850   1.508  10.703  0.1250  0.1435  0.2413
  122OSM    O1112914   5.973   1.697  10.597 -0.0491 -0.3188  0.3770
  122OSM    O1212915   5.784   1.743  10.742 -0.2437  0.0068  0.2192
  122OSM    C1S12916   6.072   1.617  10.526 -0.1758 -0.6107  0.3948
  122OSM    H1S12917   6.057   1.509  10.547 -1.4498  0.1749  4.0453
  122OSM    H1T12918   6.172   1.630  10.574 -1.4593  0.3266  2.9377
  122OSM     NF12919   6.131   1.528  10.299 -0.3263 -0.6528 -0.4709
  122OSM    HNF12920   6.225   1.551  10.275 -0.1882 -0.0432  0.6106
  122OSM    C2S12921   6.050   1.623  10.368 -0.2823  0.3235 -0.2219
  122OSM    H2S12922   5.944   1.596  10.350 -0.3747  0.5868 -0.0718
  122OSM    C3S12923   6.081   1.776  10.317  0.5437  0.9480 -0.0013
  122OSM    H3S12924   6.187   1.800  10.342  0.7291 -0.1838  0.3179
  122OSM     O312925   6.009   1.883  10.392 -1.3160  0.1158 -0.7009
  122OSM    HO312926   5.959   1.837  10.460  0.3105 -1.0671 -0.2899
  122OSM    C4S12927   6.066   1.805  10.168 -0.7491  0.1916 -0.0662
  122OSM    H4S12928   5.962   1.794  10.136 -0.6185 -0.9730 -0.1042
  122OSM    C5S12929   6.163   1.826  10.076 -0.0595 -0.0217 -0.3577
  122OSM    H5S12930   6.269   1.824  10.104 -0.0511  0.4785 -0.3479
  122OSM    C6S12931   6.137   1.834   9.924 -0.0961  0.2671  0.5755
  122OSM    H6S12932   6.045   1.784   9.887  0.4731 -0.0763 -0.3817
  122OSM    H6T12933   6.219   1.784   9.869  0.8134  1.0710  1.1797
  122OSM    C7S12934   6.130   1.984   9.886 -0.4055  0.8072  0.0503
  122OSM    H7S12935   6.225   2.042   9.897  0.8987 -1.5119  1.3826
  122OSM    H7T12936   6.054   2.043   9.941  0.9789  2.1247  0.6171
  122OSM    C8S12937   6.103   2.001   9.741 -0.0374 -0.0790 -0.0573
  122OSM    H8S12938   6.089   2.110   9.727  0.1202  0.3212  2.6068
  122OSM    H8T12939   6.010   1.943   9.722 -0.4235  1.0267 -1.6603
  122OSM    C9S12940   6.212   1.963   9.632 -0.1848  0.1106 -0.5399
  122OSM    H9S12941   6.238   1.856   9.644 -1.4789 -0.2472 -0.8451
  122OSM    H9T12942   6.300   2.026   9.656 -1.1903  1.2962  0.1490
  122OSM   C10S12943   6.158   1.980   9.491 -0.2387 -0.0136  0.6986
  122OSM   H10S12944   6.139   2.090   9.489  0.4939  0.1034  0.0552
  122OSM   H10T12945   6.069   1.914   9.482  0.4306 -0.6096 -1.7681
  122OSM   C11S12946   6.258   1.967   9.371 -0.6236  0.1884 -0.1361
  122OSM   H11S12947   6.310   1.870   9.360  1.6430  1.3831 -0.4666
  122OSM   H11T12948   6.345   2.036   9.381  1.3032 -1.9532 -1.5397
  122OSM   C12S12949   6.199   2.007   9.237 -0.0490 -0.3792 -0.7402
  122OSM   H12S12950   6.168   2.113   9.247  2.0566  0.1825  0.2222
  122OSM   H12T12951   6.111   1.947   9.206  0.0623 -1.4158  0.8546
  122OSM   C13S12952   6.304   1.993   9.129 -0.2422 -0.1617  0.3752
  122OSM   H13S12953   6.320   1.887   9.101  2.4859 -0.3080  2.2675
  122OSM   H13T12954   6.405   2.034   9.147  0.7032 -2.9250  1.6019
  122OSM   C14S12955   6.275   2.070   9.000  0.1431 -0.0311  0.1822
  122OSM   H14S12956   6.357   2.038   8.931  0.2838  2.3489 -0.7830
  122OSM   H14T12957   6.286   2.180   9.011 -0.2028 -0.0939  1.2026
  122OSM   C15S12958   6.127   2.050   8.948  0.5358  0.8413 -0.3375
  122OSM   H15S12959   6.058   2.107   9.012  1.6381  0.7373  0.9596
  122OSM   H15T12960   6.107   1.941   8.952  0.9081  0.7089 -1.5696
  122OSM   C16S12961   6.104   2.085   8.795  0.2393 -0.1823 -0.2702
  122OSM   H16S12962   6.197   2.047   8.747  1.5015  0.6686  1.4461
  122OSM   H16T12963   6.097   2.193   8.770 -1.0503 -0.2586 -0.2575
  122OSM   C17S12964   5.986   2.020   8.729  0.4600 -0.7481  0.2482
  122OSM   H17S12965   5.892   2.060   8.774 -0.8918 -1.4573 -1.8885
  122OSM   H17T12966   5.982   1.909   8.732 -1.7781 -0.6888  0.3059
  122OSM   C18S12967   5.972   2.065   8.590 -0.3533  0.4039 -0.9127
  122OSM   H18S12968   5.946   2.172   8.575 -0.2857  0.4434 -0.7546
  122OSM   H18T12969   5.885   2.011   8.547 -0.3970  1.6372 -2.4397
  122OSM   H18U12970   6.075   2.052   8.551  0.3188 -1.2807  1.3228
  122OSM    C1F12971   6.096   1.408  10.277  0.5259 -0.0473 -0.5610
  122OSM     OF12972   5.984   1.366  10.307  0.7066  0.3943  0.1716
  122OSM    C2F12973   6.188   1.305  10.215 -0.0120  0.1660 -0.5025
  122OSM    H2F12974   6.188   1.210  10.272 -0.2116  0.4498 -0.0221
  122OSM    H2G12975   6.289   1.349  10.206  0.5839 -0.8360  1.1056
  122OSM    C3F12976   6.157   1.257  10.077 -0.0669 -0.0158 -0.3764
  122OSM    H3F12977   6.068   1.190  10.079  0.6400 -1.0680 -2.7121
  122OSM    H3G12978   6.243   1.200  10.036  2.1932  1.4836  2.1194
  122OSM    C4F12979   6.133   1.376   9.979 -0.1768  0.0896  0.0707
  122OSM    H4F12980   6.231   1.424   9.957 -0.8310  1.2440 -0.3580
  122OSM    H4G12981   6.076   1.460  10.023  3.6865  2.0539  1.5569
  122OSM    C5F12982   6.088   1.320   9.852  0.1272 -0.7045  0.3478
  122OSM    H5F12983   5.984   1.284   9.869 -0.0914 -1.2268 -2.0210
  122OSM    H5G12984   6.142   1.226   9.828  2.7085  0.2914  2.0852
  122OSM    C6F12985   6.085   1.421   9.734  0.0023  0.0209  1.1245
  122OSM    H6F12986   6.020   1.504   9.766 -0.1541  1.0667 -1.8034
  122OSM    H6G12987   6.034   1.370   9.650 -0.5473  1.5753  0.5010
  122OSM    C7F12988   6.226   1.463   9.690  0.8078 -0.6759  0.8609
  122OSM    H7F12989   6.296   1.377   9.700  0.9320 -0.8524 -1.4351
  122OSM    H7G12990   6.271   1.547   9.747  1.7274 -0.5842  0.0272
  122OSM    C8F12991   6.226   1.511   9.546 -0.0414  0.4488  0.0600
  122OSM    H8F12992   6.153   1.595   9.535 -2.5351 -1.3917  1.9885
  122OSM    H8G12993   6.186   1.426   9.487 -1.2878 -0.5674  2.3379
  122OSM    C9F12994   6.364   1.546   9.493 -0.2588 -0.7321  0.7257
  122OSM    H9F12995   6.411   1.616   9.562  1.5694  0.9027 -2.0674
  122OSM   C10F12996   6.426   1.508   9.377 -0.8377  0.5548  0.5583
  122OSM   H10F12997   6.526   1.549   9.356 -1.2127  1.1832 -0.0132
  122OSM   C11F12998   6.373   1.422   9.270 -0.6011 -0.0090 -0.9967
  122OSM   H11F12999   6.263   1.436   9.263 -0.4941  1.6712  0.4155
  122OSM   H11G13000   6.387   1.312   9.274  2.0389  0.3561  2.1956
  122OSM   C12F13001   6.414   1.475   9.129 -0.4348 -0.2285  0.3654
  122OSM   H12F13002   6.524   1.477   9.116 -0.5586 -1.4468 -0.9118
  122OSM   H12G13003   6.377   1.579   9.119 -0.1804 -0.0937  0.8001
  122OSM   C13F13004   6.357   1.370   9.028  0.2537  0.7037 -0.5096
  122OSM   H13F13005   6.250   1.344   9.043  0.3175  0.6178 -0.1990
  122OSM   H13G13006   6.421   1.283   9.052 -0.7199  0.0414 -0.3156
  122OSM   C14F13007   6.381   1.405   8.883  1.0783 -0.0207 -0.2404
  122OSM   H14F13008   6.334   1.502   8.859  0.8486 -0.1628 -0.3578
  122OSM   H14G13009   6.340   1.322   8.822 -1.7784  0.6169  0.7628
  122OSM   C15F13010   6.532   1.407   8.840 -0.1650  0.4894  0.3391
  122OSM   H15F13011   6.592   1.323   8.880 -2.6616 -0.4622  2.2148
  122OSM   H15G13012   6.563   1.492   8.904  0.8416 -0.2314  0.8104
  122OSM   C16F13013   6.546   1.442   8.689  0.0685 -0.0071 -0.5795
  122OSM   H16F13014   6.535   1.349   8.630  0.3503  1.1502 -2.5023
  122OSM   H16G13015   6.655   1.459   8.676 -0.0177  1.1301  0.0629
  122OSM   C17F13016   6.447   1.554   8.646 -0.8876  0.3594 -0.2922
  122OSM   H17F13017   6.494   1.604   8.559 -0.4026 -0.4227 -0.4868
  122OSM   H17G13018   6.438   1.638   8.718  2.2890  0.3944  0.1543
  122OSM   C18F13019   6.306   1.512   8.597  0.2499  0.4879  0.2408
  122OSM   H18F13020   6.247   1.601   8.567  0.6447  0.2860 -1.1870
  122OSM   H18G13021   6.249   1.455   8.674 -0.3000  0.1499 -0.4120
  122OSM   H18H13022   6.308   1.449   8.506 -0.3369 -1.9863  1.8876
  123OSM      N13023   2.680   1.121   6.204 -0.0138  0.5760  0.2749
  123OSM    C1513024   2.802   1.196   6.241 -0.6690  0.3190  0.6460
  123OSM   H15A13025   2.785   1.227   6.343 -0.5986  0.3683  0.6429
  123OSM   H15B13026   2.811   1.292   6.193  2.2528 -1.3995 -2.4676
  123OSM   H15C13027   2.892   1.136   6.235  0.5677  2.0320  1.8580
  123OSM    C1413028   2.673   1.006   6.293  0.1180 -0.8818  0.0863
  123OSM   H14A13029   2.687   1.025   6.398 -0.7512 -2.4397  0.5010
  123OSM   H14B13030   2.764   0.949   6.281 -0.5038 -2.3140  1.9019
  123OSM   H14C13031   2.603   0.928   6.265  2.1333 -1.5132 -3.5914
  123OSM    C1313032   2.563   1.203   6.233  0.8624 -0.4270  0.0636
  123OSM   H13A13033   2.549   1.223   6.338  1.1222 -0.7033  0.1491
  123OSM   H13B13034   2.476   1.143   6.213 -1.5321  2.4003  1.5695
  123OSM   H13C13035   2.553   1.297   6.181  3.1047  0.3154  0.9261
  123OSM    C1213036   2.689   1.077   6.061  0.1033  0.2630 -0.7452
  123OSM   H12A13037   2.700   1.166   6.000 -2.0189  0.3818 -0.9808
  123OSM   H12B13038   2.594   1.042   6.023  0.2021  2.2587 -2.9633
  123OSM    C1113039   2.800   0.967   6.019 -0.5027 -0.0846 -0.3467
  123OSM   H11A13040   2.897   1.011   6.049  0.5492 -0.5392 -2.9839
  123OSM   H11B13041   2.797   0.962   5.908 -2.4108 -2.0011 -0.2508
  123OSM      P13042   2.884   0.720   6.024  0.1043 -0.1144 -0.2597
  123OSM    O1313043   2.813   0.588   6.036 -0.3788 -0.0881 -0.2502
  123OSM    O1413044   2.928   0.762   5.892  0.4999 -0.4168 -0.1362
  123OSM    O1113045   3.000   0.725   6.137  0.4993 -0.2902 -0.6958
  123OSM    O1213046   2.779   0.831   6.073  0.7638  0.0818  0.1021
  123OSM    C1S13047   2.967   0.724   6.276 -0.4151  0.4265 -0.1515
  123OSM    H1S13048   2.964   0.620   6.316 -0.1882 -0.4361 -2.2873
  123OSM    H1T13049   2.869   0.768   6.302  0.0948  0.1482  2.3403
  123OSM     NF13050   3.044   0.790   6.498 -0.0700  0.7766 -0.1312
  123OSM    HNF13051   2.992   0.863   6.541  2.7717  1.8672  1.6070
  123OSM    C2S13052   3.080   0.797   6.363  0.1449 -0.0685 -0.0365
  123OSM    H2S13053   3.172   0.739   6.342  0.4187 -0.1397  1.3513
  123OSM    C3S13054   3.121   0.940   6.309 -0.2980  0.5579 -0.3356
  123OSM    H3S13055   3.036   1.008   6.293  0.7548  2.0073  0.1551
  123OSM     O313056   3.172   0.932   6.181 -0.7143 -0.3973  0.5613
  123OSM    HO313057   3.125   0.856   6.146 -0.6339  0.3694 -1.2853
  123OSM    C4S13058   3.227   1.004   6.392 -0.2251 -0.6106 -1.0622
  123OSM    H4S13059   3.326   0.959   6.375 -1.0847 -3.1548  0.4585
  123OSM    C5S13060   3.216   1.098   6.484  0.1333 -0.9083 -0.3995
  123OSM    H5S13061   3.118   1.136   6.517  0.9127 -0.8612  1.9726
  123OSM    C6S13062   3.329   1.148   6.575 -0.2757  0.8029  0.4652
  123OSM    H6S13063   3.325   1.259   6.586 -1.8580  1.1050 -2.4330
  123OSM    H6T13064   3.424   1.129   6.522 -0.4934  0.6937  0.1112
  123OSM    C7S13065   3.308   1.075   6.709 -0.3110 -0.1863  0.4483
  123OSM    H7S13066   3.310   0.965   6.696 -0.0294  0.1900 -3.2270
  123OSM    H7T13067   3.211   1.105   6.756 -0.9753 -1.8994  0.2105
  123OSM    C8S13068   3.418   1.112   6.811 -0.2128 -0.1083  0.2384
  123OSM    H8S13069   3.405   1.219   6.838 -2.6687 -0.1814 -0.4415
  123OSM    H8T13070   3.521   1.100   6.773  0.4949  1.6213  1.5573
  123OSM    C9S13071   3.403   1.029   6.936  0.6459  0.0199  0.2404
  123OSM    H9S13072   3.402   0.920   6.918  0.8523 -0.0285  0.5084
  123OSM    H9T13073   3.306   1.052   6.985 -0.0748 -1.8976 -0.2751
  123OSM   C10S13074   3.514   1.054   7.035  0.4347 -0.5230 -0.6865
  123OSM   H10S13075   3.613   1.054   6.986  1.1094  0.2065  0.6524
  123OSM   H10T13076   3.517   0.976   7.114 -0.9329  0.1505  0.0517
  123OSM   C11S13077   3.503   1.180   7.120  0.4008  0.0405 -0.3649
  123OSM   H11S13078   3.396   1.206   7.133  0.4753  0.6004 -0.8370
  123OSM   H11T13079   3.555   1.255   7.057 -0.6667  1.2954  0.2360
  123OSM   C12S13080   3.578   1.153   7.257  0.2155  0.3365  0.8260
  123OSM   H12S13081   3.684   1.128   7.238 -0.3060 -0.3926 -1.3573
  123OSM   H12T13082   3.528   1.061   7.294 -0.4104  0.2854 -0.1130
  123OSM   C13S13083   3.564   1.275   7.340 -0.0104  0.1832 -0.7426
  123OSM   H13S13084   3.464   1.273   7.390  0.8855 -1.9156  1.0497
  123OSM   H13T13085   3.570   1.365   7.275  0.1961  1.1348  0.5704
  123OSM   C14S13086   3.666   1.287   7.454  0.0487  0.5775  0.3188
  123OSM   H14S13087   3.769   1.272   7.415  0.7144  3.6213  0.8231
  123OSM   H14T13088   3.659   1.199   7.522  1.5535  0.8966  0.9269
  123OSM   C15S13089   3.652   1.413   7.539 -0.3359 -0.2623  0.7065
  123OSM   H15S13090   3.556   1.400   7.593  1.1475 -0.4996  3.4299
  123OSM   H15T13091   3.649   1.507   7.482 -0.4313 -1.4566 -1.2996
  123OSM   C16S13092   3.769   1.421   7.642  0.2674 -0.5978 -0.3129
  123OSM   H16S13093   3.862   1.405   7.582  1.3698 -0.9375  1.4420
  123OSM   H16T13094   3.756   1.338   7.715 -1.1574  0.7718  1.0303
  123OSM   C17S13095   3.778   1.563   7.710 -0.4017 -0.6100  0.1069
  123OSM   H17S13096   3.755   1.639   7.632 -0.9899  0.4327  1.2815
  123OSM   H17T13097   3.880   1.584   7.746 -0.1246  0.2933 -1.1690
  123OSM   C18S13098   3.681   1.595   7.831 -0.6076  0.3687 -0.3237
  123OSM   H18S13099   3.697   1.514   7.904 -1.2774 -0.1254 -0.7164
  123OSM   H18T13100   3.578   1.591   7.790 -0.9070  0.5721  0.4004
  123OSM   H18U13101   3.690   1.700   7.866  0.7419  0.4062 -0.7698
  123OSM    C1F13102   3.063   0.680   6.571 -0.6559 -0.7038 -0.0455
  123OSM     OF13103   3.134   0.589   6.529 -0.1017  0.2169  0.1763
  123OSM    C2F13104   2.982   0.687   6.700  0.3695 -0.4906 -0.1256
  123OSM    H2F13105   2.958   0.585   6.738 -0.1242 -0.3512 -0.0593
  123OSM    H2G13106   2.890   0.747   6.685  0.8211  0.6634  1.4970
  123OSM    C3F13107   3.070   0.753   6.816  1.0378 -0.0700 -0.7688
  123OSM    H3F13108   3.085   0.859   6.786 -2.9267  0.0889 -2.5767
  123OSM    H3G13109   3.165   0.697   6.822  0.5568 -0.7835  0.4302
  123OSM    C4F13110   2.990   0.740   6.949  0.5034 -0.3281  0.0103
  123OSM    H4F13111   2.941   0.640   6.951 -2.1890  0.9245 -0.4598
  123OSM    H4G13112   2.916   0.822   6.942  1.1038  0.2636  0.5961
  123OSM    C5F13113   3.074   0.761   7.076 -0.2222 -0.2311 -0.0454
  123OSM    H5F13114   3.134   0.854   7.071  2.4656 -1.9161  0.0922
  123OSM    H5G13115   3.158   0.689   7.065  0.8344  0.9619  0.1223
  123OSM    C6F13116   2.997   0.754   7.203  0.1964 -0.0787  0.5623
  123OSM    H6F13117   2.960   0.649   7.210 -0.3196  0.1975  2.3406
  123OSM    H6G13118   2.904   0.814   7.199  0.1101 -0.3025 -1.0071
  123OSM    C7F13119   3.084   0.780   7.324 -0.1955 -0.0618  0.3851
  123OSM    H7F13120   3.124   0.883   7.313 -1.4462  0.5647  1.5131
  123OSM    H7G13121   3.158   0.698   7.333  0.1796  0.0990 -1.1091
  123OSM    C8F13122   3.012   0.784   7.464 -0.1439 -1.2617  0.5327
  123OSM    H8F13123   2.963   0.684   7.471 -1.2926 -0.9450 -2.4701
  123OSM    H8G13124   2.939   0.868   7.454  0.9617 -0.1686  1.5176
  123OSM    C9F13125   3.108   0.801   7.578  0.2819 -0.3302 -0.0186
  123OSM    H9F13126   3.214   0.807   7.550  0.4497  1.5348  0.9465
  123OSM   C10F13127   3.074   0.819   7.701  0.1331 -0.2406  0.3318
  123OSM   H10F13128   3.156   0.832   7.773 -1.7685  0.2670  2.4407
  123OSM   C11F13129   2.930   0.828   7.749  0.7447  0.3469  0.3506
  123OSM   H11F13130   2.912   0.751   7.828 -0.4211  0.2496 -0.0051
  123OSM   H11G13131   2.852   0.812   7.673 -1.4014 -0.4805  2.6519
  123OSM   C12F13132   2.897   0.957   7.827 -0.0029  0.3061 -0.3621
  123OSM   H12F13133   2.790   0.961   7.856  0.1901 -2.6470  0.9753
  123OSM   H12G13134   2.913   1.046   7.762  0.3480  1.1817  0.9144
  123OSM   C13F13135   2.976   0.971   7.961 -0.7692 -0.0290  0.3699
  123OSM   H13F13136   3.084   0.967   7.934 -0.7558  1.0953  0.2238
  123OSM   H13G13137   2.957   0.874   8.012 -0.0946 -0.9517 -1.1238
  123OSM   C14F13138   2.934   1.086   8.050 -0.0180 -0.5842 -0.0832
  123OSM   H14F13139   2.916   1.164   7.973 -0.8413 -0.5760  0.1120
  123OSM   H14G13140   3.022   1.125   8.105 -1.2623  2.4660 -0.1727
  123OSM   C15F13141   2.817   1.055   8.145 -0.6176  0.3087  0.3756
  123OSM   H15F13142   2.855   0.977   8.214  1.9611  1.2242  0.0619
  123OSM   H15G13143   2.732   1.021   8.082  0.8310 -2.2336 -0.2626
  123OSM   C16F13144   2.780   1.184   8.221  0.0538  0.3959 -0.0582
  123OSM   H16F13145   2.780   1.265   8.146  1.4706 -1.4517 -2.0998
  123OSM   H16G13146   2.855   1.196   8.301 -1.1555  1.4166  0.9443
  123OSM   C17F13147   2.636   1.181   8.277 -0.4665  0.4377 -0.1046
  123OSM   H17F13148   2.641   1.104   8.356  0.1419  1.5455  0.9486
  123OSM   H17G13149   2.548   1.152   8.216  0.0379  1.2395 -1.2397
  123OSM   C18F13150   2.594   1.319   8.340 -0.1015 -0.7658 -0.4498
  123OSM   H18F13151   2.675   1.356   8.406 -0.8445  0.8471 -0.4042
  123OSM   H18G13152   2.503   1.304   8.402 -0.6132  2.8497 -0.1950
  123OSM   H18H13153   2.571   1.390   8.258  0.5095  1.3088  1.1284
  124OSM      N13154   6.233   4.318   6.303 -0.2354  0.1034 -0.1139
  124OSM    C1513155   6.203   4.420   6.413 -0.1162 -0.1742  0.3847
  124OSM   H15A13156   6.146   4.369   6.489 -0.1380 -1.7327 -0.6408
  124OSM   H15B13157   6.134   4.486   6.364  1.0190  0.6509 -0.1403
  124OSM   H15C13158   6.290   4.469   6.454 -1.5497  1.0653  1.9914
  124OSM    C1413159   6.293   4.390   6.193  0.1997  0.4288  0.1715
  124OSM   H14A13160   6.391   4.421   6.226 -0.3862  1.4528  0.9813
  124OSM   H14B13161   6.243   4.479   6.159 -1.5270 -0.9818 -1.0911
  124OSM   H14C13162   6.301   4.330   6.103 -2.7946 -1.5238  1.1326
  124OSM    C1313163   6.326   4.221   6.358 -0.3774 -0.7065 -0.6242
  124OSM   H13A13164   6.276   4.131   6.391 -2.5161 -0.1214 -2.1827
  124OSM   H13B13165   6.399   4.270   6.421  1.0840 -4.1415  0.4780
  124OSM   H13C13166   6.382   4.166   6.282 -0.5690 -0.7658 -0.7242
  124OSM    C1213167   6.102   4.256   6.255  0.2166 -0.1922  0.1095
  124OSM   H12A13168   6.129   4.193   6.172  0.7657 -0.5043  0.5241
  124OSM   H12B13169   6.055   4.338   6.201 -1.7235 -0.5199  1.2636
  124OSM    C1113170   6.010   4.192   6.355  0.2164  0.1724  0.0437
  124OSM   H11A13171   6.072   4.125   6.417 -0.6090 -0.8194 -0.1998
  124OSM   H11B13172   5.925   4.139   6.307 -0.8516  1.6063  0.3116
  124OSM      P13173   5.841   4.391   6.371 -0.1152  0.2622 -0.0413
  124OSM    O1313174   5.883   4.460   6.251 -0.2656  0.0835  0.9958
  124OSM    O1413175   5.714   4.329   6.374 -0.0755  0.5024 -0.2098
  124OSM    O1113176   5.833   4.509   6.476  0.2219  0.2431  0.3821
  124OSM    O1213177   5.944   4.292   6.437  0.8255 -0.9700  0.1100
  124OSM    C1S13178   5.824   4.475   6.614  0.2282 -0.7970  0.7869
  124OSM    H1S13179   5.906   4.413   6.657  1.5736 -0.7493 -1.5771
  124OSM    H1T13180   5.731   4.416   6.627 -0.2103 -0.4982 -0.8614
  124OSM     NF13181   5.868   4.606   6.831  0.3921 -0.0386 -0.1109
  124OSM    HNF13182   5.800   4.599   6.904 -0.6253  0.4541 -0.9909
  124OSM    C2S13183   5.808   4.602   6.699  0.2245 -0.8297 -0.6403
  124OSM    H2S13184   5.861   4.679   6.638  0.3256 -2.0389 -2.1070
  124OSM    C3S13185   5.657   4.635   6.688  0.1226  0.4302  0.1072
  124OSM    H3S13186   5.588   4.560   6.733 -0.6564  1.5400  0.8119
  124OSM     O313187   5.619   4.652   6.556 -0.1552  0.1945 -0.0639
  124OSM    HO313188   5.693   4.615   6.506  1.1177 -0.3770  2.1726
  124OSM    C4S13189   5.638   4.770   6.763 -0.4485  1.2472  0.3156
  124OSM    H4S13190   5.711   4.852   6.749 -1.1662  2.1316  1.5709
  124OSM    C5S13191   5.546   4.794   6.856 -0.3208 -0.1260 -0.5017
  124OSM    H5S13192   5.477   4.719   6.898 -1.1823 -0.5197 -2.5634
  124OSM    C6S13193   5.538   4.923   6.926 -0.2899 -0.3258 -0.4383
  124OSM    H6S13194   5.439   4.971   6.908  0.1763  0.4155 -1.0407
  124OSM    H6T13195   5.614   4.998   6.897 -2.1758  2.7688  2.2617
  124OSM    C7S13196   5.534   4.917   7.083  0.2910  0.4641 -0.0034
  124OSM    H7S13197   5.526   5.017   7.130  0.0085 -0.2707  1.5542
  124OSM    H7T13198   5.634   4.885   7.121 -0.6944 -2.1889  0.4663
  124OSM    C8S13199   5.414   4.843   7.133  0.1989  0.6817 -0.6470
  124OSM    H8S13200   5.420   4.740   7.091 -2.2555  0.9051 -1.6032
  124OSM    H8T13201   5.317   4.881   7.093 -0.3859 -1.9588 -1.8748
  124OSM    C9S13202   5.417   4.823   7.288  0.1582  0.8511  0.2374
  124OSM    H9S13203   5.523   4.806   7.318  0.1191 -0.2264 -0.2010
  124OSM    H9T13204   5.354   4.733   7.305  1.2665  0.4191  2.1967
  124OSM   C10S13205   5.363   4.935   7.382 -0.1853 -0.0770 -1.5051
  124OSM   H10S13206   5.255   4.961   7.380  0.2827  2.3685  1.3330
  124OSM   H10T13207   5.411   5.034   7.366 -0.9534  0.0696 -2.9223
  124OSM   C11S13208   5.397   4.912   7.529 -0.6430 -0.2966  0.1303
  124OSM   H11S13209   5.495   4.862   7.546 -0.5983  0.0412  0.9007
  124OSM   H11T13210   5.322   4.844   7.574 -0.8344  0.2335  0.6200
  124OSM   C12S13211   5.406   5.046   7.607 -0.0664  0.3708 -0.4469
  124OSM   H12S13212   5.308   5.097   7.621 -0.9378 -1.4047 -0.0299
  124OSM   H12T13213   5.464   5.118   7.545 -0.8326  0.3599 -1.1879
  124OSM   C13S13214   5.475   5.028   7.745  0.1637  0.8436 -0.5455
  124OSM   H13S13215   5.479   5.127   7.796 -1.1327  0.8449 -0.4378
  124OSM   H13T13216   5.576   4.984   7.730 -0.4091 -0.9746  0.7539
  124OSM   C14S13217   5.398   4.929   7.835 -0.1852  0.5804  0.7218
  124OSM   H14S13218   5.419   4.828   7.794  0.5864  0.9675  0.1624
  124OSM   H14T13219   5.288   4.944   7.831 -0.2136  0.5569  1.3801
  124OSM   C15S13220   5.443   4.918   7.983  0.8831  0.2792  0.0488
  124OSM   H15S13221   5.404   5.004   8.041  1.8529  0.1922  0.8400
  124OSM   H15T13222   5.554   4.909   7.992  0.8946  1.1732  0.8492
  124OSM   C16S13223   5.393   4.782   8.037  0.1846  0.4972 -0.1712
  124OSM   H16S13224   5.432   4.701   7.972  1.6738 -0.7384  2.1896
  124OSM   H16T13225   5.283   4.765   8.035  0.2486 -0.2464  1.9107
  124OSM   C17S13226   5.446   4.756   8.180  0.4560 -0.4653  0.8811
  124OSM   H17S13227   5.400   4.836   8.242 -0.4444  0.2671 -0.6906
  124OSM   H17T13228   5.556   4.748   8.190  0.5559 -1.5460 -0.9869
  124OSM   C18S13229   5.399   4.620   8.243  0.3191 -0.3918  0.1256
  124OSM   H18S13230   5.415   4.614   8.352  0.2778 -1.9652  0.0572
  124OSM   H18T13231   5.459   4.538   8.199  2.2936 -0.1179  2.2726
  124OSM   H18U13232   5.289   4.607   8.234 -0.2454  2.2709  2.5160
  124OSM    C1F13233   5.996   4.583   6.850 -0.0708  0.0556 -0.1820
  124OSM     OF13234   6.067   4.548   6.758 -0.1999 -0.4789  0.4408
  124OSM    C2F13235   6.031   4.601   6.995 -0.8872 -0.3782  0.3169
  124OSM    H2F13236   6.033   4.496   7.031 -0.8760 -0.6715 -0.5161
  124OSM    H2G13237   5.959   4.665   7.050 -1.6937  0.7683 -1.9655
  124OSM    C3F13238   6.166   4.669   7.011 -0.6189 -0.1396 -0.0462
  124OSM    H3F13239   6.185   4.763   6.954  3.9838  1.6507  4.1313
  124OSM    H3G13240   6.245   4.602   6.972  0.4235  0.9286  0.1932
  124OSM    C4F13241   6.194   4.699   7.154  0.2617 -0.5099 -0.4710
  124OSM    H4F13242   6.299   4.732   7.171 -0.1859 -0.3092  2.1499
  124OSM    H4G13243   6.179   4.613   7.223 -1.4287 -1.2153 -1.6903
  124OSM    C5F13244   6.111   4.819   7.210  0.2685  0.2043 -0.7306
  124OSM    H5F13245   6.003   4.794   7.203  0.3377  0.0158 -1.1244
  124OSM    H5G13246   6.121   4.913   7.154 -1.1968  1.2660  0.7340
  124OSM    C6F13247   6.133   4.836   7.368  0.0976  0.2191  0.2356
  124OSM    H6F13248   6.084   4.753   7.423 -1.1334  0.2905 -0.7506
  124OSM    H6G13249   6.074   4.926   7.397  1.1278  0.5103  1.4818
  124OSM    C7F13250   6.278   4.861   7.413  0.1871 -0.8922  0.4477
  124OSM    H7F13251   6.273   4.912   7.511 -0.1899 -0.6531  0.3070
  124OSM    H7G13252   6.332   4.922   7.337 -0.8981  1.3243  1.4295
  124OSM    C8F13253   6.369   4.740   7.441  0.5168 -1.0122  0.8006
  124OSM    H8F13254   6.381   4.679   7.349 -1.3418  1.2851 -1.0421
  124OSM    H8G13255   6.321   4.679   7.521 -1.5785 -1.9476 -1.1065
  124OSM    C9F13256   6.511   4.784   7.482 -0.9381 -0.3810  0.0011
  124OSM    H9F13257   6.547   4.863   7.416 -0.2833  0.2384  1.0772
  124OSM   C10F13258   6.591   4.745   7.576 -0.2445 -0.2413 -0.8638
  124OSM   H10F13259   6.687   4.793   7.600 -2.0049  1.8639  2.4765
  124OSM   C11F13260   6.546   4.653   7.690 -0.2122 -0.0022  0.3306
  124OSM   H11F13261   6.576   4.548   7.669 -1.4749 -0.2567 -0.2067
  124OSM   H11G13262   6.438   4.648   7.713 -0.6406  0.9114 -1.3739
  124OSM   C12F13263   6.607   4.708   7.817  0.0559  0.1063  0.1300
  124OSM   H12F13264   6.569   4.812   7.821  2.5546  1.0330  1.1623
  124OSM   H12G13265   6.718   4.719   7.808 -0.0125  0.8008  0.0824
  124OSM   C13F13266   6.568   4.628   7.940  0.1568  0.1337  0.8254
  124OSM   H13F13267   6.614   4.527   7.933 -2.9866 -1.4040  1.2897
  124OSM   H13G13268   6.458   4.612   7.933  0.0961  0.4238  1.1150
  124OSM   C14F13269   6.611   4.697   8.066 -0.1559 -0.5192  0.3367
  124OSM   H14F13270   6.566   4.798   8.072  1.3620  0.2229 -0.4421
  124OSM   H14G13271   6.718   4.723   8.052 -0.1136 -0.2576  1.1289
  124OSM   C15F13272   6.581   4.617   8.192 -0.0775  0.3744  0.0496
  124OSM   H15F13273   6.627   4.516   8.192 -1.0594 -0.0747  1.1873
  124OSM   H15G13274   6.472   4.600   8.205 -0.5779  1.9236 -1.9663
  124OSM   C16F13275   6.630   4.679   8.323 -0.4567 -0.0117  0.2324
  124OSM   H16F13276   6.576   4.776   8.334 -1.2915 -0.2886 -1.2489
  124OSM   H16G13277   6.733   4.718   8.313 -0.7811  0.4066 -1.7885
  124OSM   C17F13278   6.616   4.594   8.441 -0.4486 -0.1287  0.3157
  124OSM   H17F13279   6.674   4.633   8.528  3.8722 -4.5901 -0.3316
  124OSM   H17G13280   6.671   4.499   8.421 -1.4796 -1.1363  2.2056
  124OSM   C18F13281   6.473   4.558   8.487 -0.0881  0.2818 -0.3739
  124OSM   H18F13282   6.429   4.502   8.402 -0.7292  1.9333 -1.1525
  124OSM   H18G13283   6.405   4.645   8.488 -0.0995  0.2703 -0.1775
  124OSM   H18H13284   6.463   4.494   8.577 -1.9052  1.4982  0.3012
  125OSM      N13285   6.218   6.099   5.974 -1.0699  0.1809 -0.0688
  125OSM    C1513286   6.245   5.952   5.954  0.2417  0.2568 -0.0898
  125OSM   H15A13287   6.309   5.910   6.029 -1.0114  0.0990  0.9006
  125OSM   H15B13288   6.271   5.930   5.852  0.7406 -0.4221  0.1833
  125OSM   H15C13289   6.153   5.898   5.968  0.0907  0.3354 -0.7492
  125OSM    C1413290   6.353   6.170   5.975 -0.3257  0.0658  0.3014
  125OSM   H14A13291   6.396   6.175   6.074  1.1312 -1.9440 -0.2100
  125OSM   H14B13292   6.349   6.267   5.927 -1.5882 -2.0945 -4.2911
  125OSM   H14C13293   6.418   6.112   5.911  2.7438  1.8479  1.7251
  125OSM    C1313294   6.132   6.134   5.859  0.0615  0.3854 -0.1822
  125OSM   H13A13295   6.110   6.239   5.847  1.3760  0.5979 -0.7259
  125OSM   H13B13296   6.030   6.100   5.872  0.2190  0.3814  1.1514
  125OSM   H13C13297   6.183   6.092   5.774 -2.0683 -0.7872 -0.9139
  125OSM    C1213298   6.144   6.121   6.107 -0.5243 -0.4661 -0.4161
  125OSM   H12A13299   6.145   6.227   6.128 -0.1130 -0.2729 -1.3910
  125OSM   H12B13300   6.204   6.078   6.186  1.3800  0.3545 -1.3688
  125OSM    C1113301   6.000   6.054   6.131  0.5019 -0.1511  0.8162
  125OSM   H11A13302   5.923   6.101   6.067 -0.1802 -0.0189  1.7236
  125OSM   H11B13303   5.964   6.082   6.232 -0.3524 -0.9023  0.7247
  125OSM      P13304   5.897   5.809   6.152  0.1992  0.3718  0.1635
  125OSM    O1313305   5.777   5.818   6.068 -0.0136 -0.2414 -0.3350
  125OSM    O1413306   5.966   5.685   6.167  0.4818  0.2630 -0.7490
  125OSM    O1113307   5.863   5.857   6.307  0.4027  0.2560  0.1014
  125OSM    O1213308   5.997   5.912   6.098  0.3237 -0.2306  0.5267
  125OSM    C1S13309   5.961   5.842   6.411 -0.1276 -0.5868 -0.1320
  125OSM    H1S13310   6.047   5.909   6.387 -0.6030 -0.4777 -1.5617
  125OSM    H1T13311   5.998   5.737   6.410  2.0540  0.1511 -1.1228
  125OSM     NF13312   6.011   5.860   6.648  0.1614 -0.2205  0.1247
  125OSM    HNF13313   5.994   5.797   6.724 -0.8429  0.3908  0.4223
  125OSM    C2S13314   5.903   5.877   6.551  0.0270 -0.0979 -0.6306
  125OSM    H2S13315   5.866   5.981   6.546 -0.4380 -0.0563  2.2876
  125OSM    C3S13316   5.775   5.802   6.584 -0.4971  0.3185  0.3667
  125OSM    H3S13317   5.799   5.701   6.624 -0.7514  0.0475 -0.1665
  125OSM     O313318   5.686   5.782   6.477  0.3036 -0.1926 -0.2843
  125OSM    HO313319   5.731   5.818   6.400  0.0634 -2.1594 -1.3972
  125OSM    C4S13320   5.697   5.866   6.704 -0.6479  0.2385 -0.6452
  125OSM    H4S13321   5.733   5.834   6.803 -0.8699  1.1565 -0.2579
  125OSM    C5S13322   5.611   5.963   6.695 -0.1275 -0.6271 -0.1843
  125OSM    H5S13323   5.580   6.013   6.601 -3.2488 -1.5537  0.2734
  125OSM    C6S13324   5.535   6.030   6.808 -0.3470  0.6418 -0.8046
  125OSM    H6S13325   5.430   5.994   6.802 -0.3308  0.4251  0.2089
  125OSM    H6T13326   5.546   6.140   6.800  2.0624  0.6040  1.2732
  125OSM    C7S13327   5.574   6.003   6.956  0.0138 -0.0449  0.1457
  125OSM    H7S13328   5.683   6.025   6.953 -0.2384  1.1212 -2.5049
  125OSM    H7T13329   5.558   5.901   6.997 -3.1556 -0.3263 -1.5850
  125OSM    C8S13330   5.520   6.102   7.061 -0.0529  0.4762  0.5286
  125OSM    H8S13331   5.523   6.204   7.017  1.2438 -0.0114 -0.5561
  125OSM    H8T13332   5.594   6.110   7.144  1.1139 -1.7679 -0.2539
  125OSM    C9S13333   5.377   6.057   7.112  0.5648 -0.9788 -0.0925
  125OSM    H9S13334   5.369   5.962   7.169 -2.1737 -1.1478 -0.7142
  125OSM    H9T13335   5.308   6.054   7.025 -0.4696 -0.4564  0.7083
  125OSM   C10S13336   5.333   6.172   7.199 -0.2954 -0.2226  1.2357
  125OSM   H10S13337   5.224   6.168   7.222 -0.1826 -2.3869  1.5331
  125OSM   H10T13338   5.348   6.269   7.148 -0.3505 -1.4113 -1.1046
  125OSM   C11S13339   5.415   6.177   7.326 -0.5038  0.2933 -0.7410
  125OSM   H11S13340   5.514   6.220   7.302 -0.0096 -0.8742 -0.7877
  125OSM   H11T13341   5.441   6.074   7.360  0.4630  1.8777  3.7219
  125OSM   C12S13342   5.348   6.239   7.443 -0.1308 -0.0573  0.6495
  125OSM   H12S13343   5.243   6.204   7.451 -0.6564  1.4970  0.7430
  125OSM   H12T13344   5.350   6.350   7.445  0.0399 -0.0599  0.6461
  125OSM   C13S13345   5.416   6.188   7.572 -0.5692 -0.3638 -0.1530
  125OSM   H13S13346   5.519   6.229   7.578 -0.2510 -0.8924 -1.6995
  125OSM   H13T13347   5.429   6.078   7.569 -1.6644 -0.4710 -1.7154
  125OSM   C14S13348   5.326   6.210   7.700  0.2054  0.5261 -0.3995
  125OSM   H14S13349   5.225   6.164   7.685  0.7739 -0.9877  0.2579
  125OSM   H14T13350   5.321   6.320   7.711 -1.9642  0.3354  0.9710
  125OSM   C15S13351   5.400   6.155   7.818  0.5926  0.0140 -0.2804
  125OSM   H15S13352   5.492   6.213   7.843 -0.3332  0.2735  2.6667
  125OSM   H15T13353   5.420   6.047   7.799  1.2028 -0.0119  0.4569
  125OSM   C16S13354   5.304   6.177   7.940  0.2335 -0.3787 -0.1521
  125OSM   H16S13355   5.207   6.125   7.928 -0.9862  1.6881  0.4463
  125OSM   H16T13356   5.283   6.284   7.921 -1.9921 -1.0974 -1.8796
  125OSM   C17S13357   5.371   6.154   8.079  0.2639 -0.4526 -0.5152
  125OSM   H17S13358   5.437   6.238   8.106 -0.3041 -0.6187  1.4358
  125OSM   H17T13359   5.411   6.050   8.075 -2.0012 -1.3379 -0.9928
  125OSM   C18S13360   5.261   6.161   8.186 -0.7815  0.0369 -0.3120
  125OSM   H18S13361   5.304   6.182   8.286 -0.7240  2.0978 -0.7456
  125OSM   H18T13362   5.199   6.069   8.193 -0.9551  0.0670 -1.3214
  125OSM   H18U13363   5.194   6.247   8.164  1.6378  2.1891  0.4350
  125OSM    C1F13364   6.124   5.919   6.642 -0.2696  0.5215  0.7533
  125OSM     OF13365   6.125   6.025   6.578 -0.3265  0.4978  0.6500
  125OSM    C2F13366   6.232   5.848   6.707 -0.8372 -0.4284  0.1986
  125OSM    H2F13367   6.258   5.754   6.654 -1.0565 -0.6839  0.5414
  125OSM    H2G13368   6.196   5.808   6.804 -0.3884 -1.0685  0.1026
  125OSM    C3F13369   6.350   5.938   6.727  0.4988 -0.5270 -0.4576
  125OSM    H3F13370   6.321   6.002   6.813  1.1431 -2.0773  0.9398
  125OSM    H3G13371   6.375   5.989   6.631 -0.9576  2.8703  0.8891
  125OSM    C4F13372   6.468   5.864   6.778 -0.1139  0.3648  0.0482
  125OSM    H4F13373   6.554   5.934   6.784  0.5062 -0.2961 -0.9873
  125OSM    H4G13374   6.505   5.794   6.700  0.3548  2.3303 -1.5471
  125OSM    C5F13375   6.443   5.781   6.907 -0.1627  0.1900  0.0370
  125OSM    H5F13376   6.536   5.731   6.939 -0.4983  0.5711  1.6544
  125OSM    H5G13377   6.365   5.706   6.880  2.3919 -2.0367 -1.3915
  125OSM    C6F13378   6.400   5.866   7.031 -0.2378 -0.0077 -0.0938
  125OSM    H6F13379   6.293   5.886   7.010 -0.4594 -2.5994 -1.6418
  125OSM    H6G13380   6.449   5.965   7.030  0.1440 -0.1954 -2.9439
  125OSM    C7F13381   6.418   5.787   7.162 -0.3679  0.6494  0.1469
  125OSM    H7F13382   6.521   5.808   7.198 -1.5094  1.5964  3.0508
  125OSM    H7G13383   6.389   5.683   7.136 -0.1787  0.5544  0.3170
  125OSM    C8F13384   6.310   5.833   7.260 -0.1626 -0.4594 -0.9631
  125OSM    H8F13385   6.318   5.752   7.335 -0.3461 -0.6091 -1.1070
  125OSM    H8G13386   6.213   5.828   7.206  0.5667  1.1774 -2.4808
  125OSM    C9F13387   6.339   5.964   7.326 -0.0872  0.1747  0.3562
  125OSM    H9F13388   6.345   6.044   7.251 -0.6028 -0.1873 -0.0745
  125OSM   C10F13389   6.341   5.991   7.458  0.0697  0.7987 -0.3755
  125OSM   H10F13390   6.375   6.092   7.485  2.1375  0.3535 -1.1478
  125OSM   C11F13391   6.323   5.882   7.572 -0.3859 -0.1291  0.1479
  125OSM   H11F13392   6.379   5.796   7.529 -0.8606  0.0417 -0.8434
  125OSM   H11G13393   6.217   5.855   7.592 -0.2518 -0.2377  0.7072
  125OSM   C12F13394   6.390   5.920   7.703 -0.3245  0.1851 -0.2269
  125OSM   H12F13395   6.501   5.920   7.702 -0.2515  2.9809  1.6589
  125OSM   H12G13396   6.353   5.850   7.781 -2.5615 -1.0723 -2.3548
  125OSM   C13F13397   6.338   6.057   7.760  0.5251 -0.2094  0.4896
  125OSM   H13F13398   6.234   6.065   7.721 -0.3538 -2.7651  2.1036
  125OSM   H13G13399   6.389   6.140   7.707  0.6925 -1.2507 -1.0202
  125OSM   C14F13400   6.354   6.081   7.906  0.0063  0.0418  1.1037
  125OSM   H14F13401   6.463   6.071   7.927  0.3632  1.3679 -0.0489
  125OSM   H14G13402   6.295   6.004   7.960  1.0326 -0.2039  1.8915
  125OSM   C15F13403   6.326   6.224   7.949  0.8158 -0.1108  0.3168
  125OSM   H15F13404   6.217   6.244   7.941 -0.0442 -3.0829  3.3364
  125OSM   H15G13405   6.374   6.300   7.884 -0.8692 -1.0917 -2.1485
  125OSM   C16F13406   6.385   6.238   8.090  0.2913 -0.3967  0.9688
  125OSM   H16F13407   6.494   6.227   8.073  0.0969  2.6569 -2.8445
  125OSM   H16G13408   6.338   6.148   8.136 -2.8087 -0.1382 -1.5355
  125OSM   C17F13409   6.337   6.360   8.169 -0.3407 -0.7572  0.2184
  125OSM   H17F13410   6.368   6.456   8.123 -1.3535  1.1094  3.3557
  125OSM   H17G13411   6.374   6.357   8.273 -2.3089  1.1798  1.0133
  125OSM   C18F13412   6.179   6.365   8.175 -0.0819  0.2481 -0.4578
  125OSM   H18F13413   6.149   6.434   8.257  0.1593 -0.0321 -0.1328
  125OSM   H18G13414   6.145   6.262   8.201  1.3879  0.0531  0.7740
  125OSM   H18H13415   6.142   6.400   8.077  0.0491  0.1784 -0.5333
  126OSM      N13416   3.231   6.269   6.139  0.3793  0.1121 -1.1259
  126OSM    C1513417   3.234   6.304   6.282  0.1034 -0.3096  0.2553
  126OSM   H15A13418   3.280   6.400   6.297 -0.0812 -0.5711  2.6651
  126OSM   H15B13419   3.288   6.231   6.340  1.0134 -1.5571 -2.1082
  126OSM   H15C13420   3.137   6.313   6.329 -0.8250  3.9438 -2.2060
  126OSM    C1413421   3.129   6.346   6.068  0.5959  0.2672  0.6272
  126OSM   H14A13422   3.112   6.300   5.972  1.1450  1.8748 -0.2631
  126OSM   H14B13423   3.160   6.449   6.063 -0.2852  0.4606 -1.4351
  126OSM   H14C13424   3.036   6.349   6.123 -0.9309 -0.2970 -1.8363
  126OSM    C1313425   3.364   6.288   6.077 -0.2540  0.6676  0.4420
  126OSM   H13A13426   3.357   6.274   5.970  3.7507  1.9723 -0.0678
  126OSM   H13B13427   3.438   6.222   6.120 -1.9755 -2.1822 -0.8054
  126OSM   H13C13428   3.395   6.391   6.071  2.4005  0.0742  3.0001
  126OSM    C1213429   3.186   6.117   6.126 -0.2232 -0.2191  0.5475
  126OSM   H12A13430   3.170   6.092   6.022  0.0811  0.1416  0.4104
  126OSM   H12B13431   3.089   6.106   6.172  0.1052  0.2515  1.3546
  126OSM    C1113432   3.267   6.008   6.187  0.2300 -0.8136 -0.1044
  126OSM   H11A13433   3.375   6.013   6.159  0.7493  1.7559  2.1449
  126OSM   H11B13434   3.229   5.911   6.149  0.5743 -0.7622 -0.5884
  126OSM      P13435   3.139   5.957   6.407  0.4054  0.0778  0.2702
  126OSM    O1313436   3.053   6.067   6.452  0.2460  0.3740  0.5729
  126OSM    O1413437   3.078   5.859   6.320 -0.7256 -0.0088  1.1009
  126OSM    O1113438   3.204   5.877   6.527 -0.1903 -0.0324  0.6695
  126OSM    O1213439   3.267   6.022   6.333 -0.4834  0.6869  0.3524
  126OSM    C1S13440   3.267   5.957   6.632  0.2862 -0.1744  1.0173
  126OSM    H1S13441   3.218   6.056   6.639  2.9127  1.2572 -0.2327
  126OSM    H1T13442   3.372   5.979   6.603 -0.4102  1.6867 -0.1890
  126OSM     NF13443   3.322   5.986   6.874  1.1566 -0.4544 -0.1781
  126OSM    HNF13444   3.415   5.973   6.907  1.1937 -1.2167 -0.5797
  126OSM    C2S13445   3.261   5.889   6.775 -0.3089  0.0201 -0.1899
  126OSM    H2S13446   3.158   5.880   6.814 -0.0105  0.3097  0.6856
  126OSM    C3S13447   3.332   5.746   6.774  0.4194 -0.6129  1.0004
  126OSM    H3S13448   3.441   5.767   6.765  0.3695  0.2264  2.2710
  126OSM     O313449   3.300   5.663   6.664 -0.2904 -0.6199 -0.1518
  126OSM    HO313450   3.243   5.715   6.607 -1.5233 -2.4001 -0.5748
  126OSM    C4S13451   3.308   5.666   6.905 -0.4858 -0.0325 -0.5812
  126OSM    H4S13452   3.392   5.652   6.975 -1.4245 -2.6348  0.0620
  126OSM    C5S13453   3.195   5.599   6.932 -0.9896 -0.5781  0.8949
  126OSM    H5S13454   3.113   5.603   6.858  0.7821  1.8611 -1.0185
  126OSM    C6S13455   3.164   5.515   7.046  0.8306 -0.4247  0.0338
  126OSM    H6S13456   3.173   5.407   7.019 -0.9766 -0.5357 -0.1667
  126OSM    H6T13457   3.056   5.529   7.068  1.7440  2.9121  2.8083
  126OSM    C7S13458   3.236   5.536   7.179  0.1530 -0.6201 -0.4781
  126OSM    H7S13459   3.345   5.539   7.157  0.6939 -1.5619  1.8992
  126OSM    H7T13460   3.221   5.445   7.242 -0.8114 -1.2600 -1.6227
  126OSM    C8S13461   3.198   5.655   7.271 -0.2217 -0.0706  0.0943
  126OSM    H8S13462   3.087   5.656   7.271 -0.2486  1.7596  2.4896
  126OSM    H8T13463   3.234   5.752   7.230  0.0056 -0.3121 -0.2842
  126OSM    C9S13464   3.245   5.630   7.416 -0.3975  0.3300 -0.3798
  126OSM    H9S13465   3.351   5.595   7.418 -0.4380  0.2003 -0.5022
  126OSM    H9T13466   3.195   5.539   7.455  1.5417  0.2409  2.0619
  126OSM   C10S13467   3.225   5.746   7.510  0.6671  0.6715  0.0519
  126OSM   H10S13468   3.118   5.775   7.523  0.3457 -0.7647  0.6755
  126OSM   H10T13469   3.273   5.834   7.463  1.7161  0.2074  0.2502
  126OSM   C11S13470   3.271   5.731   7.651  0.9466  0.6846 -0.2244
  126OSM   H11S13471   3.221   5.816   7.701 -0.3350  0.5844 -1.3027
  126OSM   H11T13472   3.381   5.741   7.657  0.9418  1.0361 -0.7606
  126OSM   C12S13473   3.246   5.597   7.728  0.2089 -0.5832 -0.6570
  126OSM   H12S13474   3.281   5.510   7.669 -1.1749  0.0055 -2.3815
  126OSM   H12T13475   3.136   5.590   7.744  0.0927  2.4787  0.1347
  126OSM   C13S13476   3.318   5.594   7.865 -0.0027 -0.2989 -0.1222
  126OSM   H13S13477   3.429   5.591   7.858 -0.1774 -2.3089 -2.8377
  126OSM   H13T13478   3.275   5.508   7.921 -0.5077 -1.9069 -2.8978
  126OSM   C14S13479   3.273   5.711   7.954  0.4283 -0.5050  0.7324
  126OSM   H14S13480   3.165   5.700   7.978  0.7407  1.1910  3.1013
  126OSM   H14T13481   3.307   5.810   7.917  1.8167 -2.0787 -2.4019
  126OSM   C15S13482   3.340   5.708   8.095 -0.0139  0.1009  0.1355
  126OSM   H15S13483   3.451   5.717   8.088  0.0536  0.8607  1.8348
  126OSM   H15T13484   3.320   5.616   8.153 -0.3946 -1.2829 -2.1366
  126OSM   C16S13485   3.298   5.830   8.181 -0.1626 -0.3210 -0.4694
  126OSM   H16S13486   3.187   5.843   8.182 -0.1696 -0.3981 -0.0883
  126OSM   H16T13487   3.339   5.923   8.135 -0.1609  0.6248  1.3890
  126OSM   C17S13488   3.350   5.826   8.325  1.0573  0.5549  0.1024
  126OSM   H17S13489   3.460   5.843   8.330  0.9208  1.5967 -0.3667
  126OSM   H17T13490   3.348   5.718   8.350  1.3189  0.8789  1.5877
  126OSM   C18S13491   3.282   5.923   8.427  0.0927  0.0714  0.0740
  126OSM   H18S13492   3.324   5.924   8.530 -0.6172 -2.2276  0.4275
  126OSM   H18T13493   3.173   5.902   8.433 -0.0731  0.0240 -2.6541
  126OSM   H18U13494   3.296   6.025   8.385 -1.7263 -0.3997 -1.7432
  126OSM    C1F13495   3.258   6.102   6.897 -0.5430  0.2885  0.8133
  126OSM     OF13496   3.143   6.111   6.864 -1.0166 -0.0497  0.3521
  126OSM    C2F13497   3.344   6.214   6.947 -0.1675 -0.5051  0.7599
  126OSM    H2F13498   3.364   6.296   6.876  0.6157 -1.1671  0.2077
  126OSM    H2G13499   3.443   6.168   6.965  0.7487  0.5869 -1.3506
  126OSM    C3F13500   3.291   6.274   7.083 -0.8003 -0.2397  0.2222
  126OSM    H3F13501   3.306   6.190   7.154  0.8996  0.4247  0.6684
  126OSM    H3G13502   3.181   6.286   7.075 -0.7466  0.2662  0.2211
  126OSM    C4F13503   3.351   6.402   7.117 -0.0620 -0.2462 -0.0741
  126OSM    H4F13504   3.302   6.445   7.208 -0.3937  1.2325 -0.9334
  126OSM    H4G13505   3.328   6.467   7.030 -2.1541 -2.3111 -1.1052
  126OSM    C5F13506   3.504   6.393   7.139 -0.8359 -0.1696 -0.0357
  126OSM    H5F13507   3.552   6.380   7.040  1.4504  1.1655  0.8321
  126OSM    H5G13508   3.539   6.306   7.199 -1.7785 -0.2047  0.4596
  126OSM    C6F13509   3.570   6.517   7.201  0.1663  0.0455 -0.9761
  126OSM    H6F13510   3.674   6.499   7.238 -0.7888 -0.6507  1.4820
  126OSM    H6G13511   3.517   6.549   7.293  1.9702  0.4321 -0.0378
  126OSM    C7F13512   3.560   6.642   7.114  0.2417 -0.4746  0.1786
  126OSM    H7F13513   3.461   6.644   7.063 -0.4497  1.0709  1.5360
  126OSM    H7G13514   3.650   6.645   7.049 -0.2919  2.1774 -0.4802
  126OSM    C8F13515   3.572   6.769   7.192 -0.5255 -0.0852 -0.4872
  126OSM    H8F13516   3.659   6.773   7.261 -0.2673  1.0440 -0.8614
  126OSM    H8G13517   3.481   6.788   7.254  0.8094  0.3526  1.3734
  126OSM    C9F13518   3.589   6.887   7.094  0.5895 -0.4237  0.1776
  126OSM    H9F13519   3.503   6.903   7.028  1.3213  1.1871 -0.4200
  126OSM   C10F13520   3.688   6.978   7.089  0.0260 -0.1222 -0.8387
  126OSM   H10F13521   3.693   7.055   7.010 -0.7951  0.3198 -0.4632
  126OSM   C11F13522   3.806   6.979   7.181  0.8566  0.1325  0.4146
  126OSM   H11F13523   3.887   7.012   7.114 -1.0550 -1.6865 -2.9432
  126OSM   H11G13524   3.838   6.881   7.223 -0.1849 -0.7235 -0.7270
  126OSM   C12F13525   3.815   7.087   7.291 -0.0829 -0.2411 -0.4221
  126OSM   H12F13526   3.806   7.191   7.252  0.1822 -0.1834 -0.3327
  126OSM   H12G13527   3.914   7.077   7.341 -1.4356 -0.6122  2.3027
  126OSM   C13F13528   3.720   7.082   7.399 -0.3626 -0.0645  0.1028
  126OSM   H13F13529   3.621   7.060   7.353 -0.1393 -2.8349  0.8320
  126OSM   H13G13530   3.720   7.176   7.459  0.4799  0.3278 -0.5192
  126OSM   C14F13531   3.734   6.959   7.497  0.2407 -0.1729 -0.1476
  126OSM   H14F13532   3.820   6.965   7.568 -1.6405 -3.0454  2.5116
  126OSM   H14G13533   3.765   6.873   7.435  2.0159  1.1667 -1.1709
  126OSM   C15F13534   3.601   6.896   7.565 -0.5570  0.2065  0.0216
  126OSM   H15F13535   3.520   6.934   7.500  1.3563 -0.8713 -3.1310
  126OSM   H15G13536   3.599   6.941   7.667 -1.6828 -0.7742  0.4287
  126OSM   C16F13537   3.591   6.744   7.583  0.6534 -0.3650  0.5694
  126OSM   H16F13538   3.608   6.698   7.483 -2.2154  1.4513 -0.8248
  126OSM   H16G13539   3.494   6.709   7.623 -0.4477  1.4061 -0.4693
  126OSM   C17F13540   3.695   6.686   7.683  0.3796 -0.0596 -0.9242
  126OSM   H17F13541   3.674   6.741   7.777  0.1153  0.0198 -1.0298
  126OSM   H17G13542   3.799   6.723   7.678  0.5360 -0.0722  1.5866
  126OSM   C18F13543   3.698   6.531   7.699 -0.2325 -0.1082 -0.2876
  126OSM   H18F13544   3.595   6.498   7.724 -0.5625  0.3035 -1.0873
  126OSM   H18G13545   3.769   6.498   7.778 -0.3911  1.9270  0.7165
  126OSM   H18H13546   3.718   6.485   7.600 -2.9863  0.8956 -1.3579
  127OSM      N13547   3.605   4.843   6.024 -0.0315 -0.4446  0.3633
  127OSM    C1513548   3.683   4.930   5.933  0.5452 -0.1647 -0.4416
  127OSM   H15A13549   3.790   4.914   5.942  0.5426 -0.2968 -0.6413
  127OSM   H15B13550   3.658   5.032   5.959  0.4683 -0.1201 -0.6914
  127OSM   H15C13551   3.663   4.908   5.830  1.7725 -0.5539 -0.6030
  127OSM    C1413552   3.455   4.859   6.004 -0.3740  0.0261  0.2052
  127OSM   H14A13553   3.400   4.802   6.078  0.3792  0.3862  1.0552
  127OSM   H14B13554   3.426   4.836   5.903  2.1838 -1.0997 -0.3077
  127OSM   H14C13555   3.429   4.963   6.010  1.4608  0.5402 -0.5035
  127OSM    C1313556   3.637   4.698   6.009  0.0521  0.2924  0.4674
  127OSM   H13A13557   3.628   4.671   5.904 -0.7852  2.5342 -0.0560
  127OSM   H13B13558   3.571   4.629   6.059 -0.2234  0.6661  0.6198
  127OSM   H13C13559   3.742   4.692   6.033 -0.8934 -0.7210  4.7294
  127OSM    C1213560   3.637   4.884   6.165 -0.9171  0.0922  0.4232
  127OSM   H12A13561   3.581   4.819   6.231 -0.6003  0.2586  0.8572
  127OSM   H12B13562   3.593   4.983   6.176  1.2329  1.0129  0.9843
  127OSM    C1113563   3.789   4.886   6.210  0.0209 -0.0472 -0.4350
  127OSM   H11A13564   3.785   4.942   6.306 -1.1202 -4.8104  2.4887
  127OSM   H11B13565   3.838   4.958   6.142  0.0185  0.0116 -0.3748
  127OSM      P13566   3.992   4.708   6.187  0.1658  0.6576  0.2963
  127OSM    O1313567   4.007   4.605   6.074  0.0670  0.5389  0.0995
  127OSM    O1413568   4.074   4.833   6.182 -0.5322 -0.0751 -0.4827
  127OSM    O1113569   4.026   4.631   6.320 -0.4551  0.5872 -0.1090
  127OSM    O1213570   3.835   4.743   6.210 -0.0640  0.0952  0.7806
  127OSM    C1S13571   4.041   4.705   6.439 -0.6258  0.4931 -0.4419
  127OSM    H1S13572   3.951   4.769   6.454 -0.6631  0.5885 -1.0776
  127OSM    H1T13573   4.130   4.770   6.425  0.5996 -1.2236 -0.7733
  127OSM     NF13574   4.057   4.680   6.678  0.3453  0.2564  0.1918
  127OSM    HNF13575   4.136   4.691   6.738  0.6732  0.6895 -0.3099
  127OSM    C2S13576   4.076   4.610   6.554  0.9377 -0.7035  0.7878
  127OSM    H2S13577   4.003   4.527   6.546  2.6128 -2.0136 -1.5295
  127OSM    C3S13578   4.218   4.558   6.533 -0.3439 -0.2036  0.2184
  127OSM    H3S13579   4.288   4.644   6.517 -1.4966 -0.0830 -5.0638
  127OSM     O313580   4.237   4.483   6.413  0.3672 -0.8431 -0.4384
  127OSM    HO313581   4.157   4.504   6.364  0.9240  0.9070 -0.6337
  127OSM    C4S13582   4.267   4.484   6.656  0.2049 -0.1175  1.0097
  127OSM    H4S13583   4.323   4.549   6.725  0.7219  0.9011 -0.3522
  127OSM    C5S13584   4.228   4.353   6.687 -0.5320  0.0099 -0.2811
  127OSM    H5S13585   4.157   4.300   6.622 -0.2821 -1.9697  1.0008
  127OSM    C6S13586   4.255   4.278   6.821  0.0861  0.3794 -0.3309
  127OSM    H6S13587   4.305   4.179   6.814  2.3781  1.3171  2.0985
  127OSM    H6T13588   4.151   4.260   6.855  0.6173 -1.7693  0.2537
  127OSM    C7S13589   4.337   4.343   6.940  0.1676 -0.6575  0.2860
  127OSM    H7S13590   4.442   4.356   6.907 -0.8758  0.8153 -2.6425
  127OSM    H7T13591   4.329   4.274   7.027 -0.5227 -0.4989  0.3477
  127OSM    C8S13592   4.277   4.475   6.989 -0.2236 -0.3363  0.3017
  127OSM    H8S13593   4.174   4.450   7.023 -0.2329 -2.0594 -0.9283
  127OSM    H8T13594   4.267   4.552   6.910 -0.9199 -0.3209  0.3995
  127OSM    C9S13595   4.342   4.524   7.120  0.4809  0.2100  0.2274
  127OSM    H9S13596   4.443   4.568   7.105  0.2997  0.8961  0.9636
  127OSM    H9T13597   4.347   4.437   7.189 -0.6673 -0.4476 -0.5004
  127OSM   C10S13598   4.271   4.639   7.193  0.4220  0.0927  0.8267
  127OSM   H10S13599   4.168   4.599   7.202  1.3328 -3.5126 -3.1443
  127OSM   H10T13600   4.259   4.732   7.132  1.4752  1.4221  2.5912
  127OSM   C11S13601   4.329   4.687   7.329  0.8655  0.1754  0.3748
  127OSM   H11S13602   4.270   4.774   7.368  1.5661  0.1594  1.4809
  127OSM   H11T13603   4.431   4.728   7.314  2.0011 -1.9829  1.8821
  127OSM   C12S13604   4.337   4.583   7.446 -0.0557  0.1291 -0.2504
  127OSM   H12S13605   4.394   4.491   7.421 -1.1732 -0.9202  0.9645
  127OSM   H12T13606   4.230   4.559   7.461 -0.0169  0.5276  0.7312
  127OSM   C13S13607   4.406   4.627   7.578 -0.3087  0.0734 -0.6303
  127OSM   H13S13608   4.505   4.675   7.560  1.0224 -2.0783  0.7002
  127OSM   H13T13609   4.421   4.543   7.649  2.4214  0.5022 -0.6296
  127OSM   C14S13610   4.319   4.729   7.666 -0.1332  0.3431  0.0012
  127OSM   H14S13611   4.219   4.681   7.672 -0.4573  0.8345 -1.2404
  127OSM   H14T13612   4.299   4.826   7.614  0.1926  0.8397  0.7929
  127OSM   C15S13613   4.380   4.767   7.800  0.2144  0.7229  0.4442
  127OSM   H15S13614   4.325   4.847   7.853  3.4834  2.4422  1.3981
  127OSM   H15T13615   4.486   4.795   7.782  0.9229 -1.7164  0.6150
  127OSM   C16S13616   4.396   4.651   7.893  0.6630  0.4745 -0.0134
  127OSM   H16S13617   4.451   4.571   7.839  1.8366  0.9443  0.4639
  127OSM   H16T13618   4.297   4.615   7.929  0.7672  0.1395 -0.0647
  127OSM   C17S13619   4.489   4.674   8.008 -0.2213  0.3196 -0.6221
  127OSM   H17S13620   4.455   4.760   8.070  0.8558 -0.2834  0.8589
  127OSM   H17T13621   4.585   4.694   7.956  1.2376  0.1285  1.8926
  127OSM   C18S13622   4.510   4.555   8.100  0.1306  0.4087 -0.0737
  127OSM   H18S13623   4.577   4.588   8.182  1.0974  0.6071 -0.9262
  127OSM   H18T13624   4.565   4.478   8.040 -0.1182 -0.8559  1.2993
  127OSM   H18U13625   4.424   4.498   8.142  1.3620 -2.1274 -0.8772
  127OSM    C1F13626   3.932   4.719   6.727  0.2397  0.0374 -0.4124
  127OSM     OF13627   3.833   4.692   6.663 -0.3474 -0.0431 -0.5405
  127OSM    C2F13628   3.941   4.793   6.850  1.1871  0.5862 -0.7351
  127OSM    H2F13629   3.905   4.898   6.839 -0.6765  0.0137 -0.2713
  127OSM    H2G13630   4.048   4.794   6.880  1.3632  0.0216 -1.3272
  127OSM    C3F13631   3.866   4.725   6.974 -0.4155  0.8330  0.9264
  127OSM    H3F13632   3.757   4.746   6.964 -0.3965  0.7759  0.5909
  127OSM    H3G13633   3.900   4.776   7.067  1.3153  1.9778 -0.2937
  127OSM    C4F13634   3.878   4.579   6.989 -0.2852  0.3397 -0.4045
  127OSM    H4F13635   3.980   4.540   7.007 -0.5118  0.4131  1.1216
  127OSM    H4G13636   3.835   4.525   6.902  1.8110 -1.4895 -0.3594
  127OSM    C5F13637   3.803   4.536   7.117 -0.1129 -0.4261  0.0957
  127OSM    H5F13638   3.759   4.437   7.094 -1.3497 -0.1978  1.4194
  127OSM    H5G13639   3.723   4.611   7.134  0.1737  0.1576 -1.0713
  127OSM    C6F13640   3.889   4.527   7.247 -0.3098 -0.0287  0.3086
  127OSM    H6F13641   3.937   4.626   7.260  1.1021 -0.7985  1.1031
  127OSM    H6G13642   3.978   4.462   7.229 -0.8669 -1.1784  1.6726
  127OSM    C7F13643   3.811   4.490   7.373 -0.1885 -0.1985  0.3964
  127OSM    H7F13644   3.769   4.388   7.380 -2.6193  0.8364  1.5682
  127OSM    H7G13645   3.720   4.554   7.373  0.6380  1.0115  0.0645
  127OSM    C8F13646   3.889   4.521   7.501 -0.0278 -0.2011 -0.9299
  127OSM    H8F13647   3.810   4.503   7.577 -0.5421  4.6777 -0.1504
  127OSM    H8G13648   3.919   4.626   7.519 -2.5331  0.6942 -1.7787
  127OSM    C9F13649   3.996   4.425   7.528 -0.0743  0.1255  0.0413
  127OSM    H9F13650   4.048   4.404   7.433 -0.0509  1.1918 -0.1830
  127OSM   C10F13651   4.027   4.361   7.641 -0.5463  0.0984  0.1073
  127OSM   H10F13652   4.114   4.294   7.646 -0.4185  0.2026 -0.5814
  127OSM   C11F13653   3.963   4.389   7.773 -0.0363 -0.1471  0.5647
  127OSM   H11F13654   3.993   4.325   7.859  0.0543 -1.4141 -0.4076
  127OSM   H11G13655   3.853   4.383   7.764 -0.1443  1.1182  0.8214
  127OSM   C12F13656   4.008   4.532   7.821 -0.0353 -0.1171  0.3799
  127OSM   H12F13657   3.970   4.617   7.760  3.6008  0.4835 -1.1440
  127OSM   H12G13658   4.116   4.544   7.798  0.0743 -0.2728  0.8167
  127OSM   C13F13659   3.993   4.560   7.972 -0.6188  0.2840  1.0394
  127OSM   H13F13660   4.048   4.656   7.981 -1.5567  0.9050  0.2935
  127OSM   H13G13661   4.054   4.487   8.029  1.1481 -0.2606 -1.4898
  127OSM   C14F13662   3.850   4.572   8.018  0.7204 -0.0601 -0.2376
  127OSM   H14F13663   3.819   4.467   8.000 -0.0871  0.1149  0.1043
  127OSM   H14G13664   3.799   4.646   7.954  1.8903  2.4118  1.5923
  127OSM   C15F13665   3.839   4.604   8.164  0.1570  0.3600 -0.0125
  127OSM   H15F13666   3.905   4.541   8.227  0.2802  0.1630 -0.3393
  127OSM   H15G13667   3.736   4.600   8.206 -0.6787  1.2752 -1.9141
  127OSM   C16F13668   3.875   4.753   8.190  0.0497 -0.2224  0.3514
  127OSM   H16F13669   3.830   4.818   8.112  1.4048  0.0087 -0.2427
  127OSM   H16G13670   3.985   4.770   8.189 -0.1908  1.3985 -0.5072
  127OSM   C17F13671   3.828   4.807   8.326 -0.0656 -0.3314 -0.5683
  127OSM   H17F13672   3.873   4.738   8.401  2.0647  1.5488 -0.0607
  127OSM   H17G13673   3.718   4.806   8.337 -0.1650 -0.4478 -1.5181
  127OSM   C18F13674   3.868   4.958   8.356 -0.1893  0.1594  0.7175
  127OSM   H18F13675   3.830   5.018   8.270  1.9816 -0.2664 -0.5637
  127OSM   H18G13676   3.977   4.978   8.350  0.1767 -1.8088  0.3352
  127OSM   H18H13677   3.842   4.997   8.456  0.5701 -0.9533  1.3632
  128OSM      N13678   6.645   6.717   6.178  0.2982  0.4359 -0.2771
  128OSM    C1513679   6.616   6.682   6.323  0.5122  0.3328  0.0352
  128OSM   H15A13680   6.703   6.647   6.376 -0.3708  0.5220  1.6377
  128OSM   H15B13681   6.539   6.606   6.332  0.1883  0.7869  1.1482
  128OSM   H15C13682   6.569   6.769   6.364  0.5848 -0.4477  1.7966
  128OSM    C1413683   6.698   6.588   6.112 -0.5856  0.0629 -0.3549
  128OSM   H14A13684   6.784   6.548   6.163  0.1837  0.4230 -1.3712
  128OSM   H14B13685   6.725   6.611   6.010  0.0123 -0.7986 -0.3939
  128OSM   H14C13686   6.625   6.509   6.110  0.0124 -0.4673 -1.5292
  128OSM    C1313687   6.520   6.741   6.107  0.5703  0.1323  0.3643
  128OSM   H13A13688   6.460   6.652   6.093  2.6848 -1.0382 -1.8342
  128OSM   H13B13689   6.535   6.776   6.006 -0.7815  1.2552  0.5308
  128OSM   H13C13690   6.463   6.817   6.158 -2.3475 -2.9673  1.9703
  128OSM    C1213691   6.746   6.829   6.167  0.1519 -0.2137 -0.7649
  128OSM   H12A13692   6.788   6.836   6.068  2.9872  0.5417  0.4657
  128OSM   H12B13693   6.828   6.810   6.235 -1.6550 -1.5489  1.1143
  128OSM    C1113694   6.690   6.975   6.202  0.0906 -0.3538 -0.1883
  128OSM   H11A13695   6.655   6.975   6.307  0.2774 -1.2003 -0.1172
  128OSM   H11B13696   6.611   6.998   6.127 -1.3411 -3.9962  0.0968
  128OSM      P13697   6.763   7.215   6.159 -0.2307 -0.0119 -0.1274
  128OSM    O1313698   6.891   7.270   6.106 -0.3725  0.9368  0.5180
  128OSM    O1413699   6.645   7.231   6.071 -0.5461 -0.2409 -0.3069
  128OSM    O1113700   6.729   7.278   6.302  0.0451 -0.6738  0.4948
  128OSM    O1213701   6.793   7.065   6.179 -0.3871  0.2301  0.4906
  128OSM    C1S13702   6.800   7.212   6.410  0.6421 -0.2801  0.7959
  128OSM    H1S13703   6.904   7.188   6.378  0.0406 -0.9557 -0.7488
  128OSM    H1T13704   6.741   7.121   6.437  1.0336 -1.1017 -1.0082
  128OSM     NF13705   6.859   7.226   6.639 -0.0862 -0.3415 -0.2111
  128OSM    HNF13706   6.787   7.187   6.696  0.0478 -0.5282 -0.1722
  128OSM    C2S13707   6.805   7.305   6.530 -0.1399  0.0998 -0.0047
  128OSM    H2S13708   6.878   7.384   6.501  1.9125 -1.2239  1.3696
  128OSM    C3S13709   6.668   7.378   6.556  0.1603  0.7431  0.5019
  128OSM    H3S13710   6.597   7.294   6.570  2.8207 -1.4452  1.2088
  128OSM     O313711   6.607   7.453   6.452  0.0379 -1.0994  0.1850
  128OSM    HO313712   6.640   7.415   6.371 -1.9323 -1.3887 -0.5175
  128OSM    C4S13713   6.686   7.462   6.680 -0.2554 -0.1613 -0.5646
  128OSM    H4S13714   6.632   7.416   6.764  1.0386  1.8272  1.4035
  128OSM    C5S13715   6.739   7.591   6.688 -0.1114 -0.0776  0.1367
  128OSM    H5S13716   6.762   7.625   6.586  1.0472  0.2388  0.4939
  128OSM    C6S13717   6.758   7.684   6.808 -0.2406  0.1774 -0.6245
  128OSM    H6S13718   6.705   7.781   6.797  1.0167  0.9382 -0.1365
  128OSM    H6T13719   6.864   7.716   6.822  0.1009 -0.9490 -0.6401
  128OSM    C7S13720   6.709   7.624   6.947 -0.7082  0.4590  0.7227
  128OSM    H7S13721   6.759   7.528   6.968  2.1780  1.7085 -0.1947
  128OSM    H7T13722   6.599   7.608   6.938 -0.6111  0.0826  0.2127
  128OSM    C8S13723   6.721   7.719   7.069 -0.2682  0.0070 -0.2741
  128OSM    H8S13724   6.653   7.806   7.051 -1.7441 -0.7163  1.6184
  128OSM    H8T13725   6.826   7.755   7.070 -0.5648  0.9029  1.5688
  128OSM    C9S13726   6.673   7.655   7.201  0.2022 -1.1802 -0.1363
  128OSM    H9S13727   6.745   7.572   7.222 -0.2065 -0.9114  2.4119
  128OSM    H9T13728   6.572   7.617   7.176 -0.3991  0.7822 -0.7959
  128OSM   C10S13729   6.667   7.736   7.329  0.2568 -0.0270 -0.2383
  128OSM   H10S13730   6.583   7.808   7.330  0.7509  0.6446 -3.7400
  128OSM   H10T13731   6.767   7.785   7.329  0.9666 -1.4241 -0.2623
  128OSM   C11S13732   6.681   7.667   7.466  0.2105  0.4026 -0.5039
  128OSM   H11S13733   6.773   7.605   7.467 -0.8710 -1.2198  0.8031
  128OSM   H11T13734   6.605   7.589   7.486 -0.2020  1.0839  0.6177
  128OSM   C12S13735   6.687   7.758   7.584 -1.0115 -0.1847 -0.3261
  128OSM   H12S13736   6.597   7.821   7.602 -2.4414 -2.5509  1.1774
  128OSM   H12T13737   6.763   7.834   7.559 -0.1965 -1.3358 -1.4599
  128OSM   C13S13738   6.721   7.680   7.710  0.4352 -0.5523  0.0104
  128OSM   H13S13739   6.796   7.601   7.687  1.4545  0.3565  0.1654
  128OSM   H13T13740   6.628   7.630   7.746  0.5026 -1.0842 -0.5557
  128OSM   C14S13741   6.775   7.768   7.828 -0.0844  0.9570 -0.8643
  128OSM   H14S13742   6.769   7.875   7.802  0.3583  0.7808 -1.7208
  128OSM   H14T13743   6.885   7.754   7.825 -0.0863  0.2474  1.3808
  128OSM   C15S13744   6.720   7.729   7.969  0.1622 -0.2755  1.0935
  128OSM   H15S13745   6.754   7.799   8.047 -0.0447  0.0647  0.8835
  128OSM   H15T13746   6.740   7.622   7.992 -1.1676 -1.2685 -2.0822
  128OSM   C16S13747   6.566   7.745   7.979 -0.1875 -0.1685 -0.0821
  128OSM   H16S13748   6.537   7.745   8.086 -0.9985  3.1238 -0.2267
  128OSM   H16T13749   6.516   7.654   7.940 -0.2819  0.3495 -1.2076
  128OSM   C17S13750   6.516   7.874   7.914  0.1337 -0.4914  0.2159
  128OSM   H17S13751   6.405   7.861   7.916  0.3548 -2.8950 -0.9222
  128OSM   H17T13752   6.546   7.891   7.808 -0.5900  0.6670  0.1888
  128OSM   C18S13753   6.540   7.996   7.996 -0.0873 -0.8163  0.2183
  128OSM   H18S13754   6.467   8.071   7.963 -1.8584 -1.2587  2.9346
  128OSM   H18T13755   6.647   8.026   7.997 -0.6519  1.3881 -2.1011
  128OSM   H18U13756   6.506   7.977   8.101 -0.7710  0.6915  0.2755
  128OSM    C1F13757   6.989   7.188   6.651 -0.1413  0.1105  0.0016
  128OSM     OF13758   7.077   7.231   6.581  0.3362 -0.3418  0.3477
  128OSM    C2F13759   7.011   7.093   6.767  1.1089 -0.1302 -0.1954
  128OSM    H2F13760   6.945   7.004   6.755 -1.6808  1.5321  2.0907
  128OSM    H2G13761   6.977   7.128   6.867 -0.6974 -2.0823 -0.0852
  128OSM    C3F13762   7.153   7.043   6.769  0.0524  0.2988 -0.4462
  128OSM    H3F13763   7.224   7.129   6.771  2.7623 -1.9190  0.2282
  128OSM    H3G13764   7.178   6.982   6.680 -0.1958  1.2923 -1.2124
  128OSM    C4F13765   7.182   6.957   6.897  0.5999 -0.5613 -0.2182
  128OSM    H4F13766   7.275   6.897   6.884  1.2832 -0.7795  4.5074
  128OSM    H4G13767   7.107   6.877   6.911 -2.1943  2.2762  1.5804
  128OSM    C5F13768   7.194   7.038   7.027 -0.2520 -0.3212  0.5886
  128OSM    H5F13769   7.108   7.108   7.027 -0.8124 -1.0068  0.4330
  128OSM    H5G13770   7.281   7.107   7.036 -1.5702  1.5210 -0.3759
  128OSM    C6F13771   7.177   6.943   7.152  0.3308 -0.3721  0.2023
  128OSM    H6F13772   7.259   6.869   7.154  1.8942  1.2981 -0.9898
  128OSM    H6G13773   7.083   6.883   7.150 -0.7813  1.3365  0.2350
  128OSM    C7F13774   7.176   7.025   7.285 -0.3999  0.1633  0.0245
  128OSM    H7F13775   7.088   7.091   7.268 -0.7287  0.0365  1.2014
  128OSM    H7G13776   7.271   7.080   7.302 -0.1297 -0.1820 -0.3595
  128OSM    C8F13777   7.134   6.954   7.416  0.3368 -0.4695  0.1691
  128OSM    H8F13778   7.047   6.888   7.395 -0.0651 -0.0762  0.6013
  128OSM    H8G13779   7.105   7.037   7.484 -0.1450  0.0254 -0.6322
  128OSM    C9F13780   7.248   6.868   7.457 -0.5900 -0.1963 -0.5995
  128OSM    H9F13781   7.303   6.812   7.380  0.4312  1.4953 -1.1263
  128OSM   C10F13782   7.309   6.864   7.582 -0.5713 -1.0642 -0.0093
  128OSM   H10F13783   7.382   6.788   7.613 -0.3555 -1.6122 -1.8538
  128OSM   C11F13784   7.256   6.945   7.700  0.3231 -0.2926  0.2897
  128OSM   H11F13785   7.148   6.920   7.705  0.2181  0.1874  0.3712
  128OSM   H11G13786   7.276   7.052   7.677  0.1828 -0.1739  0.7181
  128OSM   C12F13787   7.305   6.942   7.842 -0.1669 -0.4071 -0.3467
  128OSM   H12F13788   7.247   7.022   7.891  1.0558  0.3214 -0.0720
  128OSM   H12G13789   7.414   6.966   7.834 -0.2430 -0.2728 -0.9849
  128OSM   C13F13790   7.297   6.810   7.912 -0.1698 -0.1205  0.4979
  128OSM   H13F13791   7.326   6.731   7.839 -3.2093 -1.6320  0.8428
  128OSM   H13G13792   7.194   6.789   7.949 -0.9010  1.4595 -0.5814
  128OSM   C14F13793   7.395   6.793   8.033 -0.3845 -1.1242 -0.0307
  128OSM   H14F13794   7.502   6.788   8.003 -0.9242 -0.1987 -2.2186
  128OSM   H14G13795   7.381   6.686   8.059  1.1613 -1.0176  1.3484
  128OSM   C15F13796   7.368   6.892   8.145  0.8195  0.8896 -0.1298
  128OSM   H15F13797   7.273   6.871   8.199  0.6631  2.5802  0.2921
  128OSM   H15G13798   7.364   6.992   8.097  2.1754 -0.2213 -2.6458
  128OSM   C16F13799   7.480   6.892   8.250 -1.4238  0.0463 -0.8452
  128OSM   H16F13800   7.551   6.973   8.222  0.6461 -1.3950  0.1498
  128OSM   H16G13801   7.544   6.806   8.223  1.2039  1.5549  0.3719
  128OSM   C17F13802   7.446   6.887   8.398  0.6476  0.1871 -0.0250
  128OSM   H17F13803   7.367   6.959   8.427 -0.5691 -2.0650  2.4086
  128OSM   H17G13804   7.535   6.920   8.456  1.5938 -1.6338 -0.3857
  128OSM   C18F13805   7.415   6.742   8.438  0.4773 -0.2507  0.0628
  128OSM   H18F13806   7.406   6.726   8.548 -0.6136  2.1420  0.3587
  128OSM   H18G13807   7.503   6.681   8.409 -0.0244 -0.5977 -0.7529
  128OSM   H18H13808   7.323   6.696   8.395  0.5159  0.5944 -0.9219
  129OSM      N13809   3.342   3.959   6.200  0.2653  0.2218  0.0346
  129OSM    C1513810   3.196   3.983   6.243 -0.4177 -0.8157  0.2310
  129OSM   H15A13811   3.172   3.923   6.330  1.6819  0.2799  1.6049
  129OSM   H15B13812   3.124   3.956   6.168 -0.2979  0.4684 -0.3447
  129OSM   H15C13813   3.179   4.087   6.267 -2.5605 -1.3492  1.1573
  129OSM    C1413814   3.360   3.821   6.139  0.1746  0.9693  0.0115
  129OSM   H14A13815   3.291   3.813   6.056  1.3465  1.8405 -1.0755
  129OSM   H14B13816   3.324   3.750   6.211 -0.8629 -1.1529 -2.5207
  129OSM   H14C13817   3.463   3.790   6.130 -0.7321 -2.0960 -0.4909
  129OSM    C1313818   3.366   4.065   6.106  0.0042 -0.1118  0.4552
  129OSM   H13A13819   3.354   4.162   6.153  2.0219  1.3495 -1.9314
  129OSM   H13B13820   3.296   4.074   6.024  0.2473  0.1159  0.2710
  129OSM   H13C13821   3.462   4.050   6.058 -0.5354 -1.1615 -0.3232
  129OSM    C1213822   3.439   3.981   6.320  0.0399 -0.3164 -0.6623
  129OSM   H12A13823   3.538   3.976   6.278 -0.3474  0.8271 -1.7853
  129OSM   H12B13824   3.425   3.897   6.386  0.4699 -0.7359 -1.1009
  129OSM    C1113825   3.424   4.114   6.400  0.5547 -0.4849 -0.2930
  129OSM   H11A13826   3.485   4.100   6.491  1.4913  0.3945 -0.7766
  129OSM   H11B13827   3.318   4.125   6.431  0.2083 -0.4769 -1.4596
  129OSM      P13828   3.615   4.250   6.292  0.0502 -0.0378  0.3271
  129OSM    O1313829   3.668   4.135   6.217  0.0056 -0.2625 -0.3166
  129OSM    O1413830   3.632   4.386   6.226 -0.0571  0.2296  0.0257
  129OSM    O1113831   3.672   4.251   6.440 -0.2359  0.1925 -0.6460
  129OSM    O1213832   3.464   4.219   6.320 -0.2782 -0.6036  0.3126
  129OSM    C1S13833   3.649   4.369   6.517  0.6159  0.6377 -0.5758
  129OSM    H1S13834   3.547   4.407   6.496 -0.0805  0.2087  1.8992
  129OSM    H1T13835   3.726   4.446   6.494  0.6510  0.5352 -0.8042
  129OSM     NF13836   3.619   4.470   6.737 -0.3033 -0.4689  0.2584
  129OSM    HNF13837   3.684   4.544   6.749  0.5566 -1.2867  0.6558
  129OSM    C2S13838   3.656   4.349   6.671  0.1263  0.0982  1.2281
  129OSM    H2S13839   3.581   4.270   6.695  0.5175  0.0724  2.4111
  129OSM    C3S13840   3.797   4.287   6.712  0.3477 -0.1623  0.1370
  129OSM    H3S13841   3.870   4.368   6.730  1.4737 -1.6239  2.2448
  129OSM     O313842   3.854   4.211   6.607  0.0665 -0.3003 -0.1115
  129OSM    HO313843   3.799   4.220   6.529 -2.3983  1.1203  1.7226
  129OSM    C4S13844   3.785   4.207   6.840  0.5394  0.3788 -0.3818
  129OSM    H4S13845   3.797   4.265   6.933  2.4696 -0.4035 -0.1126
  129OSM    C5S13846   3.768   4.077   6.854 -0.3085 -0.9842 -0.3623
  129OSM    H5S13847   3.754   4.017   6.763  0.4360 -1.2625 -0.2931
  129OSM    C6S13848   3.779   4.002   6.992 -0.2886  0.0165  0.4830
  129OSM    H6S13849   3.841   3.913   6.971 -2.1224 -1.3080  0.5502
  129OSM    H6T13850   3.684   3.966   7.037 -0.4957 -2.8498 -2.0609
  129OSM    C7S13851   3.844   4.077   7.107 -0.5667 -0.0231  0.1887
  129OSM    H7S13852   3.767   4.154   7.131 -0.3811  0.0961  0.4035
  129OSM    H7T13853   3.928   4.141   7.075 -0.8608  0.2432 -0.0511
  129OSM    C8S13854   3.856   3.989   7.232 -0.2885 -0.1468 -0.4320
  129OSM    H8S13855   3.915   3.900   7.202 -0.5783 -0.1486 -1.0097
  129OSM    H8T13856   3.766   3.957   7.290  0.6888  0.3296  1.3996
  129OSM    C9S13857   3.925   4.064   7.340 -0.2840  0.0602  0.2041
  129OSM    H9S13858   3.901   4.171   7.328 -1.8807 -0.2633  0.3042
  129OSM    H9T13859   4.035   4.075   7.329 -0.4863  1.7897 -0.2266
  129OSM   C10S13860   3.897   4.029   7.493 -0.0450 -0.1724 -0.2941
  129OSM   H10S13861   3.787   4.025   7.504  0.3247 -1.8183  3.5171
  129OSM   H10T13862   3.929   4.116   7.554 -0.3193 -0.5325  0.3659
  129OSM   C11S13863   3.960   3.903   7.557  0.3183 -0.4945  0.2462
  129OSM   H11S13864   4.070   3.913   7.565  0.2216  1.8479 -1.1455
  129OSM   H11T13865   3.944   3.816   7.489  1.5635  0.6336 -1.5360
  129OSM   C12S13866   3.899   3.867   7.693 -0.5641  0.1849 -0.1068
  129OSM   H12S13867   3.939   3.924   7.780  0.7639  1.3282 -1.4437
  129OSM   H12T13868   3.915   3.759   7.714 -0.8707  0.3914  1.2851
  129OSM   C13S13869   3.743   3.881   7.694  0.3300  0.6540  0.1599
  129OSM   H13S13870   3.709   3.833   7.600  0.0986 -0.6988  0.9313
  129OSM   H13T13871   3.721   3.990   7.700  0.1157  0.5908  0.5667
  129OSM   C14S13872   3.677   3.809   7.816 -0.5046  0.1532  0.1109
  129OSM   H14S13873   3.661   3.701   7.792 -1.6100 -0.3354  2.7995
  129OSM   H14T13874   3.579   3.856   7.839 -1.1727 -0.1669 -1.9842
  129OSM   C15S13875   3.751   3.819   7.962 -0.0046 -0.0594 -0.0177
  129OSM   H15S13876   3.809   3.911   7.983 -1.6286  0.4269  2.4841
  129OSM   H15T13877   3.822   3.735   7.963 -1.7670 -1.5811  0.1760
  129OSM   C16S13878   3.643   3.804   8.073 -0.0076  0.1564  0.0794
  129OSM   H16S13879   3.613   3.697   8.077 -2.3670  0.8485  1.7834
  129OSM   H16T13880   3.553   3.858   8.038  2.1854  3.5210 -0.5540
  129OSM   C17S13881   3.685   3.861   8.208 -0.3331  0.8854  0.0584
  129OSM   H17S13882   3.680   3.972   8.206 -0.7698  0.8758  0.4534
  129OSM   H17T13883   3.790   3.831   8.223 -0.7997 -0.1917  1.2655
  129OSM   C18S13884   3.584   3.816   8.323 -0.1058 -0.2708  0.4731
  129OSM   H18S13885   3.594   3.710   8.354 -1.2560  0.4555  3.5773
  129OSM   H18T13886   3.483   3.842   8.284  0.4063 -2.4104 -2.3980
  129OSM   H18U13887   3.604   3.871   8.418 -1.6579  0.9462  0.1172
  129OSM    C1F13888   3.490   4.510   6.750 -0.5105 -0.0221 -0.5568
  129OSM     OF13889   3.397   4.433   6.721  0.0694  0.0292 -0.5000
  129OSM    C2F13890   3.470   4.639   6.804 -0.5010 -0.7071  0.2944
  129OSM    H2F13891   3.472   4.716   6.724 -1.5052 -2.1454 -1.1361
  129OSM    H2G13892   3.540   4.661   6.887 -0.0582 -0.9186 -0.0237
  129OSM    C3F13893   3.326   4.659   6.875 -0.1493 -0.2357 -0.2499
  129OSM    H3F13894   3.320   4.597   6.967  1.7898  0.8913  0.6659
  129OSM    H3G13895   3.251   4.606   6.812 -2.8929  0.6763  2.1418
  129OSM    C4F13896   3.284   4.799   6.905 -0.1142 -0.3532  0.3527
  129OSM    H4F13897   3.196   4.794   6.972 -0.6344 -0.2344 -0.3101
  129OSM    H4G13898   3.252   4.851   6.812  0.2166  0.3568  0.6311
  129OSM    C5F13899   3.395   4.871   6.990 -0.0143 -0.2502 -0.5388
  129OSM    H5F13900   3.359   4.976   6.998 -1.1039 -0.7456  1.4344
  129OSM    H5G13901   3.489   4.871   6.931 -0.0609  0.7175 -0.6127
  129OSM    C6F13902   3.403   4.836   7.142 -0.3949 -1.2807 -0.0450
  129OSM    H6F13903   3.441   4.733   7.158 -1.3339 -1.7378 -0.7145
  129OSM    H6G13904   3.302   4.858   7.183 -0.0114 -0.6387  0.5553
  129OSM    C7F13905   3.505   4.939   7.199 -0.0842  0.5171 -0.1649
  129OSM    H7F13906   3.456   5.039   7.191 -1.7745 -0.1678  1.4764
  129OSM    H7G13907   3.595   4.949   7.134 -0.1802  1.3494 -0.1767
  129OSM    C8F13908   3.536   4.909   7.342 -0.2742 -1.0786 -0.0518
  129OSM    H8F13909   3.553   4.800   7.357 -0.7747 -1.3046 -1.0785
  129OSM    H8G13910   3.440   4.930   7.394  0.2281  0.8516  0.1307
  129OSM    C9F13911   3.640   4.989   7.409 -0.7893  0.1984 -0.3590
  129OSM    H9F13912   3.677   5.072   7.346  1.3972  0.0256  0.6910
  129OSM   C10F13913   3.649   4.984   7.545 -0.6991 -0.4563 -0.0280
  129OSM   H10F13914   3.745   5.025   7.580 -0.9414  0.8498 -0.8645
  129OSM   C11F13915   3.565   4.907   7.645  0.0275 -0.7919  0.1607
  129OSM   H11F13916   3.460   4.899   7.608 -0.9035 -0.8800  2.7524
  129OSM   H11G13917   3.557   4.962   7.741  1.9030  0.0878 -0.1690
  129OSM   C12F13918   3.615   4.761   7.662 -0.6742 -0.1974  0.2287
  129OSM   H12F13919   3.709   4.769   7.720  1.3629 -1.0329 -2.8649
  129OSM   H12G13920   3.637   4.703   7.570 -1.3735  1.6323 -1.1095
  129OSM   C13F13921   3.521   4.669   7.748 -0.6163  0.3006  0.1705
  129OSM   H13F13922   3.566   4.570   7.770  0.0585  1.0124  2.0676
  129OSM   H13G13923   3.429   4.654   7.687 -1.1351 -1.2474  1.2799
  129OSM   C14F13924   3.477   4.730   7.878  0.2716  0.0021 -0.2423
  129OSM   H14F13925   3.439   4.834   7.868  1.4154  0.2242 -2.5868
  129OSM   H14G13926   3.572   4.743   7.934 -0.0414  0.3405  0.2168
  129OSM   C15F13927   3.371   4.647   7.957 -0.7010 -0.7012 -0.8270
  129OSM   H15F13928   3.404   4.541   7.958  2.5208  0.2243 -2.2963
  129OSM   H15G13929   3.275   4.649   7.900 -0.6625  0.6573 -0.8534
  129OSM   C16F13930   3.359   4.690   8.104 -0.0425 -0.2217 -0.0697
  129OSM   H16F13931   3.322   4.794   8.115 -0.4773 -0.2406 -1.3083
  129OSM   H16G13932   3.460   4.677   8.148  0.2672  2.1260 -0.0034
  129OSM   C17F13933   3.267   4.582   8.173  0.3521 -0.1129 -0.1755
  129OSM   H17F13934   3.313   4.481   8.164 -3.1619 -1.8298  0.2728
  129OSM   H17G13935   3.177   4.570   8.110  0.2312  2.9026 -0.6383
  129OSM   C18F13936   3.245   4.618   8.316 -0.5583 -0.0191  0.0558
  129OSM   H18F13937   3.346   4.633   8.361 -0.3884  1.3402 -0.7418
  129OSM   H18G13938   3.189   4.537   8.366  0.1294 -1.2514 -1.1021
  129OSM   H18H13939   3.190   4.714   8.322 -1.0109 -0.3731  1.6305
  130OSM      N13940   0.413   6.251   5.930 -0.0281 -0.1695  0.1218
  130OSM    C1513941   0.499   6.138   5.981  0.5627  0.2148  0.5017
  130OSM   H15A13942   0.441   6.070   6.042 -0.2777 -0.6919 -1.2724
  130OSM   H15B13943   0.579   6.173   6.044  0.4972  1.2187  0.0348
  130OSM   H15C13944   0.545   6.083   5.901 -0.7736 -0.9791  0.5395
  130OSM    C1413945   0.515   6.331   5.851 -0.1005  0.1333 -0.1458
  130OSM   H14A13946   0.481   6.428   5.816  2.5131  0.8761 -0.7492
  130OSM   H14B13947   0.562   6.276   5.770  0.7981 -0.5755  0.8548
  130OSM   H14C13948   0.592   6.349   5.924 -0.9505 -2.1566  1.3463
  130OSM    C1313949   0.313   6.185   5.836 -0.7165  0.2062 -0.8532
  130OSM   H13A13950   0.251   6.123   5.899  0.6907  0.6717  1.0627
  130OSM   H13B13951   0.352   6.126   5.754 -1.0515 -0.6892 -0.3796
  130OSM   H13C13952   0.244   6.258   5.797 -2.3017  0.1298  1.6792
  130OSM    C1213953   0.352   6.324   6.048 -0.6082 -0.9034 -0.7088
  130OSM   H12A13954   0.283   6.262   6.102 -0.3941  0.5933  1.3193
  130OSM   H12B13955   0.290   6.402   6.005 -1.0215  0.5601  2.4161
  130OSM    C1113956   0.445   6.393   6.148  0.4477 -0.0822 -0.2987
  130OSM   H11A13957   0.523   6.322   6.183  1.6555  0.9173 -0.9148
  130OSM   H11B13958   0.377   6.400   6.236 -0.8040 -2.1903 -1.0533
  130OSM      P13959   0.635   6.558   6.121 -0.0665  0.0002  0.0831
  130OSM    O1313960   0.722   6.473   6.040  0.5042  0.0131 -0.1005
  130OSM    O1413961   0.650   6.706   6.096  0.0874 -0.2724  0.5131
  130OSM    O1113962   0.662   6.516   6.271 -0.5925 -0.0833  0.2449
  130OSM    O1213963   0.486   6.519   6.098  0.2691  0.0093  0.6354
  130OSM    C1S13964   0.593   6.595   6.372 -0.3876  0.0933  0.4983
  130OSM    H1S13965   0.486   6.567   6.377 -0.4871  0.1871 -0.8110
  130OSM    H1T13966   0.606   6.703   6.350 -0.0322 -0.2622 -1.1516
  130OSM     NF13967   0.578   6.627   6.621 -0.5046 -0.1736 -0.4536
  130OSM    HNF13968   0.619   6.698   6.678  2.2008 -1.2389 -1.0187
  130OSM    C2S13969   0.657   6.575   6.514 -0.5574  0.2387 -0.1958
  130OSM    H2S13970   0.653   6.464   6.516  0.8057  0.1763 -0.4103
  130OSM    C3S13971   0.805   6.622   6.517 -0.3394 -0.0792 -0.2288
  130OSM    H3S13972   0.803   6.733   6.513  1.2918  0.1020  2.5420
  130OSM     O313973   0.883   6.585   6.403  0.1698  0.1391 -0.1803
  130OSM    HO313974   0.819   6.538   6.350  0.9151  0.5773 -1.4827
  130OSM    C4S13975   0.873   6.593   6.650  0.7455  0.2259  0.3066
  130OSM    H4S13976   0.858   6.668   6.729  1.3081 -1.1835  1.7821
  130OSM    C5S13977   0.950   6.488   6.680 -0.3899 -0.1222  0.2291
  130OSM    H5S13978   0.979   6.419   6.599 -2.0511 -0.6385  0.0625
  130OSM    C6S13979   1.021   6.462   6.811 -0.1610  0.4817 -1.0175
  130OSM    H6S13980   1.129   6.450   6.787  0.2303 -0.4956  1.1272
  130OSM    H6T13981   0.984   6.364   6.849 -2.5165  1.3781 -0.8839
  130OSM    C7S13982   0.991   6.567   6.920  0.2557 -0.2145  0.3017
  130OSM    H7S13983   0.884   6.552   6.945  0.1318 -0.5206 -0.3872
  130OSM    H7T13984   1.013   6.667   6.878  0.6753  0.4196  1.9901
  130OSM    C8S13985   1.080   6.538   7.040  0.7265 -0.4602  0.0912
  130OSM    H8S13986   1.182   6.580   7.028  0.4831  0.1194  0.0418
  130OSM    H8T13987   1.092   6.429   7.062 -0.8956 -0.2757  2.0594
  130OSM    C9S13988   1.032   6.626   7.154 -0.2015  0.2745  0.5362
  130OSM    H9S13989   0.922   6.618   7.164 -0.5178 -0.9422 -3.2546
  130OSM    H9T13990   1.061   6.730   7.126 -2.3432 -0.0657 -3.2156
  130OSM   C10S13991   1.089   6.591   7.287  0.0661  0.6448 -0.4046
  130OSM   H10S13992   1.197   6.612   7.301  0.1703 -0.5844  0.8160
  130OSM   H10T13993   1.077   6.482   7.310  2.9487 -0.2230 -2.7827
  130OSM   C11S13994   1.036   6.675   7.399 -0.0956  0.0205  0.1918
  130OSM   H11S13995   0.926   6.684   7.386 -0.1183 -0.1110  0.2997
  130OSM   H11T13996   1.075   6.779   7.392 -0.6440  0.1082 -1.9149
  130OSM   C12S13997   1.067   6.616   7.537  0.0775  0.2099  0.5472
  130OSM   H12S13998   1.176   6.619   7.556  0.1423 -2.2280  0.6547
  130OSM   H12T13999   1.026   6.513   7.530  0.5973  0.1232 -1.2909
  130OSM   C13S14000   0.989   6.693   7.644 -0.0137 -0.2412 -0.3233
  130OSM   H13S14001   0.881   6.690   7.622 -0.1577 -0.6667  0.4292
  130OSM   H13T14002   1.042   6.791   7.635  0.8690 -0.6506  0.2917
  130OSM   C14S14003   1.008   6.664   7.794  0.3882 -0.1148  1.1648
  130OSM   H14S14004   0.982   6.756   7.851 -0.0320  1.8648 -2.1041
  130OSM   H14T14005   1.118   6.657   7.812  0.5931  0.4065  0.1394
  130OSM   C15S14006   0.930   6.546   7.854 -0.3378  0.4488  0.2665
  130OSM   H15S14007   0.952   6.455   7.794 -1.9705  0.1285  0.1538
  130OSM   H15T14008   0.825   6.568   7.826 -1.2491 -1.2572  2.1673
  130OSM   C16S14009   0.964   6.517   8.000 -0.4980 -0.0272 -0.0481
  130OSM   H16S14010   0.966   6.603   8.071  0.6082 -0.9750  1.1021
  130OSM   H16T14011   1.055   6.454   7.987  1.0269  1.7721  1.5088
  130OSM   C17S14012   0.851   6.426   8.059 -0.9701  0.5549  0.4855
  130OSM   H17S14013   0.835   6.340   7.991  0.7863  2.9309 -3.0980
  130OSM   H17T14014   0.759   6.487   8.069 -0.0948  1.9741  0.0195
  130OSM   C18S14015   0.890   6.380   8.201 -0.3628 -0.4663  0.1187
  130OSM   H18S14016   0.992   6.337   8.196 -0.8981 -1.8121  0.3303
  130OSM   H18T14017   0.820   6.303   8.242  0.8778 -0.9919  1.2820
  130OSM   H18U14018   0.904   6.471   8.261 -1.0854 -0.1820 -0.1392
  130OSM    C1F14019   0.461   6.573   6.648 -0.2114  0.5788 -0.0597
  130OSM     OF14020   0.421   6.469   6.590  0.7498  0.0735  0.0723
  130OSM    C2F14021   0.376   6.634   6.753  0.4930 -0.0180 -0.7392
  130OSM    H2F14022   0.376   6.744   6.735  0.5279  0.3644  1.4649
  130OSM    H2G14023   0.426   6.621   6.851  1.9335 -0.7318 -1.5571
  130OSM    C3F14024   0.226   6.581   6.755 -0.5531  0.1333 -0.5914
  130OSM    H3F14025   0.213   6.470   6.761 -1.2891  0.2799  0.7747
  130OSM    H3G14026   0.165   6.619   6.671 -2.1437  1.3214  1.0466
  130OSM    C4F14027   0.156   6.633   6.888 -0.0629 -0.3400  1.1269
  130OSM    H4F14028   0.048   6.628   6.864  0.1270  1.7740 -0.2822
  130OSM    H4G14029   0.180   6.740   6.905 -0.7958  0.3097 -1.6552
  130OSM    C5F14030   0.181   6.536   7.005 -0.2593  0.9534  0.1163
  130OSM    H5F14031   0.289   6.535   7.032 -0.7394  0.2476  2.0956
  130OSM    H5G14032   0.157   6.430   6.984 -1.3843  0.9022  1.5749
  130OSM    C6F14033   0.109   6.571   7.133 -0.0687 -0.2710 -0.1519
  130OSM    H6F14034   0.003   6.539   7.125 -0.5855  0.3478  3.2856
  130OSM    H6G14035   0.099   6.682   7.143 -0.1204 -0.4769  2.2398
  130OSM    C7F14036   0.182   6.505   7.254  0.1547 -0.5809  0.6257
  130OSM    H7F14037   0.283   6.551   7.261  1.9605 -4.5501  2.6455
  130OSM    H7G14038   0.203   6.397   7.236  1.9846  0.3806 -3.5562
  130OSM    C8F14039   0.114   6.520   7.394 -0.2213  0.0454  0.4874
  130OSM    H8F14040   0.150   6.438   7.459 -0.1438 -0.5873 -0.3440
  130OSM    H8G14041   0.006   6.505   7.370 -0.5176  0.1005  1.7380
  130OSM    C9F14042   0.111   6.661   7.447 -0.5998  0.1302 -0.2056
  130OSM    H9F14043   0.077   6.737   7.376 -1.8327 -0.5063 -0.3132
  130OSM   C10F14044   0.136   6.705   7.571  0.0589  0.7716 -0.1875
  130OSM   H10F14045   0.111   6.807   7.604  1.6681 -0.5330  5.7189
  130OSM   C11F14046   0.174   6.610   7.687 -0.2356  0.6862  0.8447
  130OSM   H11F14047   0.264   6.649   7.740 -0.8195  0.5151  1.9805
  130OSM   H11G14048   0.194   6.505   7.656 -2.5074  0.2791  0.7032
  130OSM   C12F14049   0.054   6.607   7.776 -0.6837  0.4655  0.0753
  130OSM   H12F14050  -0.020   6.535   7.734  0.2735 -0.6322  0.2710
  130OSM   H12G14051   0.015   6.710   7.797 -1.5351 -0.0218  0.9316
  130OSM   C13F14052   0.087   6.560   7.922 -0.2311  0.0424  0.4037
  130OSM   H13F14053   0.156   6.630   7.975  0.0690 -0.0793  0.1804
  130OSM   H13G14054   0.151   6.469   7.908  1.1211  1.2199 -1.4411
  130OSM   C14F14055  -0.027   6.516   8.005 -0.4140 -0.3178 -0.5233
  130OSM   H14F14056  -0.086   6.435   7.956  1.8215 -1.1028 -2.0153
  130OSM   H14G14057  -0.098   6.600   8.014 -2.6764 -2.1485 -0.9372
  130OSM   C15F14058   0.019   6.465   8.140 -0.1016  0.4891  0.1149
  130OSM   H15F14059   0.084   6.549   8.172 -2.0129  1.3356  1.8754
  130OSM   H15G14060   0.077   6.373   8.115  1.0632  1.4145 -0.6838
  130OSM   C16F14061  -0.096   6.445   8.231  0.4964  0.0200 -0.0453
  130OSM   H16F14062  -0.169   6.380   8.178  0.7562 -1.4473  1.4016
  130OSM   H16G14063  -0.144   6.545   8.245 -0.8681 -0.5474 -0.5190
  130OSM   C17F14064  -0.059   6.402   8.374 -0.5627  0.4135  0.0304
  130OSM   H17F14065   0.001   6.308   8.375 -0.7690  0.2740 -0.5720
  130OSM   H17G14066  -0.146   6.369   8.434  0.8775  0.9409  2.4579
  130OSM   C18F14067   0.011   6.509   8.446 -0.8456 -0.5261 -0.5454
  130OSM   H18F14068   0.094   6.562   8.394 -0.4251  0.3948  1.0574
  130OSM   H18G14069   0.051   6.473   8.543  0.3835  0.8822 -0.5209
  130OSM   H18H14070  -0.073   6.579   8.463 -0.5132 -0.3472  0.3602
  131OSM      N14071   3.468   3.482   5.839  0.3392 -0.6687 -0.6975
  131OSM    C1514072   3.493   3.511   5.982 -0.6645  0.0466 -0.2732
  131OSM   H15A14073   3.551   3.437   6.036 -0.3133 -2.2083 -3.5989
  131OSM   H15B14074   3.401   3.513   6.038 -0.4491  0.6954  0.0644
  131OSM   H15C14075   3.536   3.610   5.992  1.3991 -0.8023 -0.4614
  131OSM    C1414076   3.403   3.596   5.770 -0.3925 -0.2206 -0.4051
  131OSM   H14A14077   3.481   3.669   5.762 -0.6349 -0.2737 -4.2663
  131OSM   H14B14078   3.308   3.634   5.805 -0.3577 -0.3535 -0.1618
  131OSM   H14C14079   3.372   3.559   5.673  0.3882 -0.3651 -0.5999
  131OSM    C1314080   3.597   3.456   5.762  0.1142 -0.0585  0.2566
  131OSM   H13A14081   3.580   3.416   5.663  1.7587  0.9888 -0.4793
  131OSM   H13B14082   3.654   3.386   5.821  0.4461  0.0582  0.0753
  131OSM   H13C14083   3.657   3.543   5.741 -1.4471  0.6156 -1.5779
  131OSM    C1214084   3.382   3.356   5.824 -0.5625  0.0994 -0.8367
  131OSM   H12A14085   3.355   3.351   5.719  1.2022  2.0921 -1.4284
  131OSM   H12B14086   3.288   3.370   5.874  0.0646  0.4180  0.2625
  131OSM    C1114087   3.440   3.216   5.878 -0.3995 -0.2737 -0.1217
  131OSM   H11A14088   3.541   3.202   5.834 -0.0864 -0.6606  0.7030
  131OSM   H11B14089   3.395   3.129   5.825 -0.7603  1.2210 -2.3046
  131OSM      P14090   3.322   3.186   6.110 -0.0647  0.1518 -0.6104
  131OSM    O1314091   3.236   3.307   6.092  0.2142  0.2406 -0.2723
  131OSM    O1414092   3.266   3.054   6.080  0.5766  0.2923 -0.6244
  131OSM    O1114093   3.374   3.202   6.262  0.3717 -0.4088  0.1652
  131OSM    O1214094   3.449   3.215   6.018 -0.2640 -0.4759  0.3885
  131OSM    C1S14095   3.444   3.319   6.302  0.3989  1.2880 -0.2146
  131OSM    H1S14096   3.395   3.405   6.251 -4.1991  0.2234  2.0818
  131OSM    H1T14097   3.547   3.300   6.265  0.9973  2.9163  0.5689
  131OSM     NF14098   3.538   3.446   6.477 -0.7447 -0.4300  0.0676
  131OSM    HNF14099   3.618   3.427   6.533 -1.2865  1.1361  1.4256
  131OSM    C2S14100   3.438   3.340   6.455 -0.1117  0.5412  0.0935
  131OSM    H2S14101   3.336   3.373   6.484 -1.0679 -0.4451 -1.9826
  131OSM    C3S14102   3.463   3.208   6.538  0.5980  0.1179  0.2363
  131OSM    H3S14103   3.559   3.159   6.514 -0.1920 -1.7506  0.8011
  131OSM     O314104   3.368   3.105   6.514 -0.0638  0.3255  0.5555
  131OSM    HO314105   3.336   3.139   6.431  0.3178  0.1473  0.3321
  131OSM    C4S14106   3.457   3.241   6.689  0.2456  0.7625  0.5272
  131OSM    H4S14107   3.352   3.263   6.716 -0.6688  0.0356 -2.2933
  131OSM    C5S14108   3.557   3.254   6.789  0.5669 -0.0016  0.3693
  131OSM    H5S14109   3.659   3.220   6.763  0.5729 -0.4792  1.0156
  131OSM    C6S14110   3.531   3.270   6.936 -0.5109 -0.2583 -0.2276
  131OSM    H6S14111   3.427   3.300   6.960 -0.1214  0.7658  0.2452
  131OSM    H6T14112   3.603   3.351   6.963  1.8113 -1.2618 -3.1546
  131OSM    C7S14113   3.565   3.151   7.033  0.5027 -0.5224  0.5545
  131OSM    H7S14114   3.492   3.068   7.019 -1.4950  1.3412 -0.2052
  131OSM    H7T14115   3.550   3.188   7.136  0.7266  0.3031  0.2951
  131OSM    C8S14116   3.714   3.098   7.023  0.7441 -0.1096 -0.5221
  131OSM    H8S14117   3.761   3.134   6.929  1.8031  1.2211  0.4889
  131OSM    H8T14118   3.720   2.987   7.026 -0.6019 -0.1940 -0.3976
  131OSM    C9S14119   3.796   3.135   7.148  0.1278 -0.2403  0.4746
  131OSM    H9S14120   3.750   3.115   7.247  0.3416  1.3058  0.8988
  131OSM    H9T14121   3.823   3.242   7.157  2.1262 -0.8164  1.6939
  131OSM   C10S14122   3.927   3.063   7.133  0.0146  0.7027  0.2816
  131OSM   H10S14123   3.974   3.099   7.039  1.7472 -3.1400 -0.4129
  131OSM   H10T14124   3.896   2.957   7.119 -0.7491  1.1988 -1.9594
  131OSM   C11S14125   4.038   3.087   7.239  0.3209 -0.4937 -0.4035
  131OSM   H11S14126   4.073   3.191   7.218 -1.5628 -0.0310 -1.3920
  131OSM   H11T14127   4.128   3.023   7.232  0.5499 -0.0796 -1.2494
  131OSM   C12S14128   3.983   3.081   7.386  0.1369 -0.1507  0.1288
  131OSM   H12S14129   3.963   2.973   7.406  1.0603 -0.4706 -0.6392
  131OSM   H12T14130   3.889   3.140   7.387 -0.6009 -1.2601 -1.1068
  131OSM   C13S14131   4.085   3.136   7.494  0.6222  0.9220 -0.0523
  131OSM   H13S14132   4.106   3.240   7.461 -0.1414  0.1211 -3.1697
  131OSM   H13T14133   4.179   3.077   7.487  0.2909  0.6044 -2.0152
  131OSM   C14S14134   4.018   3.133   7.623 -0.1683  0.9872  0.5465
  131OSM   H14S14135   3.959   3.040   7.634  1.1316  0.2591  1.5439
  131OSM   H14T14136   3.953   3.222   7.637 -0.5660  0.4937  1.9749
  131OSM   C15S14137   4.125   3.135   7.739  0.4311  0.0017  0.5981
  131OSM   H15S14138   4.168   3.238   7.738 -1.2104  0.6966  0.5184
  131OSM   H15T14139   4.198   3.055   7.716  0.9012  0.2129  1.3598
  131OSM   C16S14140   4.082   3.099   7.881  0.0332 -0.5512  0.5225
  131OSM   H16S14141   4.042   2.995   7.889 -0.0337 -0.6233 -0.6679
  131OSM   H16T14142   4.002   3.161   7.926  1.1076 -0.1140  1.8443
  131OSM   C17S14143   4.201   3.094   7.980  0.5270 -0.3126 -0.8394
  131OSM   H17S14144   4.268   3.019   7.935  0.6030 -0.7803  0.0413
  131OSM   H17T14145   4.165   3.059   8.079 -0.9712  0.8889 -0.9254
  131OSM   C18S14146   4.282   3.220   8.013  0.9401 -0.7740  0.2918
  131OSM   H18S14147   4.221   3.310   8.035 -2.0234 -2.6245 -0.0731
  131OSM   H18T14148   4.359   3.234   7.934  2.6257 -1.3604  1.7926
  131OSM   H18U14149   4.342   3.193   8.102  0.6522  0.6289  0.9206
  131OSM    C1F14150   3.529   3.571   6.435  0.1018 -0.1864  0.3316
  131OSM     OF14151   3.427   3.613   6.369  0.0184  0.0105 -0.3229
  131OSM    C2F14152   3.638   3.667   6.472  0.0091 -0.1113  0.0677
  131OSM    H2F14153   3.690   3.702   6.381 -2.4023  1.4074 -0.7922
  131OSM    H2G14154   3.712   3.615   6.536  1.0245 -0.0926 -1.0825
  131OSM    C3F14155   3.591   3.783   6.560 -0.0761  0.9064 -0.8145
  131OSM    H3F14156   3.501   3.819   6.507 -0.0702  0.5211 -1.0854
  131OSM    H3G14157   3.665   3.866   6.553  0.1678  0.7820  0.1951
  131OSM    C4F14158   3.556   3.757   6.713  0.4538 -0.7081  0.1716
  131OSM    H4F14159   3.471   3.685   6.721 -1.3044  1.3339  0.4285
  131OSM    H4G14160   3.525   3.853   6.759  0.4316 -0.4988 -0.2802
  131OSM    C5F14161   3.666   3.685   6.799  0.3317 -0.0974 -0.0899
  131OSM    H5F14162   3.758   3.747   6.797  0.7559 -0.6815  0.9049
  131OSM    H5G14163   3.692   3.589   6.751 -0.0172 -0.4462  0.4109
  131OSM    C6F14164   3.621   3.668   6.948  0.0737 -0.2603  0.5342
  131OSM    H6F14165   3.532   3.602   6.956  1.1185 -1.6452  0.8865
  131OSM    H6G14166   3.593   3.774   6.966  1.5525  0.3367 -0.5616
  131OSM    C7F14167   3.739   3.632   7.041  0.4417  0.2020 -0.0783
  131OSM    H7F14168   3.805   3.719   7.028 -0.5070  0.7698 -1.2143
  131OSM    H7G14169   3.797   3.546   7.001  0.7081  0.6081 -0.5559
  131OSM    C8F14170   3.707   3.625   7.190  0.6763 -0.4620  0.5485
  131OSM    H8F14171   3.654   3.717   7.222  0.9173 -0.5488  1.1966
  131OSM    H8G14172   3.807   3.624   7.238  0.1263  2.6150  1.9326
  131OSM    C9F14173   3.613   3.515   7.232  0.2472  0.4251 -0.3780
  131OSM    H9F14174   3.515   3.514   7.182  0.6399 -0.8556 -1.1376
  131OSM   C10F14175   3.616   3.449   7.353 -0.5057 -0.2945  0.1739
  131OSM   H10F14176   3.545   3.371   7.386 -2.7173  1.9569  0.8544
  131OSM   C11F14177   3.721   3.456   7.460  0.4062  0.8418 -0.1082
  131OSM   H11F14178   3.707   3.553   7.512 -0.4280  1.1097 -0.8215
  131OSM   H11G14179   3.818   3.464   7.408 -0.1217  0.8266 -1.1099
  131OSM   C12F14180   3.715   3.339   7.558 -0.7539 -0.1501 -0.0879
  131OSM   H12F14181   3.782   3.256   7.528  0.3569  0.9471 -0.7289
  131OSM   H12G14182   3.614   3.295   7.546  0.3004 -2.3723 -1.1044
  131OSM   C13F14183   3.728   3.383   7.708  0.1907 -0.3687  0.3776
  131OSM   H13F14184   3.660   3.472   7.712  1.4034  0.5868 -0.0111
  131OSM   H13G14185   3.828   3.430   7.716  0.4905 -0.6906 -1.4030
  131OSM   C14F14186   3.706   3.272   7.814 -0.8023  0.1145 -0.8239
  131OSM   H14F14187   3.783   3.194   7.829 -0.0214  1.0627  0.1750
  131OSM   H14G14188   3.617   3.211   7.787  0.5301 -2.6684  0.8967
  131OSM   C15F14189   3.666   3.328   7.952  0.3487 -0.2505  1.0239
  131OSM   H15F14190   3.648   3.251   8.029  0.7290  1.4006  2.7923
  131OSM   H15G14191   3.575   3.391   7.961 -0.4445 -1.4798  1.6372
  131OSM   C16F14192   3.775   3.417   8.016 -0.0281 -0.2274  0.8575
  131OSM   H16F14193   3.784   3.521   7.977 -1.0855 -0.4133  0.1068
  131OSM   H16G14194   3.868   3.358   8.005 -0.3127 -0.5995  0.4140
  131OSM   C17F14195   3.752   3.442   8.165  0.1353  0.6140  0.1168
  131OSM   H17F14196   3.754   3.338   8.203  1.9628  0.5662 -0.0672
  131OSM   H17G14197   3.659   3.499   8.185 -1.1479 -1.9585  1.6991
  131OSM   C18F14198   3.870   3.512   8.220 -0.1206 -0.2163 -0.1878
  131OSM   H18F14199   3.895   3.598   8.153 -0.6225 -1.0576 -1.4842
  131OSM   H18G14200   3.959   3.447   8.230 -0.9852 -1.5763 -1.2044
  131OSM   H18H14201   3.848   3.563   8.316  0.7964 -0.9482  0.4114
  132OSM      N14202   6.443   3.548   6.072 -0.6769 -0.2580 -0.0271
  132OSM    C1514203   6.525   3.508   5.952 -0.2858 -0.7967 -0.5748
  132OSM   H15A14204   6.603   3.439   5.982  0.2102 -0.1340 -0.3238
  132OSM   H15B14205   6.576   3.587   5.900  2.2822 -2.0678 -0.0925
  132OSM   H15C14206   6.466   3.447   5.886 -2.7062  1.9206 -0.9849
  132OSM    C1414207   6.335   3.640   6.015  0.6161 -0.3483 -0.6658
  132OSM   H14A14208   6.251   3.651   6.082  1.1078  1.1194 -0.2710
  132OSM   H14B14209   6.304   3.604   5.919  0.7976 -1.3671 -0.3451
  132OSM   H14C14210   6.370   3.742   6.005  1.1593 -0.4091  0.5104
  132OSM    C1314211   6.374   3.424   6.119 -0.0480 -0.2734 -0.5990
  132OSM   H13A14212   6.300   3.402   6.044 -0.7412  2.7300 -0.8628
  132OSM   H13B14213   6.323   3.426   6.214  0.8555 -2.8872 -0.0085
  132OSM   H13C14214   6.444   3.342   6.123 -1.2427 -1.3013 -0.4837
  132OSM    C1214215   6.533   3.605   6.175  0.4813 -0.8013  0.0129
  132OSM   H12A14216   6.569   3.698   6.133  0.1198 -0.2999  0.8137
  132OSM   H12B14217   6.615   3.535   6.178  0.2127 -1.1685 -0.9258
  132OSM    C1114218   6.480   3.637   6.312  0.2888  0.3013 -0.2804
  132OSM   H11A14219   6.572   3.666   6.367  0.7011  2.0603 -1.8313
  132OSM   H11B14220   6.439   3.543   6.353 -1.2311  0.7985 -0.6123
  132OSM      P14221   6.411   3.881   6.272 -0.1796  0.0318  0.0778
  132OSM    O1314222   6.525   3.881   6.184  0.6000 -0.1050 -0.4555
  132OSM    O1414223   6.292   3.956   6.229  0.3257  0.1224  0.1415
  132OSM    O1114224   6.459   3.937   6.412 -0.1947  0.0678 -0.0764
  132OSM    O1214225   6.375   3.733   6.307  0.8171  0.0771  0.0927
  132OSM    C1S14226   6.372   3.907   6.532 -0.1951  0.9392  1.1724
  132OSM    H1S14227   6.367   3.796   6.533 -1.4160  0.9417 -0.6558
  132OSM    H1T14228   6.267   3.942   6.518  0.2588  0.9684 -2.6722
  132OSM     NF14229   6.333   3.933   6.763  0.2703  0.0916 -0.4280
  132OSM    HNF14230   6.262   4.002   6.777 -0.8691 -1.4191  1.4291
  132OSM    C2S14231   6.438   3.952   6.663 -0.2541  0.5603 -0.8122
  132OSM    H2S14232   6.522   3.884   6.690 -1.8171 -1.8362 -1.8413
  132OSM    C3S14233   6.480   4.098   6.660 -0.1490 -0.1255  0.3537
  132OSM    H3S14234   6.390   4.164   6.659 -0.1798 -0.1536  1.1124
  132OSM     O314235   6.554   4.153   6.546 -0.5837  0.2124 -0.2539
  132OSM    HO314236   6.540   4.089   6.475 -0.5216 -1.2571  1.0408
  132OSM    C4S14237   6.556   4.135   6.785 -0.3341 -0.2375 -0.2032
  132OSM    H4S14238   6.507   4.210   6.848  0.3304 -1.6228  2.0279
  132OSM    C5S14239   6.675   4.082   6.816 -0.4961  0.1033  0.3713
  132OSM    H5S14240   6.725   4.025   6.736  1.9448  1.1795  1.0962
  132OSM    C6S14241   6.759   4.127   6.935  0.8779 -0.4103  0.4679
  132OSM    H6S14242   6.806   4.227   6.918  1.9602 -0.9460  0.2620
  132OSM    H6T14243   6.843   4.055   6.942  0.5340 -0.8469  0.0731
  132OSM    C7S14244   6.687   4.141   7.071  0.1580 -0.5864 -0.4204
  132OSM    H7S14245   6.629   4.047   7.089  0.1512 -0.3264  0.9892
  132OSM    H7T14246   6.613   4.222   7.057  1.8756  0.7059 -2.2497
  132OSM    C8S14247   6.793   4.175   7.174 -0.3586  0.5500 -0.4656
  132OSM    H8S14248   6.851   4.266   7.146 -1.3898  0.2503 -3.8651
  132OSM    H8T14249   6.863   4.090   7.183 -0.3710  0.6541  0.5837
  132OSM    C9S14250   6.733   4.186   7.316  0.6424 -0.1927 -0.7139
  132OSM    H9S14251   6.706   4.083   7.347 -0.9746  0.2895 -0.4554
  132OSM    H9T14252   6.652   4.261   7.329  0.2380 -0.8304  0.4558
  132OSM   C10S14253   6.841   4.227   7.418  0.3450 -0.1848  0.5566
  132OSM   H10S14254   6.843   4.338   7.417 -1.5741 -0.1407 -1.5395
  132OSM   H10T14255   6.941   4.189   7.389 -0.8509 -2.6847 -0.4321
  132OSM   C11S14256   6.815   4.177   7.562  0.9197 -0.3085 -0.3339
  132OSM   H11S14257   6.838   4.069   7.575  1.3091 -0.2067 -0.1509
  132OSM   H11T14258   6.707   4.181   7.586  0.9772  0.8293 -0.2135
  132OSM   C12S14259   6.885   4.261   7.674  0.1546  0.0003 -0.8353
  132OSM   H12S14260   6.886   4.370   7.653 -4.7294  0.2215 -0.4118
  132OSM   H12T14261   6.993   4.238   7.663  0.4932  1.8645 -1.6214
  132OSM   C13S14262   6.842   4.238   7.825  0.6560 -0.0901  1.0622
  132OSM   H13S14263   6.824   4.129   7.833  2.9624 -0.6982 -1.1459
  132OSM   H13T14264   6.748   4.292   7.846  0.2838 -0.7072  0.9995
  132OSM   C14S14265   6.945   4.294   7.929  0.4947  0.6658 -0.1776
  132OSM   H14S14266   6.962   4.396   7.887  0.6820  0.6814 -0.0633
  132OSM   H14T14267   7.040   4.237   7.917 -1.8518 -3.0601 -2.0361
  132OSM   C15S14268   6.901   4.279   8.072 -0.0152 -0.5850  0.1847
  132OSM   H15S14269   6.872   4.172   8.085 -1.5517 -0.1463  0.4681
  132OSM   H15T14270   6.805   4.335   8.083  0.7441  0.9221 -0.7137
  132OSM   C16S14271   7.008   4.308   8.175  0.3529  0.5384 -0.6470
  132OSM   H16S14272   7.033   4.416   8.165 -2.9058  1.7979  3.6085
  132OSM   H16T14273   7.094   4.240   8.154  0.9050  0.7268  0.9327
  132OSM   C17S14274   6.965   4.292   8.319 -0.0058  0.5692 -0.2088
  132OSM   H17S14275   6.928   4.189   8.340  0.3226  0.0542 -2.0811
  132OSM   H17T14276   6.882   4.362   8.344  1.9146  2.6213  0.6090
  132OSM   C18S14277   7.077   4.306   8.430 -0.6137  0.1410 -0.0774
  132OSM   H18S14278   7.036   4.341   8.527  1.4237  4.1670 -0.5371
  132OSM   H18T14279   7.152   4.382   8.398 -1.3111  1.1080  0.5147
  132OSM   H18U14280   7.139   4.215   8.445 -0.3395  0.3102 -0.1798
  132OSM    C1F14281   6.295   3.802   6.788 -0.2045  0.1098  0.0725
  132OSM     OF14282   6.359   3.707   6.751 -0.6988 -0.5681 -0.3751
  132OSM    C2F14283   6.175   3.776   6.870 -0.1109  0.2669  0.2379
  132OSM    H2F14284   6.102   3.711   6.818 -0.8903  2.0625 -0.9609
  132OSM    H2G14285   6.127   3.875   6.885 -3.2197 -0.7796 -2.2416
  132OSM    C3F14286   6.203   3.718   7.008 -0.0928 -0.1698 -0.6703
  132OSM    H3F14287   6.229   3.611   6.995  1.7427  0.3783 -1.6128
  132OSM    H3G14288   6.111   3.721   7.072  1.5842  2.6061  1.7422
  132OSM    C4F14289   6.300   3.808   7.090  0.2640  0.1943  0.1926
  132OSM    H4F14290   6.246   3.902   7.113  1.4595  0.5512  1.6069
  132OSM    H4G14291   6.391   3.846   7.039  1.0462 -1.9180 -0.0356
  132OSM    C5F14292   6.347   3.736   7.216  0.2846  0.1585 -0.2127
  132OSM    H5F14293   6.262   3.680   7.260 -0.4776  0.8654 -0.7526
  132OSM    H5G14294   6.382   3.809   7.292 -1.0616  1.5974 -0.9450
  132OSM    C6F14295   6.470   3.644   7.187 -0.1518  0.9292  0.2767
  132OSM    H6F14296   6.555   3.714   7.172 -0.3163  0.9229 -0.7475
  132OSM    H6G14297   6.447   3.582   7.097 -0.4418  0.6590  0.5360
  132OSM    C7F14298   6.499   3.538   7.297 -0.2947  0.2474  0.6489
  132OSM    H7F14299   6.592   3.487   7.263 -2.3747 -2.5674 -0.9763
  132OSM    H7G14300   6.411   3.471   7.296  0.0450 -0.2071  1.1298
  132OSM    C8F14301   6.503   3.574   7.452  0.0021 -0.1619 -0.0508
  132OSM    H8F14302   6.526   3.487   7.517 -0.5417 -0.7838 -0.6805
  132OSM    H8G14303   6.412   3.630   7.482  1.7958  2.4435  0.7073
  132OSM    C9F14304   6.613   3.678   7.460 -0.3263  1.0730  0.1932
  132OSM    H9F14305   6.706   3.649   7.409 -0.8810 -1.9101  0.8179
  132OSM   C10F14306   6.601   3.799   7.514 -0.1367 -0.3957  0.4601
  132OSM   H10F14307   6.689   3.856   7.546  0.5705 -0.1510 -1.8285
  132OSM   C11F14308   6.475   3.852   7.580  0.0624  0.2618 -0.2177
  132OSM   H11F14309   6.378   3.838   7.526 -1.0656  2.3219  1.1853
  132OSM   H11G14310   6.475   3.963   7.585 -0.9305  0.2297  0.7362
  132OSM   C12F14311   6.458   3.796   7.723 -0.4100  0.3526 -0.3154
  132OSM   H12F14312   6.453   3.685   7.712  0.2205  0.2315  0.6206
  132OSM   H12G14313   6.366   3.838   7.768  0.5037 -1.5690  3.5119
  132OSM   C13F14314   6.572   3.842   7.813  0.4698 -0.1128  0.0439
  132OSM   H13F14315   6.594   3.950   7.795  0.5696 -0.3986 -1.6800
  132OSM   H13G14316   6.666   3.789   7.788  1.7336  2.1106 -0.0175
  132OSM   C14F14317   6.553   3.816   7.959  0.0407  0.4639 -0.8417
  132OSM   H14F14318   6.565   3.709   7.989  0.2529  1.3241  2.3543
  132OSM   H14G14319   6.449   3.849   7.979 -0.0640 -0.7790  0.7463
  132OSM   C15F14320   6.651   3.899   8.047  0.6443  0.3494 -0.6967
  132OSM   H15F14321   6.636   4.004   8.015  1.5725  1.5003  2.4071
  132OSM   H15G14322   6.751   3.873   8.007  1.3447 -0.2392  1.3503
  132OSM   C16F14323   6.646   3.869   8.190  0.5714  0.1485 -0.2617
  132OSM   H16F14324   6.663   3.761   8.209  2.4348  0.0197 -2.4864
  132OSM   H16G14325   6.542   3.894   8.220 -0.7064 -3.4901 -1.3544
  132OSM   C17F14326   6.748   3.951   8.264  0.2758 -0.1941  0.9286
  132OSM   H17F14327   6.738   4.052   8.218 -0.0646 -1.1912 -1.2466
  132OSM   H17G14328   6.851   3.917   8.237  0.6732  0.0592  2.1055
  132OSM   C18F14329   6.722   3.955   8.414  0.7288 -0.5764 -0.0056
  132OSM   H18F14330   6.744   3.851   8.446  2.9200  0.0439  0.5992
  132OSM   H18G14331   6.617   3.980   8.440  0.2692 -2.5937  0.1698
  132OSM   H18H14332   6.776   4.036   8.467 -1.3905 -0.6480  2.3663
  133OSM      N14333   0.250   3.029   6.448  0.0990  0.0017 -0.1623
  133OSM    C1514334   0.370   3.094   6.380  0.4525  0.0571 -0.6831
  133OSM   H15A14335   0.419   3.026   6.312 -1.5992 -0.6201 -1.5287
  133OSM   H15B14336   0.444   3.138   6.446 -1.6039  3.3228 -0.4519
  133OSM   H15C14337   0.331   3.178   6.326 -1.9678 -1.7856 -1.8890
  133OSM    C1414338   0.155   2.978   6.342  0.0063 -0.6831  0.8364
  133OSM   H14A14339   0.202   2.925   6.261 -1.5119 -0.6766 -0.0700
  133OSM   H14B14340   0.100   3.062   6.301  3.1371  1.1720  0.2577
  133OSM   H14C14341   0.074   2.916   6.376 -1.6894  1.2811  0.4871
  133OSM    C1314342   0.305   2.915   6.523  0.2354  0.6832  0.8369
  133OSM   H13A14343   0.368   2.855   6.460  0.7616 -0.8394  2.7429
  133OSM   H13B14344   0.222   2.852   6.553 -1.5932  2.8294  0.4528
  133OSM   H13C14345   0.357   2.932   6.616  1.9027  0.7582 -0.0994
  133OSM    C1214346   0.183   3.129   6.541  0.4422 -0.2062  0.1107
  133OSM   H12A14347   0.258   3.181   6.598  0.4697  0.8897 -0.9063
  133OSM   H12B14348   0.123   3.076   6.614 -0.3546  2.6674  1.6017
  133OSM    C1114349   0.091   3.239   6.484  1.2147  0.1801 -0.4276
  133OSM   H11A14350   0.146   3.287   6.400  0.4882  1.0517 -0.4072
  133OSM   H11B14351   0.066   3.314   6.562 -2.3562  1.1919 -2.4577
  133OSM      P14352  -0.136   3.274   6.364  0.0563 -0.3016  0.2325
  133OSM    O1314353  -0.083   3.346   6.243 -0.6573  0.8790  0.0158
  133OSM    O1414354  -0.247   3.185   6.338 -0.4046  0.5205  0.0748
  133OSM    O1114355  -0.171   3.382   6.472 -0.5232  0.6952  0.3202
  133OSM    O1214356  -0.028   3.182   6.425  0.4285  0.1154 -0.4553
  133OSM    C1S14357  -0.266   3.396   6.580 -0.4369 -0.0596 -0.0316
  133OSM    H1S14358  -0.305   3.297   6.613 -2.3776  0.7993  0.3373
  133OSM    H1T14359  -0.352   3.461   6.555 -0.6155 -0.5099 -0.5826
  133OSM     NF14360  -0.299   3.468   6.804  0.3259 -0.2540  0.0830
  133OSM    HNF14361  -0.376   3.531   6.796  1.7139  1.5243  0.4193
  133OSM    C2S14362  -0.200   3.460   6.702  0.8833 -0.4154 -0.1306
  133OSM    H2S14363  -0.114   3.402   6.741 -0.8022 -2.2012  0.9926
  133OSM    C3S14364  -0.135   3.599   6.675 -0.0676 -0.0127  0.3304
  133OSM    H3S14365  -0.217   3.669   6.647 -0.7760 -1.6261 -1.7379
  133OSM     O314366  -0.051   3.604   6.555  0.1081  0.0419 -0.1572
  133OSM    HO314367  -0.063   3.525   6.501  0.0981  0.5203 -0.8627
  133OSM    C4S14368  -0.052   3.661   6.790  0.5473 -0.3995  0.3256
  133OSM    H4S14369  -0.105   3.676   6.886  1.3208 -1.4861  0.9419
  133OSM    C5S14370   0.079   3.683   6.796  0.1096  0.3619 -0.3972
  133OSM    H5S14371   0.134   3.639   6.712 -0.1946 -0.5608 -0.1136
  133OSM    C6S14372   0.161   3.744   6.911 -0.1708 -0.3411 -0.0958
  133OSM    H6S14373   0.197   3.847   6.889 -2.0696 -0.2471 -3.1546
  133OSM    H6T14374   0.243   3.670   6.927  0.0535 -0.4407 -1.6197
  133OSM    C7S14375   0.077   3.750   7.043 -0.4901 -1.2237  0.2394
  133OSM    H7S14376   0.045   3.648   7.070 -4.3937  0.1217  1.0962
  133OSM    H7T14377  -0.011   3.813   7.016 -0.1888 -1.2133 -0.7291
  133OSM    C8S14378   0.154   3.817   7.159  0.1272 -0.4572  0.6953
  133OSM    H8S14379   0.067   3.836   7.226 -0.8307 -1.8628 -0.1054
  133OSM    H8T14380   0.185   3.916   7.119  0.4078 -0.7735  0.1236
  133OSM    C9S14381   0.278   3.740   7.214  0.5851  0.6553  0.1668
  133OSM    H9S14382   0.364   3.767   7.148 -0.3777 -1.5740 -2.0824
  133OSM    H9T14383   0.258   3.631   7.215  0.7485  0.5966 -1.2474
  133OSM   C10S14384   0.317   3.784   7.355  0.4845 -1.1567  0.8942
  133OSM   H10S14385   0.298   3.893   7.365  1.7490 -0.9084  0.6441
  133OSM   H10T14386   0.428   3.778   7.358  0.5186 -1.0156 -0.0162
  133OSM   C11S14387   0.262   3.695   7.463  0.8169 -0.2165 -0.5581
  133OSM   H11S14388   0.306   3.596   7.439  1.0089 -1.1762  3.3349
  133OSM   H11T14389   0.153   3.675   7.456  1.0358 -1.3181 -0.8501
  133OSM   C12S14390   0.312   3.749   7.602 -0.0741  0.9264 -0.5311
  133OSM   H12S14391   0.418   3.774   7.581  0.2392 -2.2671 -3.3322
  133OSM   H12T14392   0.317   3.672   7.682  2.1546  1.6673  0.0867
  133OSM   C13S14393   0.239   3.873   7.642 -0.2000  0.4628 -0.7082
  133OSM   H13S14394   0.135   3.849   7.672 -0.1805  2.6280  1.2992
  133OSM   H13T14395   0.214   3.941   7.558 -0.9659  1.4708  0.3050
  133OSM   C14S14396   0.311   3.933   7.763 -0.3845 -0.1350  0.2316
  133OSM   H14S14397   0.291   4.042   7.768  0.4753  0.1355 -1.8681
  133OSM   H14T14398   0.420   3.928   7.745 -0.7828  1.1845 -2.8595
  133OSM   C15S14399   0.276   3.869   7.907  0.2421 -0.6023 -0.0550
  133OSM   H15S14400   0.289   3.759   7.916 -0.2944 -0.5739  1.1115
  133OSM   H15T14401   0.171   3.893   7.935  0.5038 -1.7482  2.0169
  133OSM   C16S14402   0.378   3.943   7.999 -0.2463 -0.1794  0.0106
  133OSM   H16S14403   0.338   4.046   7.993 -1.2485 -0.6469 -1.5335
  133OSM   H16T14404   0.481   3.941   7.957 -0.7424 -1.4247 -1.1737
  133OSM   C17S14405   0.375   3.893   8.145  0.5768 -0.7935  1.0867
  133OSM   H17S14406   0.424   3.796   8.163  0.0969 -0.9383  1.6427
  133OSM   H17T14407   0.268   3.869   8.164 -0.0825  0.2878 -1.0953
  133OSM   C18S14408   0.417   3.996   8.254  0.2298  0.5939  0.0170
  133OSM   H18S14409   0.334   4.068   8.270 -0.6638 -0.4726  0.2216
  133OSM   H18T14410   0.513   4.042   8.223 -0.5578  2.1180 -0.2068
  133OSM   H18U14411   0.432   3.947   8.353  1.4370  0.3122 -0.2946
  133OSM    C1F14412  -0.321   3.365   6.882 -0.1094  0.5335  0.0200
  133OSM     OF14413  -0.243   3.270   6.890  0.2909 -0.6844 -0.5703
  133OSM    C2F14414  -0.444   3.360   6.958  0.0903  0.6575  0.3220
  133OSM    H2F14415  -0.519   3.415   6.897  0.8706  1.1368 -0.2171
  133OSM    H2G14416  -0.445   3.387   7.066 -1.3148 -0.4060  0.5903
  133OSM    C3F14417  -0.488   3.213   6.963  0.2960  0.4764  0.0341
  133OSM    H3F14418  -0.416   3.163   7.031  0.3675 -0.0491 -0.4219
  133OSM    H3G14419  -0.477   3.153   6.870  1.0243  1.6224 -0.6265
  133OSM    C4F14420  -0.634   3.194   7.017 -0.5611 -0.3851  0.0905
  133OSM    H4F14421  -0.705   3.160   6.938  0.1572 -0.8743 -0.3499
  133OSM    H4G14422  -0.664   3.290   7.064 -2.2048 -0.1464 -1.4061
  133OSM    C5F14423  -0.636   3.088   7.127 -0.2826  0.4455  0.0821
  133OSM    H5F14424  -0.552   3.106   7.198 -2.1119 -1.8241  2.9545
  133OSM    H5G14425  -0.626   2.987   7.082 -0.3674 -0.1247  1.3105
  133OSM    C6F14426  -0.767   3.085   7.206  0.3537  0.6171 -0.4449
  133OSM    H6F14427  -0.863   3.099   7.152  1.0796  3.6049 -1.0578
  133OSM    H6G14428  -0.773   3.169   7.278  0.4575 -2.9226  3.9170
  133OSM    C7F14429  -0.792   2.955   7.289 -0.2252 -0.4151  0.3691
  133OSM    H7F14430  -0.688   2.917   7.285 -0.7023 -1.6296 -1.1077
  133OSM    H7G14431  -0.847   2.889   7.218  1.8582 -0.1802 -1.5157
  133OSM    C8F14432  -0.845   2.977   7.431 -0.2836  0.2694  0.2985
  133OSM    H8F14433  -0.919   3.055   7.403 -0.7548  0.0740  0.9880
  133OSM    H8G14434  -0.793   3.045   7.502 -0.2424 -0.9790  1.5028
  133OSM    C9F14435  -0.924   2.871   7.501  0.5187  0.1288 -0.1480
  133OSM    H9F14436  -1.023   2.853   7.456 -0.0183  1.1883  0.5788
  133OSM   C10F14437  -0.894   2.795   7.606 -0.6022  0.5258  0.2146
  133OSM   H10F14438  -0.972   2.724   7.639 -0.4579  0.3461  0.1702
  133OSM   C11F14439  -0.760   2.788   7.678  0.0283 -0.3244  0.5593
  133OSM   H11F14440  -0.680   2.854   7.639  0.0417 -0.9812 -0.5313
  133OSM   H11G14441  -0.722   2.684   7.670 -2.1412 -1.2697  1.9018
  133OSM   C12F14442  -0.784   2.822   7.824 -0.0248  0.3323 -0.3322
  133OSM   H12F14443  -0.696   2.769   7.865 -0.7611 -0.6511  0.0077
  133OSM   H12G14444  -0.877   2.776   7.864  1.2748 -1.0994  1.1358
  133OSM   C13F14445  -0.793   2.975   7.854 -0.3728 -0.2625 -0.6262
  133OSM   H13F14446  -0.887   3.013   7.807 -0.8218 -1.1302 -0.4384
  133OSM   H13G14447  -0.710   3.023   7.798  1.7604 -2.9162  0.1876
  133OSM   C14F14448  -0.771   2.998   8.004  0.3104  0.8758 -0.5426
  133OSM   H14F14449  -0.679   2.947   8.041 -0.3367  0.6757  0.8279
  133OSM   H14G14450  -0.853   2.945   8.057 -0.7646  3.7763  0.8390
  133OSM   C15F14451  -0.777   3.144   8.045  0.8640 -1.1608  0.3273
  133OSM   H15F14452  -0.687   3.200   8.008  1.6145  0.0651  3.8175
  133OSM   H15G14453  -0.755   3.155   8.153  0.4485  0.8163  0.2256
  133OSM   C16F14454  -0.906   3.224   8.030 -0.4646 -0.2335 -0.1693
  133OSM   H16F14455  -0.979   3.176   8.098 -1.2907 -0.1506 -0.9909
  133OSM   H16G14456  -0.949   3.199   7.931 -0.7958  1.0505 -0.3473
  133OSM   C17F14457  -0.889   3.370   8.048 -0.2392  0.0311  0.8303
  133OSM   H17F14458  -0.811   3.399   7.974 -0.3166  0.2376  0.8287
  133OSM   H17G14459  -0.838   3.388   8.146  0.6883  0.5297  0.2656
  133OSM   C18F14460  -1.024   3.454   8.037 -0.7454 -0.0921 -0.1082
  133OSM   H18F14461  -1.064   3.437   7.934  0.1203  0.8222 -0.6033
  133OSM   H18G14462  -0.983   3.555   8.060  2.1998 -1.1764 -0.3480
  133OSM   H18H14463  -1.098   3.428   8.115 -1.5546 -1.6860 -1.3820
  134OSM      N14464   1.149   0.757   6.503 -0.7881 -0.3844  0.2062
  134OSM    C1514465   1.146   0.903   6.536 -0.5173  0.4146 -0.5456
  134OSM   H15A14466   1.086   0.920   6.624  1.2528  0.0487  0.7660
  134OSM   H15B14467   1.106   0.964   6.457  2.1571 -1.2590 -3.3577
  134OSM   H15C14468   1.246   0.937   6.560 -0.3876  0.5992 -1.3190
  134OSM    C1414469   1.009   0.724   6.462  0.7467 -0.5313 -0.3101
  134OSM   H14A14470   0.978   0.796   6.388  0.0728 -1.5996 -1.0744
  134OSM   H14B14471   0.941   0.733   6.546  2.6491  1.3622  1.0816
  134OSM   H14C14472   0.993   0.625   6.420 -2.1599  0.2767 -1.1951
  134OSM    C1314473   1.238   0.735   6.393 -0.0426  0.5803  0.9000
  134OSM   H13A14474   1.258   0.629   6.382  0.4508  0.9849 -2.6914
  134OSM   H13B14475   1.329   0.793   6.399  0.5481 -0.3137  0.7585
  134OSM   H13C14476   1.193   0.772   6.302 -0.3512  1.6615  1.4876
  134OSM    C1214477   1.200   0.689   6.631  0.5276  0.1618  0.2580
  134OSM   H12A14478   1.126   0.712   6.706  1.4595  0.6535  1.0369
  134OSM   H12B14479   1.290   0.737   6.665  1.0891  0.2127 -1.2671
  134OSM    C1114480   1.211   0.530   6.612 -0.6431 -0.6035  0.0990
  134OSM   H11A14481   1.112   0.482   6.599 -0.5684 -0.7003 -0.1200
  134OSM   H11B14482   1.247   0.504   6.714 -0.8510 -1.0787  0.0496
  134OSM      P14483   1.290   0.357   6.434  0.3707  0.3424 -0.1151
  134OSM    O1314484   1.207   0.386   6.312  1.0105 -0.4538 -0.1478
  134OSM    O1414485   1.425   0.303   6.405 -0.3259 -0.7110 -0.1274
  134OSM    O1114486   1.200   0.266   6.526  0.7698 -0.4728  0.4377
  134OSM    O1214487   1.302   0.491   6.505  0.7300  0.4699  0.0284
  134OSM    C1S14488   1.254   0.230   6.658  0.0192  0.4649 -0.4371
  134OSM    H1S14489   1.174   0.261   6.728  0.8595 -0.6403  1.0296
  134OSM    H1T14490   1.342   0.287   6.694  1.4914 -0.8009 -1.9067
  134OSM     NF14491   1.318   0.066   6.814 -0.0920  0.4272  1.0242
  134OSM    HNF14492   1.415   0.044   6.804 -0.0710  0.6876  0.6622
  134OSM    C2S14493   1.260   0.080   6.686 -0.8189  0.4629  0.2970
  134OSM    H2S14494   1.156   0.040   6.688 -0.5097 -0.3132  0.7630
  134OSM    C3S14495   1.324  -0.010   6.573 -0.2776 -0.6285  0.1657
  134OSM    H3S14496   1.428   0.021   6.549 -0.6346  0.3782 -0.1185
  134OSM     O314497   1.248  -0.006   6.450 -0.2438  0.0302 -0.1788
  134OSM    HO314498   1.189   0.068   6.466 -0.5203  0.1369 -1.6282
  134OSM    C4S14499   1.326  -0.151   6.620 -0.3813  0.0371 -0.1151
  134OSM    H4S14500   1.234  -0.186   6.671 -0.2246 -2.5518 -1.5286
  134OSM    C5S14501   1.433  -0.235   6.621 -0.0560 -0.4016  0.3496
  134OSM    H5S14502   1.531  -0.200   6.586  0.5004 -1.9313  0.3283
  134OSM    C6S14503   1.446  -0.370   6.671  1.0747 -0.5493 -0.0965
  134OSM    H6S14504   1.488  -0.437   6.593  1.1735 -0.6220  0.0199
  134OSM    H6T14505   1.344  -0.415   6.677 -0.3302  2.2428 -1.9151
  134OSM    C7S14506   1.510  -0.393   6.806 -0.4905 -0.0375 -0.3830
  134OSM    H7S14507   1.607  -0.344   6.787 -0.8869  1.7552  2.0628
  134OSM    H7T14508   1.528  -0.501   6.824  1.3422  0.1679 -0.9329
  134OSM    C8S14509   1.434  -0.336   6.921  0.7218 -0.4449  0.2894
  134OSM    H8S14510   1.336  -0.386   6.933  0.7412 -0.8326 -1.1661
  134OSM    H8T14511   1.406  -0.230   6.903  1.8120 -0.6476 -2.7520
  134OSM    C9S14512   1.508  -0.351   7.053 -0.0695 -0.3569 -0.2665
  134OSM    H9S14513   1.609  -0.307   7.044 -0.5122  0.5108 -1.0595
  134OSM    H9T14514   1.522  -0.461   7.060 -0.7408 -0.6943 -3.4746
  134OSM   C10S14515   1.443  -0.291   7.176 -0.4444  0.4069  0.3171
  134OSM   H10S14516   1.353  -0.356   7.187 -0.6238  0.9478  2.1585
  134OSM   H10T14517   1.414  -0.189   7.144  2.5287  1.0863 -0.3235
  134OSM   C11S14518   1.531  -0.286   7.301  0.1684 -0.1266  0.0920
  134OSM   H11S14519   1.611  -0.209   7.297 -1.1408  1.2428  0.0339
  134OSM   H11T14520   1.579  -0.383   7.325 -0.4400 -0.3529  0.3882
  134OSM   C12S14521   1.446  -0.253   7.422  0.4443 -0.7318 -0.3174
  134OSM   H12S14522   1.367  -0.331   7.417 -1.6061  1.2625 -0.1535
  134OSM   H12T14523   1.392  -0.156   7.413 -1.4210 -1.6287  0.7936
  134OSM   C13S14524   1.518  -0.251   7.558  0.3391 -0.2195  0.3411
  134OSM   H13S14525   1.601  -0.177   7.559  0.1486  0.0073  2.7187
  134OSM   H13T14526   1.561  -0.353   7.558  1.6017  0.3113  0.0406
  134OSM   C14S14527   1.418  -0.226   7.669  0.5097  0.5037 -0.1953
  134OSM   H14S14528   1.326  -0.287   7.656  0.8983 -0.0424 -0.4118
  134OSM   H14T14529   1.390  -0.120   7.685 -3.1446 -0.2141 -1.4103
  134OSM   C15S14530   1.501  -0.260   7.801  0.2280 -0.0995  0.6248
  134OSM   H15S14531   1.596  -0.204   7.815  0.3317 -0.0758 -0.1906
  134OSM   H15T14532   1.515  -0.370   7.806  0.9379 -0.1570 -1.9949
  134OSM   C16S14533   1.426  -0.228   7.934 -0.1843 -0.4041 -0.0060
  134OSM   H16S14534   1.333  -0.289   7.935  0.9288 -2.1346 -0.4593
  134OSM   H16T14535   1.400  -0.120   7.926 -1.4054 -0.6831  0.1825
  134OSM   C17S14536   1.507  -0.268   8.062 -0.7936 -0.8038  0.7344
  134OSM   H17S14537   1.613  -0.241   8.043 -1.3626  0.2735 -1.0182
  134OSM   H17T14538   1.513  -0.379   8.059  3.3990 -0.6035 -1.8859
  134OSM   C18S14539   1.458  -0.216   8.189  0.5266 -0.0094  0.6773
  134OSM   H18S14540   1.508  -0.253   8.281 -0.1790 -3.3159 -0.2146
  134OSM   H18T14541   1.349  -0.231   8.202  0.1894  2.1859  0.5462
  134OSM   H18U14542   1.476  -0.107   8.196 -0.8124  0.5381 -3.3737
  134OSM    C1F14543   1.263   0.104   6.927  0.0655  0.0300  0.5424
  134OSM     OF14544   1.146   0.142   6.937 -0.0146 -0.0567 -0.0316
  134OSM    C2F14545   1.356   0.112   7.045  0.1647 -0.3993  0.3652
  134OSM    H2F14546   1.447   0.167   7.010 -0.0912 -0.9515 -1.2006
  134OSM    H2G14547   1.394   0.009   7.061 -0.1796 -0.9155 -2.0079
  134OSM    C3F14548   1.292   0.176   7.171 -0.4294 -0.4835 -0.1537
  134OSM    H3F14549   1.198   0.126   7.202  0.3902 -1.5402  0.6682
  134OSM    H3G14550   1.261   0.281   7.151 -0.8928 -0.0648  2.5621
  134OSM    C4F14551   1.380   0.167   7.296  0.4419 -0.7708  0.7467
  134OSM    H4F14552   1.475   0.218   7.266  0.6689 -1.6965 -0.1524
  134OSM    H4G14553   1.423   0.067   7.315  1.9849 -0.4915 -1.0524
  134OSM    C5F14554   1.314   0.226   7.419 -0.3745  0.1240  0.6535
  134OSM    H5F14555   1.218   0.172   7.435 -0.0874 -0.4125  0.5838
  134OSM    H5G14556   1.290   0.331   7.394 -1.9507 -0.2758  0.3986
  134OSM    C6F14557   1.387   0.206   7.548 -0.3398  0.0901 -0.5209
  134OSM    H6F14558   1.492   0.234   7.526  0.4236  0.3876  3.1939
  134OSM    H6G14559   1.387   0.097   7.569  0.0378  0.2933  0.5391
  134OSM    C7F14560   1.345   0.293   7.662 -0.2509  0.1823 -0.5306
  134OSM    H7F14561   1.234   0.300   7.661 -0.3032 -0.1960  1.0023
  134OSM    H7G14562   1.390   0.393   7.644  0.5061 -0.1379 -0.4319
  134OSM    C8F14563   1.386   0.221   7.797  0.1666 -0.7679 -0.3847
  134OSM    H8F14564   1.496   0.228   7.802  0.0709  0.1230  0.9169
  134OSM    H8G14565   1.350   0.116   7.788 -1.6404 -0.1895 -0.2745
  134OSM    C9F14566   1.330   0.301   7.909  0.2797  0.3728  0.7515
  134OSM    H9F14567   1.367   0.405   7.917  0.6120  0.3209 -0.1424
  134OSM   C10F14568   1.250   0.259   8.002  0.0014  0.8484  0.0766
  134OSM   H10F14569   1.232   0.339   8.076  0.3600  0.2028  0.8655
  134OSM   C11F14570   1.204   0.117   8.017  0.2696  0.2381 -0.7368
  134OSM   H11F14571   1.253   0.044   7.949  0.9329  0.9052 -0.9844
  134OSM   H11G14572   1.098   0.105   7.986  0.6236  0.0907 -1.9333
  134OSM   C12F14573   1.214   0.063   8.159  0.1109 -0.4804 -0.5550
  134OSM   H12F14574   1.307   0.088   8.214 -0.7691 -0.0573  0.7409
  134OSM   H12G14575   1.203  -0.047   8.153 -0.3625 -0.4588 -0.0329
  134OSM   C13F14576   1.089   0.112   8.239  0.7145  0.1585 -0.1458
  134OSM   H13F14577   0.990   0.082   8.199  0.4016  1.6765 -0.5710
  134OSM   H13G14578   1.083   0.222   8.224 -2.8372 -0.2231 -2.3743
  134OSM   C14F14579   1.101   0.081   8.379  0.0230  0.4401  0.1214
  134OSM   H14F14580   1.046   0.162   8.432 -2.3100 -0.9688 -0.0789
  134OSM   H14G14581   1.205   0.095   8.414 -0.0801 -0.8379  1.0008
  134OSM   C15F14582   1.039  -0.056   8.418 -0.2508 -0.7129  0.1633
  134OSM   H15F14583   1.073  -0.136   8.349  2.2150  1.0763 -0.7454
  134OSM   H15G14584   0.930  -0.043   8.404  0.3036  2.0340 -1.9642
  134OSM   C16F14585   1.064  -0.095   8.561  0.3473  0.6268  0.1541
  134OSM   H16F14586   1.025  -0.013   8.625 -0.6264  0.7785 -0.6325
  134OSM   H16G14587   1.173  -0.111   8.581  0.1599 -0.7056  0.1718
  134OSM   C17F14588   1.009  -0.237   8.586 -0.3274  0.0298 -0.4189
  134OSM   H17F14589   1.034  -0.322   8.520  1.6221  0.0923  0.2260
  134OSM   H17G14590   0.898  -0.230   8.581 -0.4905 -1.3121  1.3318
  134OSM   C18F14591   1.057  -0.291   8.726  0.2709  0.1992 -0.7298
  134OSM   H18F14592   1.021  -0.396   8.738  1.2266 -0.1139 -0.5631
  134OSM   H18G14593   1.006  -0.235   8.808 -0.8200 -2.0625  0.2033
  134OSM   H18H14594   1.167  -0.283   8.728  0.3995 -0.8948 -2.7834
  135OSM      N14595   0.982   0.179   6.083 -0.2105 -0.6587  0.1893
  135OSM    C1514596   1.116   0.188   6.016  0.3857 -0.3311  0.3136
  135OSM   H15A14597   1.178   0.099   6.019  0.1485 -0.5100 -0.0192
  135OSM   H15B14598   1.178   0.263   6.061  0.3942 -0.6637  0.8603
  135OSM   H15C14599   1.096   0.220   5.915 -1.6231  0.0969  0.8159
  135OSM    C1414600   0.906   0.307   6.070 -0.7615  0.0587  0.2985
  135OSM   H14A14601   0.968   0.389   6.103  0.0728 -0.8554  1.0222
  135OSM   H14B14602   0.823   0.295   6.139  0.0040 -1.5437  0.9642
  135OSM   H14C14603   0.872   0.328   5.970  0.5386  1.4519  0.1325
  135OSM    C1314604   0.903   0.073   6.011 -0.4045 -0.0438 -0.9055
  135OSM   H13A14605   0.890   0.093   5.905  0.4069 -0.6276 -1.1159
  135OSM   H13B14606   0.806   0.055   6.056 -1.4056 -0.3390 -3.0738
  135OSM   H13C14607   0.957  -0.020   6.016  0.5496  0.3746 -2.6876
  135OSM    C1214608   1.008   0.156   6.226  0.2648  0.2944 -0.7617
  135OSM   H12A14609   1.058   0.244   6.263  0.5881 -0.1126 -0.2334
  135OSM   H12B14610   1.073   0.072   6.244  1.4399  1.6244  1.2728
  135OSM    C1114611   0.888   0.124   6.311  0.1441 -0.5559 -0.2610
  135OSM   H11A14612   0.933   0.102   6.410  0.9801  0.5807 -0.3773
  135OSM   H11B14613   0.834   0.033   6.278  1.0515 -1.4807  0.7551
  135OSM      P14614   0.716   0.278   6.422 -0.1949 -0.3907  0.1694
  135OSM    O1314615   0.711   0.426   6.450  0.3081  0.2487  0.0270
  135OSM    O1414616   0.586   0.214   6.387  0.7557  0.4855  0.1226
  135OSM    O1114617   0.782   0.214   6.555  0.4863 -0.1096  0.3112
  135OSM    O1214618   0.817   0.248   6.312  0.2161 -0.1934 -0.1273
  135OSM    C1S14619   0.888   0.272   6.629 -0.3091 -0.3765 -0.4640
  135OSM    H1S14620   0.922   0.372   6.594 -1.3452 -0.3555 -1.4616
  135OSM    H1T14621   0.979   0.209   6.627  1.4112  2.0537 -0.8957
  135OSM     NF14622   0.952   0.347   6.858  0.5190 -0.2241  0.1588
  135OSM    HNF14623   1.023   0.291   6.901  0.4407 -0.8835 -0.5527
  135OSM    C2S14624   0.849   0.277   6.787  0.7178  0.3323 -0.0078
  135OSM    H2S14625   0.756   0.337   6.794  1.1171  0.8791  0.6200
  135OSM    C3S14626   0.813   0.140   6.842  0.2473  0.1446  0.4391
  135OSM    H3S14627   0.905   0.078   6.839  0.4651  0.4824  0.1752
  135OSM     O314628   0.706   0.071   6.776  0.2153  0.8235  0.0122
  135OSM    HO314629   0.692   0.122   6.695 -1.5715  0.5418  0.1141
  135OSM    C4S14630   0.763   0.149   6.981 -0.1137  0.6076  0.7023
  135OSM    H4S14631   0.653   0.155   6.984 -0.1414  1.8672 -2.0267
  135OSM    C5S14632   0.839   0.127   7.086 -0.7202  0.4211  0.1852
  135OSM    H5S14633   0.945   0.100   7.071 -1.1914 -1.8613  0.6665
  135OSM    C6S14634   0.788   0.126   7.225  0.1542  0.2649  0.0531
  135OSM    H6S14635   0.796   0.027   7.274  1.5231  0.4217  0.1704
  135OSM    H6T14636   0.679   0.148   7.224 -0.1312 -1.1018 -0.7308
  135OSM    C7S14637   0.868   0.225   7.310  0.3316 -0.0276  0.4832
  135OSM    H7S14638   0.835   0.327   7.282  1.9189  0.2407 -0.4714
  135OSM    H7T14639   0.977   0.207   7.298  0.0311 -0.8936 -1.1933
  135OSM    C8S14640   0.830   0.210   7.460 -0.2251  0.0262 -0.8639
  135OSM    H8S14641   0.839   0.101   7.481 -0.1908  0.1941  0.0184
  135OSM    H8T14642   0.720   0.227   7.457 -0.0581  1.1675 -0.6389
  135OSM    C9S14643   0.918   0.307   7.542  0.3227  0.3402  0.9227
  135OSM    H9S14644   0.895   0.408   7.503  1.5158  0.2485 -0.0393
  135OSM    H9T14645   1.023   0.274   7.525  0.4976  0.3437  1.9550
  135OSM   C10S14646   0.861   0.313   7.685 -0.0730  0.3537  0.3186
  135OSM   H10S14647   0.883   0.221   7.743 -0.9931 -1.0077 -1.4205
  135OSM   H10T14648   0.753   0.335   7.676 -0.3458  0.3399  3.1041
  135OSM   C11S14649   0.921   0.426   7.767 -0.4362  0.4988  0.2614
  135OSM   H11S14650   0.908   0.526   7.720  0.4775  1.1985  1.4749
  135OSM   H11T14651   1.031   0.417   7.757 -0.1048  1.7731  2.4076
  135OSM   C12S14652   0.862   0.423   7.912  0.3455 -0.1844 -0.6439
  135OSM   H12S14653   0.926   0.368   7.984 -1.6192  0.5315  1.7107
  135OSM   H12T14654   0.760   0.380   7.914 -0.6241  1.9213 -2.4900
  135OSM   C13S14655   0.874   0.565   7.955 -0.0430 -0.1843  0.4260
  135OSM   H13S14656   0.826   0.638   7.885  1.6837 -0.7421 -1.3685
  135OSM   H13T14657   0.980   0.598   7.952 -0.2571  0.4178 -1.3092
  135OSM   C14S14658   0.820   0.588   8.095 -0.1171 -0.1526  0.3437
  135OSM   H14S14659   0.718   0.548   8.109  0.5437 -2.1852 -0.4185
  135OSM   H14T14660   0.802   0.697   8.109  0.1696  0.0776 -1.0394
  135OSM   C15S14661   0.903   0.544   8.210  0.0337  0.2016 -0.0810
  135OSM   H15S14662   1.000   0.598   8.206 -2.3173  4.5845 -1.7767
  135OSM   H15T14663   0.929   0.436   8.211  2.6848  0.8105 -0.6759
  135OSM   C16S14664   0.830   0.577   8.344  0.0807  0.3599 -0.2694
  135OSM   H16S14665   0.775   0.673   8.334 -0.3831 -0.0525 -1.7711
  135OSM   H16T14666   0.898   0.597   8.429 -2.1639  0.1493  1.6387
  135OSM   C17S14667   0.738   0.456   8.375  0.1843 -1.1423  0.6514
  135OSM   H17S14668   0.794   0.376   8.428  1.1613 -0.9233 -0.0397
  135OSM   H17T14669   0.722   0.402   8.279  2.0236 -2.9011  1.3130
  135OSM   C18S14670   0.600   0.499   8.423 -0.2844  0.1192 -0.5275
  135OSM   H18S14671   0.557   0.567   8.347  0.5103  1.9025  0.5676
  135OSM   H18T14672   0.610   0.562   8.514 -0.7392 -0.0096 -0.3888
  135OSM   H18U14673   0.534   0.410   8.414 -1.5372  0.7091  2.1750
  135OSM    C1F14674   0.971   0.480   6.871 -0.1412  0.6540  0.3280
  135OSM     OF14675   0.887   0.557   6.833 -0.0472  0.2916 -0.4178
  135OSM    C2F14676   1.087   0.512   6.951  0.0414  0.6099 -0.6622
  135OSM    H2F14677   1.129   0.602   6.901 -0.8147  2.1152  1.2390
  135OSM    H2G14678   1.162   0.430   6.949 -0.7056 -0.3100  3.8685
  135OSM    C3F14679   1.039   0.518   7.102  0.1012 -0.3226  0.7019
  135OSM    H3F14680   1.017   0.413   7.130  1.4364 -0.1515  2.5026
  135OSM    H3G14681   0.948   0.582   7.115  0.8676  1.0662 -0.5703
  135OSM    C4F14682   1.149   0.562   7.205 -0.1186 -0.3560 -0.0642
  135OSM    H4F14683   1.200   0.652   7.164 -0.6078 -0.0118  0.0719
  135OSM    H4G14684   1.228   0.484   7.202  0.1679 -0.1438  1.4794
  135OSM    C5F14685   1.090   0.577   7.345  0.4642 -0.2747  0.2242
  135OSM    H5F14686   1.074   0.477   7.389  1.5044 -0.2353  0.6977
  135OSM    H5G14687   0.993   0.631   7.337  0.9597  0.6548  0.3605
  135OSM    C6F14688   1.179   0.674   7.430  0.2520  0.9966 -0.3855
  135OSM    H6F14689   1.195   0.765   7.369  2.2156 -0.3926 -2.0488
  135OSM    H6G14690   1.284   0.637   7.439  0.1560  0.5385 -1.0841
  135OSM    C7F14691   1.125   0.681   7.577  0.3908  0.4795 -0.0257
  135OSM    H7F14692   1.114   0.577   7.614  3.3807 -0.1034 -0.6087
  135OSM    H7G14693   1.024   0.727   7.586 -0.2677 -0.9658  0.0944
  135OSM    C8F14694   1.216   0.764   7.685  0.2753  0.2725  0.6990
  135OSM    H8F14695   1.167   0.861   7.709  2.3522  1.7740 -0.9447
  135OSM    H8G14696   1.311   0.787   7.632 -0.6748 -0.4024 -1.3753
  135OSM    C9F14697   1.241   0.684   7.811  0.4929 -0.3444  0.0823
  135OSM    H9F14698   1.259   0.576   7.801 -2.5787 -0.8948 -0.0575
  135OSM   C10F14699   1.243   0.726   7.942 -0.5413  0.0328  0.4205
  135OSM   H10F14700   1.236   0.659   8.029 -1.5751 -2.9639 -1.8783
  135OSM   C11F14701   1.220   0.870   7.983 -0.2562 -0.3117  0.3425
  135OSM   H11F14702   1.171   0.921   7.897 -2.8176 -2.0393  0.7075
  135OSM   H11G14703   1.319   0.919   7.993 -0.5697  0.3093  0.3729
  135OSM   C12F14704   1.153   0.887   8.120 -0.3446  0.0542 -0.9057
  135OSM   H12F14705   1.060   0.827   8.122  0.6174 -1.4832 -1.1847
  135OSM   H12G14706   1.144   0.997   8.133 -2.3278 -0.4006  2.1329
  135OSM   C13F14707   1.239   0.856   8.243  0.2189  0.5661  0.3680
  135OSM   H13F14708   1.325   0.926   8.246  0.0052  0.8477 -0.1516
  135OSM   H13G14709   1.288   0.760   8.214  0.2039  1.1382 -1.5835
  135OSM   C14F14710   1.165   0.862   8.374  0.4639 -0.5865 -0.2652
  135OSM   H14F14711   1.084   0.786   8.370  1.1084 -1.2575 -0.6641
  135OSM   H14G14712   1.118   0.963   8.373 -0.7934 -1.1436  1.0037
  135OSM   C15F14713   1.248   0.836   8.497 -0.3784 -0.0250 -0.7965
  135OSM   H15F14714   1.294   0.934   8.524  1.9481 -0.6086 -2.4529
  135OSM   H15G14715   1.325   0.759   8.478  0.5621  0.3099  1.5337
  135OSM   C16F14716   1.169   0.795   8.624  0.5041 -0.6970  0.1150
  135OSM   H16F14717   1.246   0.796   8.704  1.8325  0.3250 -1.1412
  135OSM   H16G14718   1.138   0.691   8.600 -0.6926 -0.3595  0.1753
  135OSM   C17F14719   1.056   0.895   8.651 -0.0979 -0.1233 -0.0715
  135OSM   H17F14720   0.999   0.860   8.740 -1.3033  0.1189 -0.7451
  135OSM   H17G14721   0.995   0.897   8.559 -1.7331 -0.4798  0.9836
  135OSM   C18F14722   1.115   1.036   8.678  0.1624  0.0282 -0.3603
  135OSM   H18F14723   1.211   1.031   8.734 -0.2546  3.2824  0.7406
  135OSM   H18G14724   1.034   1.084   8.736  0.0662  1.1851 -1.4427
  135OSM   H18H14725   1.138   1.081   8.579  2.0449 -1.3902 -0.6114
  136OSM      N14726   6.022   1.957   6.407  0.0405  0.2238  0.4624
  136OSM    C1514727   6.069   2.096   6.373  0.1059  0.1299 -1.0897
  136OSM   H15A14728   6.023   2.124   6.280  1.5890  0.7356 -1.6458
  136OSM   H15B14729   6.176   2.110   6.363  0.3676 -0.6461  0.3334
  136OSM   H15C14730   6.035   2.167   6.447  0.9706  0.6479 -1.1894
  136OSM    C1414731   6.126   1.914   6.509 -0.4161  0.2190 -0.4149
  136OSM   H14A14732   6.153   1.982   6.588 -0.4678 -1.4697  1.0974
  136OSM   H14B14733   6.215   1.898   6.450 -1.4135  1.3738 -2.2679
  136OSM   H14C14734   6.094   1.821   6.554  2.4326 -0.2163  0.8267
  136OSM    C1314735   5.888   1.973   6.469 -0.0803  0.2083 -0.4490
  136OSM   H13A14736   5.863   1.870   6.488 -1.0950  0.3320 -1.0864
  136OSM   H13B14737   5.807   2.017   6.412  1.6826  2.3436 -1.3554
  136OSM   H13C14738   5.888   2.028   6.562 -2.3279 -0.0113 -0.2869
  136OSM    C1214739   6.027   1.867   6.288  0.5844  0.2278  0.3414
  136OSM   H12A14740   6.120   1.875   6.233 -0.5133 -1.3723 -1.7908
  136OSM   H12B14741   5.949   1.892   6.217  1.2540 -2.3632 -1.3651
  136OSM    C1114742   6.001   1.712   6.320  0.9642 -0.0349 -0.5536
  136OSM   H11A14743   6.072   1.673   6.396  2.4860 -1.4663 -2.6682
  136OSM   H11B14744   6.030   1.656   6.229  0.9119 -0.6239 -0.2126
  136OSM      P14745   5.750   1.694   6.259  0.0609  0.0726 -0.0663
  136OSM    O1314746   5.638   1.760   6.333 -0.4528  0.4200  0.5135
  136OSM    O1414747   5.804   1.763   6.136  0.3199 -0.1437  0.3271
  136OSM    O1114748   5.693   1.553   6.219  0.0887 -0.1799 -0.9573
  136OSM    O1214749   5.867   1.682   6.362  0.3731 -0.5994  0.2615
  136OSM    C1S14750   5.694   1.448   6.318  0.8366 -0.1831 -0.4555
  136OSM    H1S14751   5.769   1.454   6.400  1.4705  1.0893 -1.1252
  136OSM    H1T14752   5.711   1.350   6.267  1.9973  0.5245 -1.4411
  136OSM     NF14753   5.552   1.358   6.505  0.5370 -0.4007 -0.5031
  136OSM    HNF14754   5.475   1.297   6.519  0.1741  0.1318 -0.1706
  136OSM    C2S14755   5.550   1.443   6.385  0.2535  0.2648 -0.5118
  136OSM    H2S14756   5.531   1.545   6.424  1.3684  0.3152 -0.0544
  136OSM    C3S14757   5.435   1.405   6.282 -0.9206 -0.7591  0.7023
  136OSM    H3S14758   5.474   1.310   6.239  1.0388  0.3869 -0.1044
  136OSM     O314759   5.411   1.500   6.178  0.1698 -0.5266  0.1206
  136OSM    HO314760   5.499   1.534   6.162 -0.1969 -0.0363 -0.9108
  136OSM    C4S14761   5.313   1.373   6.357 -0.5417 -0.0223 -0.2931
  136OSM    H4S14762   5.279   1.458   6.419 -1.8337 -0.4959 -0.3564
  136OSM    C5S14763   5.247   1.255   6.362 -0.0804  0.2092  0.6504
  136OSM    H5S14764   5.277   1.157   6.323 -1.2520 -0.2985  1.0081
  136OSM    C6S14765   5.117   1.230   6.435  0.7868  0.0134  0.2117
  136OSM    H6S14766   5.113   1.135   6.492 -0.2722 -1.1535 -1.7332
  136OSM    H6T14767   5.038   1.225   6.357 -0.8300  0.5732  1.7786
  136OSM    C7S14768   5.069   1.338   6.532  0.4432 -0.1451  0.7425
  136OSM    H7S14769   4.961   1.324   6.555  0.7420 -1.2460  1.4668
  136OSM    H7T14770   5.064   1.441   6.490  0.3626 -1.2973 -2.1976
  136OSM    C8S14771   5.143   1.355   6.663 -1.2978 -0.6023  0.0769
  136OSM    H8S14772   5.252   1.370   6.651 -1.4643  0.7944  0.1473
  136OSM    H8T14773   5.136   1.257   6.714 -0.8751 -0.0243  1.2614
  136OSM    C9S14774   5.081   1.453   6.762 -0.1468  0.1468  0.5575
  136OSM    H9S14775   4.974   1.426   6.751  0.3659 -2.5202  1.7313
  136OSM    H9T14776   5.094   1.555   6.718  0.6017 -0.2283 -0.0907
  136OSM   C10S14777   5.133   1.459   6.904  0.1061 -0.1249  0.4518
  136OSM   H10S14778   5.243   1.470   6.901  0.0582 -0.0330 -1.6315
  136OSM   H10T14779   5.108   1.365   6.958 -0.2921  0.3215  1.0572
  136OSM   C11S14780   5.064   1.574   6.993 -0.4273  1.0632  0.6453
  136OSM   H11S14781   4.959   1.571   6.957 -0.7081 -3.0645  1.5139
  136OSM   H11T14782   5.103   1.675   6.967  2.8635 -0.2764  0.0965
  136OSM   C12S14783   5.076   1.566   7.150  0.7538 -0.0198  0.7157
  136OSM   H12S14784   5.185   1.561   7.169  1.1840  0.4864 -1.4829
  136OSM   H12T14785   5.028   1.471   7.180 -2.6456  0.6441 -2.1908
  136OSM   C13S14786   5.011   1.690   7.215 -0.4920 -0.4295 -1.1238
  136OSM   H13S14787   4.900   1.689   7.215 -0.5391 -3.7493  1.4479
  136OSM   H13T14788   5.047   1.777   7.155  0.3021 -0.0954 -0.1708
  136OSM   C14S14789   5.055   1.697   7.362 -0.3376 -0.1045  0.0824
  136OSM   H14S14790   5.010   1.790   7.405  0.3458  0.0205  0.5359
  136OSM   H14T14791   5.166   1.693   7.362 -0.2856  0.6077 -1.8562
  136OSM   C15S14792   4.991   1.593   7.454  0.5982  0.6087  0.3025
  136OSM   H15S14793   5.027   1.492   7.427 -1.6252 -0.2949  0.5607
  136OSM   H15T14794   4.881   1.588   7.434  1.0831 -3.0001 -2.0278
  136OSM   C16S14795   5.031   1.617   7.603  0.2623 -0.6531 -0.1686
  136OSM   H16S14796   5.041   1.724   7.632 -1.3783 -0.4908 -0.1556
  136OSM   H16T14797   5.131   1.570   7.614  1.3693  1.7929  0.5444
  136OSM   C17S14798   4.937   1.540   7.688 -0.1181 -0.3753 -0.0785
  136OSM   H17S14799   4.919   1.435   7.655  0.3965 -0.1980 -0.9435
  136OSM   H17T14800   4.834   1.582   7.678 -0.2889 -1.1788 -1.9915
  136OSM   C18S14801   4.966   1.541   7.840 -0.2687 -0.1324 -0.8494
  136OSM   H18S14802   4.996   1.645   7.864  2.5150 -0.9875 -0.5401
  136OSM   H18T14803   5.051   1.475   7.866 -0.4217  0.1973  0.5490
  136OSM   H18U14804   4.876   1.501   7.893 -0.3776  0.0248 -0.9157
  136OSM    C1F14805   5.627   1.379   6.614 -0.6836 -0.5105 -0.1321
  136OSM     OF14806   5.682   1.490   6.635  0.0045  0.4782  0.0607
  136OSM    C2F14807   5.639   1.269   6.714 -0.2488 -0.7611  0.6848
  136OSM    H2F14808   5.717   1.307   6.783  0.5488 -0.2412 -0.4939
  136OSM    H2G14809   5.672   1.173   6.668  1.7953  0.2078  0.0661
  136OSM    C3F14810   5.507   1.227   6.796 -0.0376 -0.0663 -0.0372
  136OSM    H3F14811   5.441   1.182   6.719 -0.0100  0.2283 -0.2330
  136OSM    H3G14812   5.460   1.317   6.839  0.1382  0.6829 -1.3913
  136OSM    C4F14813   5.532   1.116   6.897  0.4544 -0.5175  0.6072
  136OSM    H4F14814   5.607   1.135   6.976  2.9825 -4.2235 -0.7690
  136OSM    H4G14815   5.559   1.022   6.843 -0.5982  0.2573 -1.3135
  136OSM    C5F14816   5.404   1.077   6.975 -0.1879  0.7482  0.1759
  136OSM    H5F14817   5.310   1.087   6.918 -0.4684 -0.8028  0.3261
  136OSM    H5G14818   5.392   1.153   7.055 -0.4946  0.7161  0.1611
  136OSM    C6F14819   5.398   0.931   7.021 -0.1038 -0.5568  0.3623
  136OSM    H6F14820   5.438   0.868   6.938  1.3993  1.0147 -0.1298
  136OSM    H6G14821   5.296   0.888   7.032 -0.0297 -0.8606 -0.0984
  136OSM    C7F14822   5.484   0.902   7.141  0.6684  0.2362 -0.3529
  136OSM    H7F14823   5.585   0.935   7.108  0.0904  0.1735 -2.2811
  136OSM    H7G14824   5.488   0.792   7.157 -0.6095  0.6481  3.2064
  136OSM    C8F14825   5.422   0.960   7.267  0.1136  0.2078  0.3536
  136OSM    H8F14826   5.320   0.918   7.276  0.1362  0.3769  1.3998
  136OSM    H8G14827   5.406   1.070   7.265 -1.5207 -0.0156  0.3129
  136OSM    C9F14828   5.497   0.915   7.387 -0.4101  0.4551 -0.6987
  136OSM    H9F14829   5.440   0.844   7.448 -0.7424  1.2145 -0.1268
  136OSM   C10F14830   5.624   0.948   7.417  0.0102 -0.2967  0.4864
  136OSM   H10F14831   5.664   0.899   7.506  2.5910  1.7164  0.4966
  136OSM   C11F14832   5.702   1.057   7.348  0.1749 -0.1071 -0.6258
  136OSM   H11F14833   5.651   1.097   7.257 -0.0049 -0.2949 -0.6082
  136OSM   H11G14834   5.800   1.018   7.312  0.5113  0.8147 -0.7082
  136OSM   C12F14835   5.717   1.186   7.432 -0.2506 -0.4347  0.0285
  136OSM   H12F14836   5.795   1.157   7.506  0.2596 -0.6264 -0.5789
  136OSM   H12G14837   5.627   1.218   7.488 -0.2748  1.9670 -1.3227
  136OSM   C13F14838   5.785   1.310   7.365  0.2633 -0.2657  0.3576
  136OSM   H13F14839   5.878   1.273   7.316  1.3423  0.9427  1.4409
  136OSM   H13G14840   5.815   1.379   7.447 -1.1558  0.5579  0.1845
  136OSM   C14F14841   5.696   1.384   7.267  0.2935 -0.3767 -0.3827
  136OSM   H14F14842   5.663   1.315   7.188  1.7504 -1.2830 -0.2286
  136OSM   H14G14843   5.750   1.472   7.225  0.6040  0.2473  1.2651
  136OSM   C15F14844   5.569   1.448   7.330  0.0795  0.8504 -0.3902
  136OSM   H15F14845   5.608   1.530   7.394  1.3207 -0.1049  0.0992
  136OSM   H15G14846   5.515   1.368   7.385  0.3646 -0.2154 -1.6413
  136OSM   C16F14847   5.470   1.496   7.218 -0.0890 -0.4762  0.5517
  136OSM   H16F14848   5.375   1.530   7.265  0.1656 -0.6343  1.1933
  136OSM   H16G14849   5.437   1.415   7.150  2.5595  1.2804 -3.0001
  136OSM   C17F14850   5.538   1.614   7.141  0.1211  0.4408 -0.3270
  136OSM   H17F14851   5.624   1.573   7.085 -0.1746  0.0952 -0.5299
  136OSM   H17G14852   5.573   1.690   7.214 -0.8147  2.3449 -1.8045
  136OSM   C18F14853   5.460   1.677   7.025 -0.0089  0.3026  0.3284
  136OSM   H18F14854   5.366   1.728   7.053 -1.4586 -0.2565 -3.3794
  136OSM   H18G14855   5.459   1.615   6.933  2.2922 -0.7147  0.9442
  136OSM   H18H14856   5.524   1.766   7.004 -1.0322  1.0371  0.2918
  137OSM      N14857   2.382   6.271   6.027  0.1032 -0.2898 -0.6847
  137OSM    C1514858   2.334   6.222   5.889 -0.1477 -0.0581  0.1913
  137OSM   H15A14859   2.308   6.117   5.887 -0.6773  0.1094 -2.4836
  137OSM   H15B14860   2.416   6.231   5.819  1.4504 -0.5191  1.9590
  137OSM   H15C14861   2.254   6.287   5.857  1.2513  2.1017  0.9657
  137OSM    C1414862   2.516   6.204   6.051  0.4276 -0.3327  0.1743
  137OSM   H14A14863   2.586   6.257   5.988  0.0580 -1.1052 -0.8976
  137OSM   H14B14864   2.516   6.099   6.025  0.1493 -0.4939  0.8095
  137OSM   H14C14865   2.549   6.222   6.152 -2.0788 -1.1156  1.1817
  137OSM    C1314866   2.392   6.422   6.014 -0.4162 -0.3135  0.0677
  137OSM   H13A14867   2.463   6.449   5.937 -2.2420  0.3607 -1.4133
  137OSM   H13B14868   2.416   6.460   6.113 -0.6301 -1.2849  0.4961
  137OSM   H13C14869   2.300   6.470   5.983 -1.7096 -3.0213 -0.4008
  137OSM    C1214870   2.276   6.241   6.135 -0.2018 -0.0908 -0.0197
  137OSM   H12A14871   2.250   6.138   6.154 -0.0751  0.1194  1.3828
  137OSM   H12B14872   2.184   6.285   6.102  0.4485  0.3899 -1.2137
  137OSM    C1114873   2.316   6.281   6.272  0.5582  0.3126  0.2064
  137OSM   H11A14874   2.229   6.276   6.341 -0.2595  0.5450 -0.7965
  137OSM   H11B14875   2.341   6.389   6.267 -0.6568  0.6742  1.6878
  137OSM      P14876   2.402   6.089   6.427 -0.0310  0.1338  0.1690
  137OSM    O1314877   2.323   5.988   6.345  0.1422  0.3791 -0.0017
  137OSM    O1414878   2.539   6.047   6.467  0.3085 -0.0625  0.1111
  137OSM    O1114879   2.317   6.152   6.549  0.0013 -0.4362  0.2229
  137OSM    O1214880   2.425   6.207   6.329 -0.0908  0.2313 -0.2181
  137OSM    C1S14881   2.374   6.259   6.627  0.3830 -0.0300  0.4722
  137OSM    H1S14882   2.342   6.357   6.586  0.2173 -1.3559 -2.7314
  137OSM    H1T14883   2.485   6.255   6.629  0.4851  1.9424 -0.3196
  137OSM     NF14884   2.395   6.358   6.850 -0.1541  0.2176 -0.3806
  137OSM    HNF14885   2.474   6.334   6.907 -0.7232  1.4542  0.9823
  137OSM    C2S14886   2.324   6.250   6.775  0.3673  0.1281 -0.0659
  137OSM    H2S14887   2.216   6.275   6.769  0.4116  0.7893  1.6655
  137OSM    C3S14888   2.327   6.107   6.835  0.0424 -0.0718 -0.3462
  137OSM    H3S14889   2.434   6.075   6.839  0.3798  0.8370 -1.5572
  137OSM     O314890   2.265   6.009   6.759  0.3090  0.4666 -0.0419
  137OSM    HO314891   2.226   6.054   6.683  1.4202 -1.3902 -1.7439
  137OSM    C4S14892   2.260   6.102   6.970 -0.0606  0.0556 -0.0719
  137OSM    H4S14893   2.150   6.105   6.969 -0.2160 -0.9427  4.2658
  137OSM    C5S14894   2.307   6.094   7.092 -0.0044  0.0162  0.4354
  137OSM    H5S14895   2.415   6.083   7.114 -0.3075 -2.1096  0.9989
  137OSM    C6S14896   2.230   6.084   7.222  0.7659 -0.3255 -0.4009
  137OSM    H6S14897   2.277   6.000   7.278 -0.5920 -0.3741  0.6917
  137OSM    H6T14898   2.122   6.063   7.204  0.1987  0.8990  1.3986
  137OSM    C7S14899   2.238   6.222   7.293  0.1431  0.9152  0.1626
  137OSM    H7S14900   2.171   6.201   7.379 -1.2546 -2.1551 -1.5837
  137OSM    H7T14901   2.191   6.303   7.233 -4.3913 -2.2878 -0.9750
  137OSM    C8S14902   2.377   6.263   7.331 -0.3311  0.3148  0.5500
  137OSM    H8S14903   2.422   6.326   7.251 -1.3332 -0.2939 -0.5187
  137OSM    H8T14904   2.435   6.168   7.338 -2.5163 -1.1072 -0.2253
  137OSM    C9S14905   2.385   6.330   7.467  0.2125 -0.8750  0.2073
  137OSM    H9S14906   2.294   6.394   7.472  0.2670 -0.8116  0.3828
  137OSM    H9T14907   2.472   6.398   7.468 -0.1736 -0.3578 -0.8647
  137OSM   C10S14908   2.390   6.222   7.572 -0.2828  0.6943 -0.0150
  137OSM   H10S14909   2.478   6.158   7.552 -0.6017  0.2970 -0.1350
  137OSM   H10T14910   2.301   6.156   7.573 -0.7602  1.3329  1.3136
  137OSM   C11S14911   2.403   6.289   7.704  0.1425 -0.3443 -0.5805
  137OSM   H11S14912   2.334   6.377   7.704 -0.9167 -1.1454 -2.7906
  137OSM   H11T14913   2.503   6.336   7.717 -1.2665  3.1127 -1.6737
  137OSM   C12S14914   2.385   6.197   7.829  0.4895  0.1922 -0.7348
  137OSM   H12S14915   2.474   6.131   7.821  1.0916  1.0543 -1.2245
  137OSM   H12T14916   2.294   6.139   7.804  1.2657 -0.8987 -1.0674
  137OSM   C13S14917   2.388   6.265   7.963 -0.2753  0.3023  0.1248
  137OSM   H13S14918   2.295   6.326   7.969 -2.5811 -2.6013 -3.7291
  137OSM   H13T14919   2.470   6.339   7.968  1.0584 -1.1433  0.0249
  137OSM   C14S14920   2.398   6.161   8.078  0.0985 -0.1320  0.4158
  137OSM   H14S14921   2.474   6.082   8.060 -1.9486 -2.3763  1.3032
  137OSM   H14T14922   2.302   6.105   8.076  2.0195 -3.5777 -0.1123
  137OSM   C15S14923   2.417   6.212   8.225 -0.8047  0.3175  0.4353
  137OSM   H15S14924   2.338   6.285   8.253 -0.3990  0.9114  0.0553
  137OSM   H15T14925   2.515   6.265   8.230 -0.1934 -0.6858 -0.6061
  137OSM   C16S14926   2.411   6.104   8.332  0.2191  0.2590 -0.1871
  137OSM   H16S14927   2.506   6.046   8.325  0.4424  0.4108  1.5101
  137OSM   H16T14928   2.336   6.033   8.292 -0.7950  2.0874 -1.6215
  137OSM   C17S14929   2.388   6.143   8.471  0.2862  1.0168 -0.0482
  137OSM   H17S14930   2.296   6.205   8.470  0.1608  0.8539  0.8389
  137OSM   H17T14931   2.468   6.210   8.509 -0.1472  1.4354  0.1295
  137OSM   C18S14932   2.370   6.026   8.566  0.4444  0.4697  1.1506
  137OSM   H18S14933   2.333   6.068   8.662  1.4030 -1.4596  2.4094
  137OSM   H18T14934   2.462   5.965   8.580 -2.2661 -4.4310 -1.1066
  137OSM   H18U14935   2.294   5.954   8.528  1.4568  0.9759 -2.0005
  137OSM    C1F14936   2.359   6.486   6.835  0.4959  0.2453  0.7483
  137OSM     OF14937   2.257   6.516   6.769 -0.3720 -0.0729  0.1549
  137OSM    C2F14938   2.452   6.596   6.887  0.9583 -0.2729 -0.1349
  137OSM    H2F14939   2.493   6.657   6.804  1.6237  1.2452  1.2777
  137OSM    H2G14940   2.538   6.539   6.928  0.8192  0.6418  1.4661
  137OSM    C3F14941   2.396   6.687   7.000  0.0798 -0.2587 -0.2845
  137OSM    H3F14942   2.319   6.759   6.962  1.0121  1.1367  0.4329
  137OSM    H3G14943   2.471   6.746   7.057 -1.4763  1.6684 -0.1429
  137OSM    C4F14944   2.308   6.616   7.106 -0.3960  0.3861 -0.7279
  137OSM    H4F14945   2.356   6.522   7.140  0.6798  1.3596  0.5248
  137OSM    H4G14946   2.221   6.593   7.040  1.1601  2.0207 -3.4761
  137OSM    C5F14947   2.288   6.722   7.221 -0.2361  0.4914  0.8402
  137OSM    H5F14948   2.178   6.732   7.235 -0.6798 -1.2911 -1.0721
  137OSM    H5G14949   2.331   6.813   7.174 -1.2677  0.0437 -1.0499
  137OSM    C6F14950   2.353   6.691   7.353 -0.3817  0.0940 -0.2971
  137OSM    H6F14951   2.450   6.638   7.337 -0.9921 -1.1606  0.1232
  137OSM    H6G14952   2.280   6.612   7.378 -0.2403 -0.7902 -2.5389
  137OSM    C7F14953   2.331   6.809   7.455  0.0277 -0.4606 -0.0446
  137OSM    H7F14954   2.227   6.847   7.444 -0.9114 -2.6032  1.2086
  137OSM    H7G14955   2.401   6.890   7.426  1.9339 -1.4572  1.6449
  137OSM    C8F14956   2.375   6.767   7.601  0.1256  0.1778  0.5046
  137OSM    H8F14957   2.370   6.853   7.671  0.5747 -0.8649  1.8234
  137OSM    H8G14958   2.480   6.731   7.595 -0.3218 -0.7437 -2.7109
  137OSM    C9F14959   2.290   6.658   7.659 -0.0338  0.1925 -0.1803
  137OSM    H9F14960   2.248   6.591   7.583 -1.2415 -0.8711  1.4085
  137OSM   C10F14961   2.241   6.652   7.784 -0.2505 -0.4650  0.1659
  137OSM   H10F14962   2.189   6.563   7.822  0.0354 -0.5767  0.2896
  137OSM   C11F14963   2.259   6.752   7.892 -0.7521  0.6908  0.5422
  137OSM   H11F14964   2.163   6.802   7.916 -1.6827 -0.3180 -1.0726
  137OSM   H11G14965   2.337   6.830   7.875  0.3991 -0.8638 -1.4419
  137OSM   C12F14966   2.296   6.684   8.028 -0.1025  0.4583 -0.1757
  137OSM   H12F14967   2.398   6.646   8.049 -0.6541 -0.0550  1.6151
  137OSM   H12G14968   2.223   6.603   8.052  0.0741  0.0874 -0.8746
  137OSM   C13F14969   2.283   6.791   8.141 -0.7872 -0.3985 -0.0603
  137OSM   H13F14970   2.181   6.834   8.143 -0.8901 -0.7084  1.8316
  137OSM   H13G14971   2.353   6.869   8.102 -1.0187 -0.1186  0.0823
  137OSM   C14F14972   2.319   6.740   8.285  0.2177 -0.4800  0.2673
  137OSM   H14F14973   2.252   6.656   8.315 -1.7823  1.6085  1.7816
  137OSM   H14G14974   2.289   6.827   8.346 -0.7650  0.5161 -1.5806
  137OSM   C15F14975   2.467   6.700   8.300 -0.1121  1.1323 -0.0999
  137OSM   H15F14976   2.525   6.777   8.245  0.9740  0.2823 -0.1706
  137OSM   H15G14977   2.481   6.597   8.260  0.3273  1.2014 -0.1210
  137OSM   C16F14978   2.510   6.696   8.447 -0.5866 -0.9256 -0.8481
  137OSM   H16F14979   2.451   6.616   8.497  0.1396 -1.2378 -0.4966
  137OSM   H16G14980   2.487   6.793   8.497 -0.0991 -1.3385  0.1843
  137OSM   C17F14981   2.654   6.652   8.477 -0.3194  0.1775  0.8698
  137OSM   H17F14982   2.669   6.654   8.587  0.1543 -3.3010  0.9115
  137OSM   H17G14983   2.726   6.716   8.420 -0.6983 -0.4400 -0.3048
  137OSM   C18F14984   2.678   6.505   8.421  0.3488 -0.2296 -0.2080
  137OSM   H18F14985   2.666   6.494   8.311 -2.4483  1.2563 -0.0817
  137OSM   H18G14986   2.609   6.434   8.472  2.1585 -0.0432  2.6473
  137OSM   H18H14987   2.786   6.478   8.430  0.7353  0.7035 -1.7656
  138OSM      N14988   2.364   2.006   5.678  0.1439  0.5082  0.1574
  138OSM    C1514989   2.241   2.028   5.593  0.1427  0.5966 -0.0944
  138OSM   H15A14990   2.153   1.996   5.647 -0.0840 -0.9417 -1.3307
  138OSM   H15B14991   2.238   1.966   5.504  0.3541  1.7862 -0.9385
  138OSM   H15C14992   2.232   2.131   5.563  0.9038  2.0157  4.2468
  138OSM    C1414993   2.384   1.861   5.683 -0.1117  0.3194 -0.2128
  138OSM   H14A14994   2.365   1.816   5.587 -0.5688 -0.5126  0.2651
  138OSM   H14B14995   2.321   1.818   5.759  0.3014  1.6904  0.9225
  138OSM   H14C14996   2.481   1.832   5.720 -0.1452  1.4395  0.7872
  138OSM    C1314997   2.478   2.075   5.607  0.7620 -0.3136 -0.3572
  138OSM   H13A14998   2.454   2.176   5.579 -0.0845 -0.5655 -0.5660
  138OSM   H13B14999   2.496   2.024   5.514 -0.3607  0.0083 -0.7539
  138OSM   H13C15000   2.567   2.071   5.668 -1.5690 -2.1849  3.1453
  138OSM    C1215001   2.346   2.061   5.819 -0.0653 -0.1561  0.6314
  138OSM   H12A15002   2.263   2.005   5.858  0.4037 -0.6466  0.9373
  138OSM   H12B15003   2.317   2.165   5.813  2.4048  0.6223  1.4286
  138OSM    C1115004   2.462   2.048   5.920 -0.1895 -0.1511  0.3118
  138OSM   H11A15005   2.457   2.118   6.007 -0.0033 -1.1446  1.1297
  138OSM   H11B15006   2.550   2.088   5.865  0.6208 -0.3856  1.4038
  138OSM      P15007   2.395   1.841   6.064  0.2083 -0.5564  0.1477
  138OSM    O1315008   2.256   1.857   6.010 -0.4021  0.2152 -0.2993
  138OSM    O1415009   2.447   1.705   6.075  0.3183  0.6416 -0.0147
  138OSM    O1115010   2.422   1.917   6.196 -0.3619 -0.7023 -0.4847
  138OSM    O1215011   2.492   1.914   5.963  0.0446  0.4778  0.3063
  138OSM    C1S15012   2.390   1.864   6.326  0.0879  0.2225 -0.1767
  138OSM    H1S15013   2.487   1.833   6.370 -0.6007  0.7711  1.7833
  138OSM    H1T15014   2.305   1.793   6.334 -2.0831  2.8549  1.0230
  138OSM     NF15015   2.279   1.909   6.547  0.0613  0.7196  0.6005
  138OSM    HNF15016   2.181   1.894   6.553  0.1965 -0.0209  1.0592
  138OSM    C2S15017   2.336   1.971   6.429 -0.3257  0.0010 -0.6705
  138OSM    H2S15018   2.426   2.024   6.466 -0.2332 -0.4370 -0.2633
  138OSM    C3S15019   2.243   2.077   6.368 -0.0836 -0.1378  0.0705
  138OSM    H3S15020   2.154   2.018   6.337  1.0757 -2.1675  0.4644
  138OSM     O315021   2.282   2.134   6.246 -0.2863 -0.1503  0.1600
  138OSM    HO315022   2.350   2.071   6.221  0.1655 -0.2642  1.6587
  138OSM    C4S15023   2.202   2.183   6.474  0.2483 -0.4986 -0.0464
  138OSM    H4S15024   2.102   2.168   6.516 -0.2684  1.8143 -0.3365
  138OSM    C5S15025   2.271   2.291   6.514 -0.5351 -0.0098 -0.1059
  138OSM    H5S15026   2.373   2.315   6.481 -0.1676 -0.4459  0.6827
  138OSM    C6S15027   2.226   2.369   6.637  0.8375 -1.2159 -0.0013
  138OSM    H6S15028   2.118   2.368   6.661  0.2021  1.0658 -2.4381
  138OSM    H6T15029   2.254   2.477   6.633  0.8576 -1.0559  3.1474
  138OSM    C7S15030   2.308   2.311   6.761  0.1670 -0.3115  0.5452
  138OSM    H7S15031   2.417   2.325   6.742  0.1748 -0.4559  0.4805
  138OSM    H7T15032   2.274   2.207   6.777 -0.9461 -0.1901 -0.9084
  138OSM    C8S15033   2.279   2.393   6.885  1.1840 -0.1526  0.6292
  138OSM    H8S15034   2.176   2.368   6.919 -0.0133  1.3859 -1.7224
  138OSM    H8T15035   2.279   2.501   6.858  0.1311 -0.4487 -0.6464
  138OSM    C9S15036   2.367   2.363   7.003  0.2377  0.2868  0.4167
  138OSM    H9S15037   2.464   2.414   6.990  1.6558 -2.2557  0.7503
  138OSM    H9T15038   2.383   2.253   7.010 -0.0290 -0.1990 -5.0036
  138OSM   C10S15039   2.308   2.407   7.140 -0.3832  0.1371 -0.3679
  138OSM   H10S15040   2.213   2.352   7.160  0.5634 -0.7894  1.7213
  138OSM   H10T15041   2.278   2.513   7.125 -0.0015 -0.0994 -3.2302
  138OSM   C11S15042   2.405   2.398   7.255  0.0447 -0.1015 -0.7836
  138OSM   H11S15043   2.493   2.458   7.223  0.4707 -0.0947  0.3653
  138OSM   H11T15044   2.432   2.290   7.265  0.8586 -0.0093 -1.8613
  138OSM   C12S15045   2.344   2.447   7.386 -0.1588 -0.0559  0.6900
  138OSM   H12S15046   2.242   2.403   7.393 -0.9362  1.7336  0.7958
  138OSM   H12T15047   2.337   2.557   7.372  3.6411  0.1454 -0.1424
  138OSM   C13S15048   2.424   2.428   7.514  0.0669 -0.5182  0.2054
  138OSM   H13S15049   2.526   2.470   7.520 -1.0793  2.4070  0.0343
  138OSM   H13T15050   2.442   2.321   7.538 -1.0406 -0.9643 -0.8374
  138OSM   C14S15051   2.357   2.484   7.648  0.1522  0.1029  0.8704
  138OSM   H14S15052   2.249   2.463   7.635  1.0075 -3.7212 -0.8042
  138OSM   H14T15053   2.365   2.595   7.642  1.9308 -0.0597 -0.1745
  138OSM   C15S15054   2.437   2.449   7.768  0.0924  0.1451 -0.4123
  138OSM   H15S15055   2.539   2.492   7.755  0.1887  0.7258  2.0308
  138OSM   H15T15056   2.439   2.338   7.774 -0.7619  0.1169 -0.6017
  138OSM   C16S15057   2.374   2.522   7.895  0.9133 -1.2087 -0.5294
  138OSM   H16S15058   2.265   2.502   7.889  0.8503 -0.8028 -0.6918
  138OSM   H16T15059   2.395   2.630   7.881 -2.3673 -0.7703 -2.4027
  138OSM   C17S15060   2.440   2.483   8.030  0.5085 -0.0775  0.6183
  138OSM   H17S15061   2.388   2.532   8.115 -2.3066 -1.1060 -0.4520
  138OSM   H17T15062   2.547   2.513   8.024  0.0462  1.2831 -1.2809
  138OSM   C18S15063   2.421   2.341   8.067  0.0716 -0.2043 -0.4594
  138OSM   H18S15064   2.449   2.276   7.982  1.0070 -0.2754 -0.1046
  138OSM   H18T15065   2.312   2.338   8.091  0.0345  0.3193 -0.5470
  138OSM   H18U15066   2.468   2.312   8.164  3.5628 -1.7428 -2.5292
  138OSM    C1F15067   2.360   1.851   6.639  0.3950  0.0099  0.1618
  138OSM     OF15068   2.481   1.847   6.618 -0.0083  0.6540 -0.1401
  138OSM    C2F15069   2.298   1.800   6.771  0.0274 -0.3746  0.7895
  138OSM    H2F15070   2.191   1.774   6.758 -0.7393  2.2996  1.3737
  138OSM    H2G15071   2.309   1.878   6.850  2.2397 -1.0564  1.1848
  138OSM    C3F15072   2.370   1.669   6.826  0.3930 -0.3028  0.0224
  138OSM    H3F15073   2.480   1.667   6.843 -0.0396 -2.3400  2.8970
  138OSM    H3G15074   2.357   1.577   6.765 -2.0150  0.3164 -0.4526
  138OSM    C4F15075   2.311   1.631   6.959  0.6838 -0.4359  0.3803
  138OSM    H4F15076   2.201   1.648   6.957  0.9889  1.6475  0.3480
  138OSM    H4G15077   2.344   1.699   7.041 -1.6520  0.0373  0.9526
  138OSM    C5F15078   2.332   1.492   7.004 -0.6156 -0.0756  0.6254
  138OSM    H5F15079   2.428   1.477   7.058  0.2825  0.1890 -0.8932
  138OSM    H5G15080   2.336   1.420   6.920 -0.1247  3.7172 -2.7262
  138OSM    C6F15081   2.225   1.442   7.102 -0.0560  0.3313  0.1991
  138OSM    H6F15082   2.241   1.333   7.115 -1.4194  0.0904 -0.1425
  138OSM    H6G15083   2.122   1.462   7.065  0.7444 -0.4431 -2.5697
  138OSM    C7F15084   2.212   1.510   7.237 -0.7712 -0.1452 -0.3610
  138OSM    H7F15085   2.121   1.471   7.288  0.1517 -2.3200 -0.2961
  138OSM    H7G15086   2.183   1.616   7.225  1.7934  0.9523  2.4712
  138OSM    C8F15087   2.329   1.488   7.323 -0.1929  0.1987 -0.0231
  138OSM    H8F15088   2.416   1.538   7.276  0.1682 -0.1193  0.3067
  138OSM    H8G15089   2.369   1.385   7.329  1.0424  0.6419 -0.6593
  138OSM    C9F15090   2.307   1.553   7.459 -0.1983 -0.9148  0.0599
  138OSM    H9F15091   2.273   1.653   7.432  2.0899  0.1903  1.1302
  138OSM   C10F15092   2.321   1.506   7.583 -0.1232 -0.0535 -0.3792
  138OSM   H10F15093   2.306   1.566   7.674  0.3515  0.0325 -0.3548
  138OSM   C11F15094   2.374   1.370   7.614 -0.2179 -0.2941 -0.1356
  138OSM   H11F15095   2.384   1.306   7.524  3.3610  0.4128 -0.3305
  138OSM   H11G15096   2.303   1.326   7.687 -1.0070 -0.1296 -0.8029
  138OSM   C12F15097   2.517   1.382   7.676 -0.3903 -0.1992  0.1278
  138OSM   H12F15098   2.573   1.450   7.607  0.4410  3.6608  4.3333
  138OSM   H12G15099   2.570   1.285   7.667 -1.3224 -0.5942 -1.4372
  138OSM   C13F15100   2.532   1.428   7.817  0.0725  0.5260 -0.8562
  138OSM   H13F15101   2.505   1.357   7.898  2.1339  1.8248  1.0350
  138OSM   H13G15102   2.483   1.525   7.840  0.2461  0.2343  0.7805
  138OSM   C14F15103   2.686   1.451   7.842 -0.0584  0.6836 -0.6088
  138OSM   H14F15104   2.718   1.534   7.774 -0.3008  1.7059  0.5163
  138OSM   H14G15105   2.741   1.356   7.822  2.0959  2.0454 -1.3686
  138OSM   C15F15106   2.717   1.501   7.983 -0.0699  0.1026 -0.2652
  138OSM   H15F15107   2.668   1.439   8.060  0.6784  1.2365  1.1546
  138OSM   H15G15108   2.664   1.599   7.987 -0.8565 -0.2976 -0.7025
  138OSM   C16F15109   2.864   1.525   8.014 -0.6305 -0.0136  0.5934
  138OSM   H16F15110   2.905   1.579   7.925  1.2968 -2.0835  0.1744
  138OSM   H16G15111   2.917   1.428   8.018 -0.4236 -0.0555 -2.1697
  138OSM   C17F15112   2.888   1.610   8.135 -0.5470 -0.0358 -0.1299
  138OSM   H17F15113   2.999   1.612   8.144 -0.5922  2.5148  0.0628
  138OSM   H17G15114   2.852   1.577   8.234 -1.8580  1.5132 -0.0718
  138OSM   C18F15115   2.840   1.753   8.124  0.1015  0.9440  0.0333
  138OSM   H18F15116   2.866   1.806   8.029  1.4461  0.6006  0.1914
  138OSM   H18G15117   2.878   1.802   8.216  3.5841 -0.4676 -0.5381
  138OSM   H18H15118   2.729   1.757   8.128 -0.1198 -2.6797 -1.3094
  139OSM      N15119   1.474   2.820   6.020  0.0666  0.3176  0.4045
  139OSM    C1515120   1.412   2.845   5.886 -0.0045 -1.2235  0.8140
  139OSM   H15A15121   1.313   2.888   5.899  0.6219  0.9062 -1.0913
  139OSM   H15B15122   1.397   2.754   5.830  1.4652 -1.9672  1.6265
  139OSM   H15C15123   1.467   2.921   5.833 -0.5793  0.1340  2.1373
  139OSM    C1415124   1.610   2.768   5.990 -0.0929 -0.3845 -0.4174
  139OSM   H14A15125   1.605   2.666   5.956 -0.2421 -0.3526 -0.4959
  139OSM   H14B15126   1.655   2.783   6.087 -0.7687  1.1688 -0.3217
  139OSM   H14C15127   1.659   2.824   5.911 -0.0745 -1.9035 -1.4956
  139OSM    C1315128   1.479   2.950   6.102  0.3194  0.4738 -0.3368
  139OSM   H13A15129   1.542   3.019   6.048 -0.1142  0.5480 -0.7555
  139OSM   H13B15130   1.503   2.924   6.204  1.3589 -0.3741 -0.7791
  139OSM   H13C15131   1.378   2.987   6.106  0.5845  1.1786 -0.0445
  139OSM    C1215132   1.397   2.714   6.103 -0.6829  0.9367  0.0518
  139OSM   H12A15133   1.301   2.753   6.133 -0.9557 -1.9081  3.2026
  139OSM   H12B15134   1.449   2.697   6.196 -2.3577 -0.1858  0.7939
  139OSM    C1115135   1.378   2.569   6.038  0.5850 -0.4967 -0.0246
  139OSM   H11A15136   1.326   2.590   5.942  0.4623  0.5105  0.2634
  139OSM   H11B15137   1.308   2.501   6.091 -1.3561  1.7319  0.3227
  139OSM      P15138   1.550   2.366   6.057  0.2626  0.3280 -0.2067
  139OSM    O1315139   1.503   2.267   5.958 -0.2828 -0.0594  0.5595
  139OSM    O1415140   1.699   2.367   6.085  0.2742  0.0031  0.7588
  139OSM    O1115141   1.485   2.344   6.198  0.1615 -0.2590 -0.4986
  139OSM    O1215142   1.507   2.508   6.015  0.6579 -0.5922 -0.4724
  139OSM    C1S15143   1.522   2.419   6.313  0.1069  0.6901 -0.2263
  139OSM    H1S15144   1.540   2.524   6.283 -0.0796  0.7281 -0.2083
  139OSM    H1T15145   1.610   2.367   6.357 -1.3395 -0.3011  1.5807
  139OSM     NF15146   1.491   2.460   6.549  0.1973 -0.0667  0.0510
  139OSM    HNF15147   1.495   2.401   6.630  2.3648  2.1356  1.6162
  139OSM    C2S15148   1.427   2.402   6.434 -0.2432  0.7266 -0.5866
  139OSM    H2S15149   1.330   2.455   6.420 -1.0663 -1.2807 -2.8259
  139OSM    C3S15150   1.392   2.247   6.449 -0.8367  0.3468  0.1783
  139OSM    H3S15151   1.485   2.188   6.461  0.1303  1.0951 -3.1727
  139OSM     O315152   1.327   2.198   6.332  0.1977 -0.5487  0.2148
  139OSM    HO315153   1.371   2.250   6.265 -3.1347  1.6599 -0.4196
  139OSM    C4S15154   1.302   2.238   6.564  0.6740  0.4936 -0.1824
  139OSM    H4S15155   1.366   2.208   6.648  0.9076  0.3022 -0.4247
  139OSM    C5S15156   1.170   2.265   6.589 -0.2096 -0.2151  0.1392
  139OSM    H5S15157   1.112   2.296   6.501  1.8332  0.0110 -1.1608
  139OSM    C6S15158   1.089   2.258   6.721  0.5823 -0.8611 -0.0169
  139OSM    H6S15159   1.134   2.188   6.795 -0.2346 -2.0872 -0.6569
  139OSM    H6T15160   0.985   2.227   6.699  0.3562  0.4219 -0.7835
  139OSM    C7S15161   1.064   2.392   6.792  0.4254  0.9349  0.0941
  139OSM    H7S15162   0.997   2.367   6.877 -1.3623  1.2329 -1.1846
  139OSM    H7T15163   1.001   2.470   6.744 -1.6859 -0.1674  0.9741
  139OSM    C8S15164   1.197   2.459   6.847 -0.1855  0.1267 -0.2939
  139OSM    H8S15165   1.254   2.510   6.766 -1.4505 -0.6263 -1.6750
  139OSM    H8T15166   1.263   2.376   6.881  1.2004  0.2801 -2.5289
  139OSM    C9S15167   1.177   2.569   6.953  0.3276 -0.2800  0.1628
  139OSM    H9S15168   1.116   2.655   6.918  1.8739  2.0397  2.9160
  139OSM    H9T15169   1.272   2.620   6.982 -0.7202  1.0784  1.2869
  139OSM   C10S15170   1.109   2.510   7.070  0.6187 -0.9150 -0.3605
  139OSM   H10S15171   1.146   2.405   7.075  0.8964 -0.8246 -0.5131
  139OSM   H10T15172   1.001   2.501   7.045  0.0383  2.4172  0.7448
  139OSM   C11S15173   1.145   2.573   7.207 -0.0144 -0.2439  0.5174
  139OSM   H11S15174   1.141   2.684   7.205 -1.7096 -0.2785 -3.3081
  139OSM   H11T15175   1.254   2.562   7.227 -0.3047 -1.1200  1.6680
  139OSM   C12S15176   1.071   2.507   7.322 -0.3084 -0.6248 -0.3233
  139OSM   H12S15177   1.098   2.403   7.350 -0.3300 -0.5885 -0.1720
  139OSM   H12T15178   0.968   2.480   7.288 -0.4926  0.3639 -0.5776
  139OSM   C13S15179   1.102   2.592   7.448  0.5219  0.0765  0.3906
  139OSM   H13S15180   1.060   2.694   7.438 -1.0483 -0.4776  1.1423
  139OSM   H13T15181   1.211   2.613   7.439  0.7411 -1.0606  0.3557
  139OSM   C14S15182   1.059   2.536   7.582 -0.6508  0.3758  0.8453
  139OSM   H14S15183   1.109   2.437   7.594 -1.2694 -0.1629 -0.9264
  139OSM   H14T15184   0.949   2.516   7.578 -0.8993  2.0520 -1.1488
  139OSM   C15S15185   1.102   2.622   7.701  0.7546  0.1041 -0.4106
  139OSM   H15S15186   1.055   2.723   7.697 -0.8168 -0.6525 -1.8492
  139OSM   H15T15187   1.212   2.631   7.694  0.5998  1.4204 -1.4260
  139OSM   C16S15188   1.048   2.568   7.835  0.0254  0.3463  0.3315
  139OSM   H16S15189   1.055   2.459   7.855  0.5329 -0.0483 -1.7972
  139OSM   H16T15190   0.942   2.596   7.854  0.2074  1.0858  0.2782
  139OSM   C17S15191   1.109   2.659   7.946 -0.4929  0.0481  0.3474
  139OSM   H17S15192   1.076   2.760   7.915 -4.4317 -1.7056 -1.5009
  139OSM   H17T15193   1.220   2.653   7.939 -0.5841 -2.2879  0.2281
  139OSM   C18S15194   1.051   2.626   8.082 -0.3197  0.1417 -0.0038
  139OSM   H18S15195   1.066   2.521   8.115 -0.8074  0.0146 -0.1904
  139OSM   H18T15196   0.945   2.658   8.088  0.7133  3.8999 -0.5618
  139OSM   H18U15197   1.113   2.688   8.149  1.5709 -1.2244 -0.4214
  139OSM    C1F15198   1.507   2.594   6.564 -0.0131 -0.1884  0.1910
  139OSM     OF15199   1.462   2.664   6.473 -0.0057  0.2944  0.1894
  139OSM    C2F15200   1.574   2.647   6.696 -0.1936 -0.1181  0.4551
  139OSM    H2F15201   1.677   2.612   6.713  0.0632  0.9393  1.1100
  139OSM    H2G15202   1.515   2.611   6.783  0.1423 -0.4032  0.5671
  139OSM    C3F15203   1.580   2.801   6.698  0.6704 -0.1842 -0.5675
  139OSM    H3F15204   1.478   2.843   6.687  0.4081 -0.9819 -1.2240
  139OSM    H3G15205   1.646   2.836   6.616 -1.2596  0.4574 -1.8657
  139OSM    C4F15206   1.645   2.845   6.828  0.8233 -0.8597 -0.0202
  139OSM    H4F15207   1.680   2.947   6.804  0.3645  0.0828  3.1465
  139OSM    H4G15208   1.740   2.789   6.842  0.9064 -0.0349  3.2159
  139OSM    C5F15209   1.561   2.835   6.956 -0.0652  0.1730  0.0507
  139OSM    H5F15210   1.524   2.730   6.959 -1.2301  0.5478 -0.7710
  139OSM    H5G15211   1.472   2.902   6.954 -1.0380 -1.0974 -0.1966
  139OSM    C6F15212   1.648   2.856   7.082 -0.4192  0.1752  0.2858
  139OSM    H6F15213   1.717   2.941   7.063  1.3140 -0.8384  1.8431
  139OSM    H6G15214   1.717   2.769   7.093 -1.7991 -1.2901 -2.2271
  139OSM    C7F15215   1.577   2.873   7.218 -0.0469  1.0601 -0.6501
  139OSM    H7F15216   1.532   2.778   7.252 -1.0641  0.7155 -2.8751
  139OSM    H7G15217   1.493   2.946   7.212 -0.3485  0.8789  1.1735
  139OSM    C8F15218   1.692   2.922   7.320 -0.8930 -0.4232 -0.7454
  139OSM    H8F15219   1.666   3.027   7.348 -0.7239 -0.0576 -1.9289
  139OSM    H8G15220   1.785   2.929   7.261 -0.1583  0.1261  0.4489
  139OSM    C9F15221   1.725   2.830   7.437 -0.0215  0.5844  0.2360
  139OSM    H9F15222   1.778   2.736   7.419 -0.8323 -0.2333  1.9889
  139OSM   C10F15223   1.701   2.859   7.565 -0.7700 -0.4414  0.1966
  139OSM   H10F15224   1.734   2.778   7.633  0.2492 -1.3065 -1.2912
  139OSM   C11F15225   1.647   2.991   7.624 -0.3940  0.1192  0.0615
  139OSM   H11F15226   1.537   3.005   7.615 -0.5979 -0.9088  0.7866
  139OSM   H11G15227   1.695   3.073   7.567  1.5374 -1.6840 -1.0226
  139OSM   C12F15228   1.702   3.003   7.764 -0.1843  0.2073 -0.3709
  139OSM   H12F15229   1.673   3.107   7.792 -3.5989 -1.2859  2.0726
  139OSM   H12G15230   1.812   2.990   7.766 -0.2653 -0.4664 -0.3408
  139OSM   C13F15231   1.631   2.903   7.864  0.1337 -1.1518 -0.2723
  139OSM   H13F15232   1.674   2.801   7.856 -0.4294 -1.4506  0.4481
  139OSM   H13G15233   1.523   2.900   7.837 -0.3241 -0.5102  1.3658
  139OSM   C14F15234   1.638   2.953   8.007  0.4367  0.0104 -0.3698
  139OSM   H14F15235   1.594   3.055   8.007  2.3630  0.8774  1.1621
  139OSM   H14G15236   1.744   2.967   8.038 -0.4763  1.6131  2.2483
  139OSM   C15F15237   1.556   2.855   8.107 -0.4353 -0.4952 -0.0809
  139OSM   H15F15238   1.561   2.747   8.082  2.0779 -0.1564 -1.2844
  139OSM   H15G15239   1.450   2.882   8.087 -0.7031 -0.4943  1.2822
  139OSM   C16F15240   1.597   2.888   8.248 -0.4099 -0.1071 -0.1852
  139OSM   H16F15241   1.612   2.998   8.256  0.1371 -0.1905 -0.0712
  139OSM   H16G15242   1.694   2.840   8.273  0.1586  1.0321 -0.1972
  139OSM   C17F15243   1.492   2.840   8.344 -0.0399 -0.3237 -0.6926
  139OSM   H17F15244   1.458   2.735   8.327 -2.1669  0.4549 -1.5067
  139OSM   H17G15245   1.398   2.895   8.321  0.6971 -0.0255 -3.0750
  139OSM   C18F15246   1.541   2.856   8.493  0.1913  0.0163  0.9283
  139OSM   H18F15247   1.476   2.800   8.564 -0.7685  2.1067  1.7469
  139OSM   H18G15248   1.536   2.963   8.521  0.9615  0.4689 -0.6110
  139OSM   H18H15249   1.642   2.811   8.503 -0.5090 -2.3470 -1.8952
  140OSM      N15250   1.174   4.747   6.091  0.3361  0.1465 -0.1168
  140OSM    C1515251   1.095   4.676   5.985  0.1492  0.1025  0.5269
  140OSM   H15A15252   1.026   4.743   5.936 -1.0594 -1.7634 -0.3575
  140OSM   H15B15253   1.037   4.591   6.019 -1.8195  1.1261 -0.1905
  140OSM   H15C15254   1.159   4.633   5.910 -1.0091  1.1351 -1.0685
  140OSM    C1415255   1.221   4.871   6.033  1.1547  0.2509 -0.0400
  140OSM   H14A15256   1.297   4.861   5.956 -0.9035  2.3155 -2.4303
  140OSM   H14B15257   1.257   4.931   6.115  0.4291  0.8425 -0.1478
  140OSM   H14C15258   1.136   4.925   5.994  0.3162 -0.8704  0.2074
  140OSM    C1315259   1.078   4.791   6.205  0.6105  0.0381  0.1888
  140OSM   H13A15260   1.041   4.701   6.251 -0.2299  0.7064  0.8257
  140OSM   H13B15261   0.998   4.850   6.164  1.1395 -0.0128 -0.9394
  140OSM   H13C15262   1.133   4.852   6.275 -0.1436  0.1990  0.6415
  140OSM    C1215263   1.290   4.663   6.146  0.2434  0.2324 -0.2197
  140OSM   H12A15264   1.360   4.665   6.064 -0.2198  1.8354 -0.6022
  140OSM   H12B15265   1.262   4.563   6.175  2.4498 -0.6906 -1.1778
  140OSM    C1115266   1.375   4.717   6.267  0.2759 -0.3719  0.1656
  140OSM   H11A15267   1.432   4.637   6.318 -1.2473 -0.4809  1.7312
  140OSM   H11B15268   1.309   4.752   6.348 -0.6057 -0.6632 -0.4233
  140OSM      P15269   1.602   4.787   6.168 -0.1255  0.2829 -0.1573
  140OSM    O1315270   1.583   4.695   6.056 -0.3372  0.3264 -0.1529
  140OSM    O1415271   1.678   4.913   6.146 -0.5626 -0.3984 -0.2480
  140OSM    O1115272   1.652   4.706   6.293 -0.1997 -0.0823  0.2186
  140OSM    O1215273   1.457   4.832   6.220  0.5664 -1.0511  0.2010
  140OSM    C1S15274   1.688   4.748   6.422 -1.1155  1.0896  0.4341
  140OSM    H1S15275   1.705   4.857   6.426  1.0531  0.7885  0.1860
  140OSM    H1T15276   1.788   4.701   6.433 -2.1401 -1.8160 -1.9434
  140OSM     NF15277   1.636   4.720   6.654 -0.7105 -0.3381 -0.3017
  140OSM    HNF15278   1.681   4.667   6.726  0.3083  2.7502  1.4274
  140OSM    C2S15279   1.608   4.664   6.524 -0.0263 -0.3403  0.2092
  140OSM    H2S15280   1.502   4.696   6.511  0.8927  1.9176 -2.2014
  140OSM    C3S15281   1.624   4.510   6.506  0.6741 -0.1837 -0.0034
  140OSM    H3S15282   1.723   4.482   6.548 -0.3847 -1.2868  1.7998
  140OSM     O315283   1.629   4.465   6.368 -0.5090  0.2927  0.0351
  140OSM    HO315284   1.664   4.543   6.325 -0.1851 -0.7293 -1.6196
  140OSM    C4S15285   1.514   4.432   6.573  0.8552  0.2237  0.4971
  140OSM    H4S15286   1.417   4.446   6.522  0.8877 -1.3595 -0.0307
  140OSM    C5S15287   1.524   4.368   6.689  0.1997 -0.2214  0.3687
  140OSM    H5S15288   1.624   4.381   6.734  1.2394  0.5741 -2.0925
  140OSM    C6S15289   1.417   4.299   6.772  1.1236  0.1301 -0.1424
  140OSM    H6S15290   1.419   4.190   6.749 -1.5237  0.0607 -0.1112
  140OSM    H6T15291   1.313   4.323   6.741  1.3981  0.2925 -0.9535
  140OSM    C7S15292   1.454   4.316   6.916 -0.0653  0.3290  0.1092
  140OSM    H7S15293   1.380   4.271   6.985 -0.6785  1.2857  0.0832
  140OSM    H7T15294   1.464   4.425   6.937 -1.1892 -0.0562  2.9212
  140OSM    C8S15295   1.580   4.242   6.955  0.7183 -0.4254  0.5573
  140OSM    H8S15296   1.671   4.284   6.907  1.0280 -0.2602  1.2832
  140OSM    H8T15297   1.570   4.136   6.922 -0.0169  0.7649 -3.3228
  140OSM    C9S15298   1.615   4.255   7.111 -0.3909  0.2574 -0.1918
  140OSM    H9S15299   1.529   4.223   7.173  0.4565  3.6690  2.8919
  140OSM    H9T15300   1.632   4.364   7.121 -0.6765  0.0569  2.8375
  140OSM   C10S15301   1.730   4.165   7.146 -0.4146  1.0724 -0.0998
  140OSM   H10S15302   1.819   4.208   7.094 -0.2020  1.4580  0.5787
  140OSM   H10T15303   1.710   4.068   7.097 -1.1540  0.9610  0.4197
  140OSM   C11S15304   1.758   4.151   7.295  0.9592  0.2908 -0.6285
  140OSM   H11S15305   1.831   4.069   7.314  0.4388  0.5377  2.8036
  140OSM   H11T15306   1.657   4.123   7.333 -0.0420  2.6228 -1.4957
  140OSM   C12S15307   1.792   4.280   7.363  0.4709 -0.0959 -0.0200
  140OSM   H12S15308   1.728   4.362   7.323  2.2069  2.2687  1.8683
  140OSM   H12T15309   1.895   4.316   7.340 -0.5772  1.7232 -2.1691
  140OSM   C13S15310   1.770   4.258   7.511 -0.3976  0.4643  0.5851
  140OSM   H13S15311   1.835   4.176   7.548 -2.0750 -1.5050 -0.7037
  140OSM   H13T15312   1.669   4.217   7.531 -0.3995 -1.2488 -2.5880
  140OSM   C14S15313   1.790   4.391   7.597  0.4605  0.1953  0.1928
  140OSM   H14S15314   1.736   4.482   7.563  1.0031  1.7385  3.2404
  140OSM   H14T15315   1.892   4.433   7.585  0.0228  1.9124  2.0806
  140OSM   C15S15316   1.778   4.359   7.750 -0.0215 -0.1859  0.1405
  140OSM   H15S15317   1.857   4.285   7.773 -0.8055 -0.8254  0.7862
  140OSM   H15T15318   1.673   4.326   7.769 -0.7594  2.5657  1.0800
  140OSM   C16S15319   1.795   4.487   7.838 -0.0951 -0.1015  0.1729
  140OSM   H16S15320   1.748   4.573   7.785  0.1487  0.7049  1.2330
  140OSM   H16T15321   1.904   4.504   7.853  0.3933 -1.5334 -1.5809
  140OSM   C17S15322   1.727   4.478   7.974  0.1350 -0.5499  0.0709
  140OSM   H17S15323   1.747   4.569   8.035 -0.1173 -0.3427 -0.1505
  140OSM   H17T15324   1.766   4.389   8.027  2.3319  0.9743  1.1059
  140OSM   C18S15325   1.571   4.474   7.972 -0.5569  0.1018  0.3712
  140OSM   H18S15326   1.538   4.556   7.906 -1.5986  0.9141  1.8727
  140OSM   H18T15327   1.530   4.490   8.075 -0.0366  1.0034  0.4395
  140OSM   H18U15328   1.540   4.376   7.930  1.0532  0.2326 -1.1804
  140OSM    C1F15329   1.609   4.845   6.686 -0.6409  0.0637  0.7316
  140OSM     OF15330   1.540   4.923   6.622  0.5413 -0.1702 -0.1892
  140OSM    C2F15331   1.669   4.894   6.809 -0.4332  0.2399 -0.5319
  140OSM    H2F15332   1.662   5.005   6.812  0.9540  0.3342 -0.2445
  140OSM    H2G15333   1.774   4.858   6.804 -0.4256 -0.1454  1.7413
  140OSM    C3F15334   1.616   4.822   6.938 -0.1359 -0.3517 -0.2826
  140OSM    H3F15335   1.592   4.714   6.931 -3.8293  0.2981  1.3373
  140OSM    H3G15336   1.511   4.859   6.935  0.0510  0.1807 -0.3623
  140OSM    C4F15337   1.680   4.863   7.071 -0.4175  0.3393 -0.5765
  140OSM    H4F15338   1.687   4.969   7.106  0.6513 -0.2444  1.0449
  140OSM    H4G15339   1.789   4.844   7.063 -0.4131 -0.9346  2.1918
  140OSM    C5F15340   1.630   4.780   7.189 -0.2555  0.1416 -0.7283
  140OSM    H5F15341   1.653   4.676   7.160  0.0914  0.6127 -2.1450
  140OSM    H5G15342   1.519   4.785   7.184 -0.3079 -0.0672  0.0828
  140OSM    C6F15343   1.699   4.828   7.319  0.5229  0.4523 -0.0851
  140OSM    H6F15344   1.676   4.936   7.325 -1.3569  0.0045  1.2758
  140OSM    H6G15345   1.807   4.812   7.300  0.7970  0.1594  1.6721
  140OSM    C7F15346   1.645   4.739   7.429  0.5124  0.4343 -0.1552
  140OSM    H7F15347   1.668   4.635   7.394 -0.7585  0.1196 -0.1054
  140OSM    H7G15348   1.535   4.748   7.445  0.3380 -0.1043 -0.9895
  140OSM    C8F15349   1.705   4.766   7.567 -0.6361  0.6304  0.3847
  140OSM    H8F15350   1.810   4.742   7.542 -0.1896  1.4966  1.3680
  140OSM    H8G15351   1.650   4.697   7.635  0.7670  0.5258  1.4485
  140OSM    C9F15352   1.686   4.907   7.613  0.6731  0.4823 -0.2624
  140OSM    H9F15353   1.583   4.946   7.608 -0.8345 -3.2348 -0.2175
  140OSM   C10F15354   1.771   4.993   7.663  0.2556 -0.4197  0.3607
  140OSM   H10F15355   1.749   5.097   7.692  1.1018  0.1595 -1.0220
  140OSM   C11F15356   1.916   4.961   7.698  0.6264 -0.4925  0.0146
  140OSM   H11F15357   1.969   5.053   7.666  1.0606 -0.6837  0.1731
  140OSM   H11G15358   1.955   4.883   7.628 -0.9952 -1.1654 -0.1705
  140OSM   C12F15359   1.945   4.948   7.848  0.2904 -0.7922 -0.0961
  140OSM   H12F15360   1.903   5.032   7.907 -0.6494 -1.1787 -0.2096
  140OSM   H12G15361   2.055   4.961   7.857  0.4118 -1.9864  0.3177
  140OSM   C13F15362   1.893   4.811   7.908  0.4562  0.3385  0.0937
  140OSM   H13F15363   1.934   4.722   7.855 -0.8747 -0.1195 -0.1886
  140OSM   H13G15364   1.785   4.820   7.886  0.0433 -0.4543  1.7570
  140OSM   C14F15365   1.932   4.792   8.057 -1.2617 -0.4359  0.4425
  140OSM   H14F15366   2.041   4.769   8.053 -1.0378  0.1185  2.6667
  140OSM   H14G15367   1.885   4.709   8.113  2.8451 -1.0069  3.2813
  140OSM   C15F15368   1.910   4.916   8.139  0.1393 -0.4988 -0.3490
  140OSM   H15F15369   1.800   4.931   8.128  0.1227 -0.3329  0.0572
  140OSM   H15G15370   1.963   5.002   8.092 -0.6399  1.3109  1.9790
  140OSM   C16F15371   1.944   4.909   8.288 -0.8537 -0.0521  0.1875
  140OSM   H16F15372   2.054   4.892   8.293 -0.9827 -0.8964  0.2364
  140OSM   H16G15373   1.889   4.827   8.339  0.6004 -1.3706 -0.3179
  140OSM   C17F15374   1.907   5.042   8.361  0.5330  0.2743  0.1318
  140OSM   H17F15375   1.796   5.038   8.368  0.4212  2.5438  0.1481
  140OSM   H17G15376   1.928   5.139   8.311 -0.1496 -0.0862 -0.8713
  140OSM   C18F15377   1.959   5.040   8.503 -1.0318 -0.6810 -0.0394
  140OSM   H18F15378   1.928   4.948   8.558 -1.4237 -1.0290 -0.8340
  140OSM   H18G15379   1.926   5.124   8.568 -0.4867 -1.9362  1.9073
  140OSM   H18H15380   2.069   5.053   8.505 -1.0446 -0.1327 -2.0753
  141OSM      N15381   1.543   6.481   6.156  0.2717  0.0190 -0.1395
  141OSM    C1515382   1.487   6.551   6.274  0.4545 -0.2307 -0.1517
  141OSM   H15A15383   1.476   6.657   6.256  1.5892 -0.1246 -0.2740
  141OSM   H15B15384   1.553   6.542   6.358  0.7322 -2.2620 -0.5602
  141OSM   H15C15385   1.395   6.502   6.303 -0.1050  2.0025  1.9353
  141OSM    C1415386   1.454   6.495   6.040  0.3990  0.5224 -0.5159
  141OSM   H14A15387   1.462   6.596   6.004 -1.3286  1.0817  0.6223
  141OSM   H14B15388   1.352   6.470   6.064  1.2292 -1.7178  0.8049
  141OSM   H14C15389   1.489   6.428   5.962 -1.4451 -1.9595  0.7225
  141OSM    C1315390   1.675   6.547   6.121  0.8009 -0.1905 -0.1850
  141OSM   H13A15391   1.706   6.485   6.038 -0.4478  0.7428 -1.3530
  141OSM   H13B15392   1.745   6.530   6.202  1.9653 -0.7972 -1.2851
  141OSM   H13C15393   1.666   6.644   6.074  1.9190 -1.0178 -2.1663
  141OSM    C1215394   1.555   6.333   6.187  0.0688 -0.5161  0.4164
  141OSM   H12A15395   1.598   6.284   6.102  3.2628  1.3606  0.8625
  141OSM   H12B15396   1.456   6.292   6.203  1.0498 -2.4678  1.6608
  141OSM    C1115397   1.632   6.290   6.312 -0.1382 -0.7064 -0.6644
  141OSM   H11A15398   1.613   6.181   6.321  0.3381 -0.8951 -1.9235
  141OSM   H11B15399   1.595   6.354   6.395  0.9685 -1.0865  0.1347
  141OSM      P15400   1.876   6.236   6.224  0.4389 -0.1928  0.4590
  141OSM    O1315401   1.799   6.178   6.111 -0.0897 -0.0694 -0.3192
  141OSM    O1415402   1.992   6.313   6.182  0.1173  0.1946  0.6977
  141OSM    O1115403   1.926   6.134   6.336  0.4809  0.3120  0.3122
  141OSM    O1215404   1.773   6.325   6.303  0.7078  0.0169  0.0398
  141OSM    C1S15405   1.967   6.182   6.465  0.2820  0.0820  0.0239
  141OSM    H1S15406   1.988   6.291   6.466 -0.4180  0.2258  1.4866
  141OSM    H1T15407   2.059   6.124   6.484  0.0326 -0.3746 -0.1457
  141OSM     NF15408   1.906   6.201   6.714  0.3142 -0.0074 -0.0769
  141OSM    HNF15409   1.939   6.132   6.778  1.5858  1.0952  0.4685
  141OSM    C2S15410   1.866   6.150   6.581  0.4504 -0.5138  0.5118
  141OSM    H2S15411   1.774   6.208   6.563  0.4973 -0.6492 -0.1815
  141OSM    C3S15412   1.837   5.999   6.585 -0.0202  0.5217  0.4266
  141OSM    H3S15413   1.930   5.947   6.615 -0.5811  0.2405  1.7084
  141OSM     O315414   1.800   5.940   6.461 -0.2974  0.2867 -0.1785
  141OSM    HO315415   1.834   6.004   6.398  0.5812  0.3436  0.3372
  141OSM    C4S15416   1.726   5.960   6.677 -0.0607 -0.4642  0.3864
  141OSM    H4S15417   1.753   5.895   6.761  2.7616  0.4942  0.2538
  141OSM    C5S15418   1.597   5.990   6.665  0.0726 -0.1620  0.4754
  141OSM    H5S15419   1.573   6.058   6.581  0.9393  0.3288  0.6164
  141OSM    C6S15420   1.486   5.949   6.760  0.1544  0.0781  0.3076
  141OSM    H6S15421   1.524   5.882   6.840 -2.1913 -1.0529  0.5134
  141OSM    H6T15422   1.417   5.881   6.705  0.5393 -0.0474 -0.0271
  141OSM    C7S15423   1.404   6.057   6.826 -0.9827 -0.7897  0.3906
  141OSM    H7S15424   1.375   6.115   6.736  0.5547 -1.0825 -0.3061
  141OSM    H7T15425   1.476   6.096   6.902  0.0747 -1.2184 -0.3845
  141OSM    C8S15426   1.288   6.003   6.900  0.4233  0.4385  0.4964
  141OSM    H8S15427   1.327   5.944   6.986  1.2414  1.7999  1.0777
  141OSM    H8T15428   1.234   5.931   6.835 -0.0236  1.5835 -0.4241
  141OSM    C9S15429   1.182   6.104   6.945 -0.0727 -0.5183  1.0791
  141OSM    H9S15430   1.153   6.168   6.860  0.8849 -0.4386  0.8059
  141OSM    H9T15431   1.230   6.167   7.024  0.2810 -0.2698  0.6703
  141OSM   C10S15432   1.052   6.038   7.006  0.8811 -0.7230 -0.1415
  141OSM   H10S15433   1.011   5.956   6.944  0.6015 -0.3945 -0.3890
  141OSM   H10T15434   0.968   6.111   7.013  0.5292 -1.2316  1.2514
  141OSM   C11S15435   1.073   5.975   7.145  0.2426  0.5833 -0.1683
  141OSM   H11S15436   1.110   6.053   7.215 -0.3836  1.4939 -0.8435
  141OSM   H11T15437   1.154   5.899   7.139 -1.4734 -1.1603 -2.1662
  141OSM   C12S15438   0.952   5.893   7.193 -0.1634  0.3408  0.3601
  141OSM   H12S15439   0.936   5.813   7.117  0.4008  0.6335 -0.0718
  141OSM   H12T15440   0.859   5.952   7.206 -1.8335 -1.5037 -2.5687
  141OSM   C13S15441   0.963   5.819   7.329  0.0716 -0.0599 -0.1805
  141OSM   H13S15442   1.067   5.787   7.352  0.6772  0.1834 -2.4744
  141OSM   H13T15443   0.894   5.732   7.322  0.8651 -0.6463 -0.9562
  141OSM   C14S15444   0.918   5.903   7.448 -0.4645  0.4017 -0.7718
  141OSM   H14S15445   0.818   5.947   7.431 -1.1595 -0.7360  0.3324
  141OSM   H14T15446   0.994   5.983   7.465  2.2989 -2.1388 -0.7274
  141OSM   C15S15447   0.920   5.822   7.579  0.7547 -0.7704 -0.0371
  141OSM   H15S15448   1.018   5.769   7.587  2.3997  1.7743 -2.4715
  141OSM   H15T15449   0.845   5.741   7.573 -1.1074  0.7786  1.6904
  141OSM   C16S15450   0.882   5.909   7.701 -0.5479 -0.7128 -0.2731
  141OSM   H16S15451   0.784   5.949   7.667  0.1365  0.8844 -0.4019
  141OSM   H16T15452   0.955   5.993   7.707  0.4686 -1.4096 -2.2706
  141OSM   C17S15453   0.881   5.825   7.826 -0.0998  0.2017  0.0170
  141OSM   H17S15454   0.982   5.792   7.859 -0.2549 -0.8982 -0.5631
  141OSM   H17T15455   0.827   5.729   7.811 -0.8816  0.7200 -0.5044
  141OSM   C18S15456   0.806   5.907   7.939  0.3753  0.1992  0.2021
  141OSM   H18S15457   0.802   5.853   8.036 -0.9062  1.0128  0.6151
  141OSM   H18T15458   0.702   5.926   7.905 -0.0568 -0.1033  1.3166
  141OSM   H18U15459   0.849   6.010   7.942 -1.1506  0.8885 -0.8458
  141OSM    C1F15460   1.923   6.330   6.745  1.0359  0.0803 -0.7027
  141OSM     OF15461   1.923   6.419   6.660 -0.0566 -0.0255 -0.0670
  141OSM    C2F15462   1.937   6.360   6.887  0.5048  0.5799  0.0169
  141OSM    H2F15463   2.041   6.373   6.923  0.3217 -0.7055  1.0336
  141OSM    H2G15464   1.891   6.286   6.955  1.2084  0.1745  0.0565
  141OSM    C3F15465   1.891   6.502   6.915 -0.4650 -0.7155 -0.4340
  141OSM    H3F15466   1.781   6.499   6.897 -0.3532 -0.6321 -1.1390
  141OSM    H3G15467   1.930   6.581   6.847  1.3492 -0.2681  1.1070
  141OSM    C4F15468   1.915   6.550   7.060  0.1504  0.2269 -0.4266
  141OSM    H4F15469   1.837   6.628   7.077  0.6684  0.8614 -0.9265
  141OSM    H4G15470   2.016   6.595   7.062  0.1787  0.2350 -1.6413
  141OSM    C5F15471   1.885   6.450   7.164 -0.0071 -0.6952  0.2554
  141OSM    H5F15472   1.957   6.368   7.143  1.4731  0.9333 -1.0991
  141OSM    H5G15473   1.782   6.408   7.164 -0.7026  0.9542 -0.0955
  141OSM    C6F15474   1.896   6.497   7.310  0.4905  0.1423 -0.2805
  141OSM    H6F15475   1.820   6.577   7.326  0.8439  0.2615  0.8020
  141OSM    H6G15476   2.000   6.536   7.313  0.4020  0.3289  0.2719
  141OSM    C7F15477   1.885   6.378   7.407 -0.0330 -0.3056  0.3754
  141OSM    H7F15478   1.938   6.285   7.374 -1.2702 -1.3812  1.3687
  141OSM    H7G15479   1.778   6.351   7.420 -0.0843 -0.1548  0.2706
  141OSM    C8F15480   1.939   6.437   7.545 -0.1338  0.0686 -0.3458
  141OSM    H8F15481   1.852   6.493   7.585  0.2145  1.0553 -0.9692
  141OSM    H8G15482   2.019   6.510   7.521 -0.5036 -0.1198 -2.2306
  141OSM    C9F15483   2.006   6.338   7.638  0.2183 -0.0970  0.0662
  141OSM    H9F15484   2.081   6.272   7.592 -1.3679 -0.6343 -1.8201
  141OSM   C10F15485   1.967   6.328   7.763 -0.7235  0.1840 -0.3443
  141OSM   H10F15486   2.026   6.254   7.820 -0.6078  1.4582  1.2142
  141OSM   C11F15487   1.873   6.406   7.843 -0.4957  0.0109  0.1600
  141OSM   H11F15488   1.778   6.356   7.871 -0.3953 -0.1189  0.2718
  141OSM   H11G15489   1.848   6.504   7.797  0.9801  0.5127  0.4004
  141OSM   C12F15490   1.938   6.444   7.976  0.6089 -0.0570 -0.6329
  141OSM   H12F15491   1.867   6.517   8.021 -1.0401 -1.6739 -0.5966
  141OSM   H12G15492   2.039   6.489   7.958  0.0667  0.9175 -1.3104
  141OSM   C13F15493   1.953   6.337   8.089  0.4071  0.8021  0.5047
  141OSM   H13F15494   2.036   6.267   8.064  0.1828  0.7610 -0.1411
  141OSM   H13G15495   1.860   6.277   8.099  2.5640 -3.0199 -1.2178
  141OSM   C14F15496   1.984   6.399   8.223 -0.6798 -0.1936  0.0435
  141OSM   H14F15497   1.923   6.490   8.241  1.4293  0.9396  1.8683
  141OSM   H14G15498   2.083   6.448   8.206 -0.5648 -0.4768 -0.1047
  141OSM   C15F15499   1.987   6.292   8.333  0.1061  0.0972 -0.0020
  141OSM   H15F15500   2.084   6.238   8.343 -0.0782 -0.0842  0.7974
  141OSM   H15G15501   1.914   6.220   8.291 -1.3621  1.0042  0.9841
  141OSM   C16F15502   1.926   6.333   8.472  0.2153  0.5523 -0.1134
  141OSM   H16F15503   1.928   6.248   8.543 -0.6921 -0.3258 -1.1138
  141OSM   H16G15504   1.817   6.352   8.458  0.7128  2.8450 -1.0745
  141OSM   C17F15505   1.981   6.466   8.535 -0.1127  0.1150  0.0318
  141OSM   H17F15506   1.921   6.485   8.626  1.6090 -0.7215  1.3706
  141OSM   H17G15507   1.950   6.545   8.463 -2.7400  0.6140  1.6501
  141OSM   C18F15508   2.130   6.464   8.561 -0.3770  0.0819 -0.3532
  141OSM   H18F15509   2.165   6.383   8.629  2.8384  1.3979 -0.3709
  141OSM   H18G15510   2.160   6.565   8.597  0.1400 -0.2683  0.2215
  141OSM   H18H15511   2.178   6.438   8.464 -0.0963  2.9752 -1.0242
  142OSM      N15512   1.731   0.521   6.384  0.3218 -0.1462 -0.6968
  142OSM    C1515513   1.816   0.474   6.501  0.1535  0.0080 -0.6836
  142OSM   H15A15514   1.838   0.551   6.573  0.2512 -1.1472  0.5334
  142OSM   H15B15515   1.906   0.428   6.463 -0.4085 -2.0400  0.4233
  142OSM   H15C15516   1.765   0.393   6.551  0.1480  1.0262  0.9968
  142OSM    C1415517   1.804   0.615   6.296  0.2267 -0.3584 -0.0801
  142OSM   H14A15518   1.831   0.699   6.358 -2.7227  1.0404 -0.6056
  142OSM   H14B15519   1.758   0.642   6.202  0.6146 -0.4873 -0.3088
  142OSM   H14C15520   1.900   0.568   6.279 -0.9168 -1.6096 -3.4655
  142OSM    C1315521   1.701   0.400   6.304 -0.1158 -0.2985 -0.3671
  142OSM   H13A15522   1.784   0.335   6.281 -0.2268 -0.4211 -0.4179
  142OSM   H13B15523   1.655   0.431   6.212 -0.2052  0.0809 -0.1967
  142OSM   H13C15524   1.631   0.339   6.358  0.5658  0.4816  1.4595
  142OSM    C1215525   1.601   0.566   6.434 -0.3764  0.0214  0.1863
  142OSM   H12A15526   1.537   0.481   6.447 -0.8413  0.3984  0.3734
  142OSM   H12B15527   1.549   0.618   6.355 -1.0440 -0.7608  0.1063
  142OSM    C1115528   1.597   0.653   6.561  0.5350  0.4223  0.0684
  142OSM   H11A15529   1.635   0.585   6.640  1.1233 -1.0339 -1.4509
  142OSM   H11B15530   1.488   0.662   6.582  0.1654 -0.2341 -1.4873
  142OSM      P15531   1.609   0.891   6.466 -0.1238  0.1367  0.2478
  142OSM    O1315532   1.717   0.976   6.410  0.3943 -0.3823 -0.3024
  142OSM    O1415533   1.513   0.839   6.368  0.2334 -0.4063  0.3060
  142OSM    O1115534   1.528   0.976   6.574  0.1663  0.6463  0.0261
  142OSM    O1215535   1.670   0.776   6.548 -0.1151  0.3605 -0.1770
  142OSM    C1S15536   1.586   1.077   6.661 -0.1136 -0.1297 -1.2064
  142OSM    H1S15537   1.595   1.169   6.598  2.7282 -0.1642 -0.9313
  142OSM    H1T15538   1.693   1.063   6.690 -0.3135  0.8661  0.0684
  142OSM     NF15539   1.557   1.211   6.858  0.6120 -0.1156 -0.0285
  142OSM    HNF15540   1.623   1.197   6.931 -0.3031  1.6874  1.1862
  142OSM    C2S15541   1.495   1.100   6.783 -0.5314  0.7335 -0.0703
  142OSM    H2S15542   1.396   1.130   6.743 -0.6229  1.7083  0.8572
  142OSM    C3S15543   1.476   0.967   6.854 -0.3300 -0.4909  0.3710
  142OSM    H3S15544   1.581   0.937   6.874  0.8732  1.0644 -3.1710
  142OSM     O315545   1.417   0.862   6.777 -0.4932  0.6234  0.2032
  142OSM    HO315546   1.409   0.898   6.688 -2.3144 -0.2732 -0.0344
  142OSM    C4S15547   1.410   0.992   6.988  0.0039  0.2844 -0.3391
  142OSM    H4S15548   1.481   1.049   7.050 -0.5463  0.1074  0.4759
  142OSM    C5S15549   1.287   0.962   7.040  0.2070 -0.3138 -0.0701
  142OSM    H5S15550   1.216   0.903   6.981 -1.1240  2.0647 -0.8970
  142OSM    C6S15551   1.247   0.989   7.183  0.1322  0.2199  0.7758
  142OSM    H6S15552   1.260   0.888   7.229 -0.9589 -0.3380 -0.1230
  142OSM    H6T15553   1.140   1.013   7.198 -0.1323  0.1860 -0.9731
  142OSM    C7S15554   1.327   1.092   7.267 -0.3137  0.4041  0.6195
  142OSM    H7S15555   1.318   1.200   7.243  2.1527  0.6077  0.5165
  142OSM    H7T15556   1.437   1.085   7.255  0.0473  0.7297  3.4122
  142OSM    C8S15557   1.285   1.079   7.415 -0.1062  0.1321  0.5143
  142OSM    H8S15558   1.311   0.980   7.458  2.9201  0.6022 -0.1378
  142OSM    H8T15559   1.175   1.088   7.416 -0.0454  1.0134 -0.3120
  142OSM    C9S15560   1.331   1.195   7.502 -0.9734  0.5298 -0.4781
  142OSM    H9S15561   1.288   1.291   7.467 -1.9792  0.6773  1.0961
  142OSM    H9T15562   1.442   1.198   7.508 -1.1614  2.7183  3.6071
  142OSM   C10S15563   1.271   1.190   7.645 -0.8289 -0.1112  0.1757
  142OSM   H10S15564   1.279   1.089   7.689 -1.1194 -0.7265 -1.1467
  142OSM   H10T15565   1.164   1.219   7.648 -1.2507 -1.6924  0.7998
  142OSM   C11S15566   1.357   1.279   7.739  0.2438  0.3538  0.4930
  142OSM   H11S15567   1.334   1.385   7.713  1.2307  0.8615  1.6550
  142OSM   H11T15568   1.463   1.249   7.721  0.0101  0.5876 -1.4340
  142OSM   C12S15569   1.323   1.249   7.885  0.0699  0.5837 -0.5720
  142OSM   H12S15570   1.363   1.154   7.926 -3.8416 -0.7100  0.4308
  142OSM   H12T15571   1.212   1.245   7.892  0.2461 -1.8712  1.8414
  142OSM   C13S15572   1.364   1.371   7.987  0.2021  1.0246 -0.7493
  142OSM   H13S15573   1.323   1.465   7.942 -0.2461  0.7982 -0.8252
  142OSM   H13T15574   1.474   1.357   7.981  0.0851 -0.6223  0.5932
  142OSM   C14S15575   1.313   1.350   8.127  0.0253  0.5461  0.2032
  142OSM   H14S15576   1.209   1.312   8.116 -0.3230  1.6784 -0.6402
  142OSM   H14T15577   1.300   1.446   8.182  5.3612  0.6901  1.4393
  142OSM   C15S15578   1.400   1.250   8.217  0.1542 -0.2529 -0.3598
  142OSM   H15S15579   1.426   1.160   8.157 -1.8379  0.0558 -1.7412
  142OSM   H15T15580   1.320   1.217   8.286 -0.4217  3.2753  0.7762
  142OSM   C16S15581   1.515   1.310   8.304  0.0558 -0.4762 -0.0444
  142OSM   H16S15582   1.484   1.396   8.368 -0.8530  0.5354 -1.7981
  142OSM   H16T15583   1.597   1.352   8.242 -0.3765 -0.1121 -0.3767
  142OSM   C17S15584   1.575   1.200   8.389  0.4467  0.2847  0.4413
  142OSM   H17S15585   1.677   1.230   8.420  1.6000 -0.2296 -2.6718
  142OSM   H17T15586   1.591   1.105   8.335  1.4405 -0.4311  1.9533
  142OSM   C18S15587   1.488   1.174   8.507 -0.1737 -0.2726 -0.7096
  142OSM   H18S15588   1.393   1.116   8.496  1.6842 -3.7363  0.5827
  142OSM   H18T15589   1.458   1.268   8.558  0.0630  0.2995 -1.6295
  142OSM   H18U15590   1.546   1.128   8.590 -0.9485 -0.0233 -0.0134
  142OSM    C1F15591   1.537   1.339   6.827  0.4462  0.3451 -0.2538
  142OSM     OF15592   1.486   1.379   6.721 -0.9865 -0.4648 -0.2363
  142OSM    C2F15593   1.587   1.437   6.929  0.0492 -0.2103 -0.3320
  142OSM    H2F15594   1.694   1.456   6.905  0.8377 -1.1344  2.2708
  142OSM    H2G15595   1.595   1.400   7.033 -0.5504  0.5695 -0.0020
  142OSM    C3F15596   1.527   1.582   6.927  0.5055 -0.1921 -0.3016
  142OSM    H3F15597   1.417   1.585   6.944  0.1245 -0.2096 -2.6328
  142OSM    H3G15598   1.538   1.617   6.822 -1.6117  1.1900 -0.1045
  142OSM    C4F15599   1.586   1.672   7.023 -1.0902 -0.5799 -0.2757
  142OSM    H4F15600   1.565   1.777   6.992  0.2132  0.2009  1.3939
  142OSM    H4G15601   1.697   1.661   7.017 -1.0646 -0.7039  0.4129
  142OSM    C5F15602   1.524   1.659   7.167  0.1028 -0.4409  0.3801
  142OSM    H5F15603   1.541   1.555   7.203  2.7561  0.0521  0.6421
  142OSM    H5G15604   1.414   1.673   7.156  0.3896  1.5375 -0.0771
  142OSM    C6F15605   1.562   1.770   7.273 -0.3334  0.8607 -0.0370
  142OSM    H6F15606   1.548   1.875   7.241 -1.0292  0.8004  0.0547
  142OSM    H6G15607   1.671   1.757   7.287 -0.4608 -0.8612 -0.5519
  142OSM    C7F15608   1.486   1.752   7.407 -0.4628  0.0361 -0.4146
  142OSM    H7F15609   1.506   1.647   7.436 -0.8787  0.0939  0.0870
  142OSM    H7G15610   1.381   1.781   7.387  0.2036  3.3170  0.4797
  142OSM    C8F15611   1.538   1.856   7.510 -0.1448  0.3641 -0.8438
  142OSM    H8F15612   1.461   1.857   7.591 -0.8835 -0.9345 -1.5046
  142OSM    H8G15613   1.537   1.957   7.465 -2.0048  0.6304 -0.2440
  142OSM    C9F15614   1.673   1.816   7.560  0.6630 -0.4753  0.0995
  142OSM    H9F15615   1.761   1.849   7.503 -1.0511  0.7868 -1.8344
  142OSM   C10F15616   1.701   1.738   7.666 -0.5991 -0.6223  0.3688
  142OSM   H10F15617   1.806   1.711   7.681  0.2080  1.1302 -1.7163
  142OSM   C11F15618   1.599   1.684   7.764 -0.1786  0.1194 -0.1076
  142OSM   H11F15619   1.625   1.588   7.813 -0.1003  0.6734  0.9745
  142OSM   H11G15620   1.507   1.666   7.706 -0.1114  0.6290 -0.3788
  142OSM   C12F15621   1.552   1.758   7.898  0.4380 -0.7847  0.6365
  142OSM   H12F15622   1.458   1.707   7.926 -0.1091 -0.3021 -0.2929
  142OSM   H12G15623   1.528   1.856   7.851  0.4299 -0.5667  1.0885
  142OSM   C13F15624   1.650   1.776   8.005  0.0997 -0.3948  0.0216
  142OSM   H13F15625   1.623   1.854   8.080 -3.4088 -3.0905  1.7230
  142OSM   H13G15626   1.752   1.798   7.968  0.2210  0.3988  0.8177
  142OSM   C14F15627   1.654   1.646   8.092 -0.2460 -0.3000 -0.0526
  142OSM   H14F15628   1.698   1.568   8.027  0.0404 -0.9678  0.9410
  142OSM   H14G15629   1.550   1.628   8.127 -0.6265  1.2513 -0.3526
  142OSM   C15F15630   1.735   1.667   8.221 -0.2514 -0.7285 -0.2311
  142OSM   H15F15631   1.762   1.576   8.278  0.0325  0.0722  0.9283
  142OSM   H15G15632   1.693   1.749   8.283  2.0051 -0.2373  0.7028
  142OSM   C16F15633   1.877   1.725   8.206  0.0521  0.5532  0.3761
  142OSM   H16F15634   1.879   1.822   8.153  3.8680  0.3505  0.0183
  142OSM   H16G15635   1.937   1.648   8.153 -1.5822 -1.0237  0.7479
  142OSM   C17F15636   1.938   1.754   8.340 -0.3255  0.8405  0.0146
  142OSM   H17F15637   1.946   1.659   8.396  0.9779  0.5256 -0.6998
  142OSM   H17G15638   1.861   1.801   8.406 -1.1409  2.1640 -1.8214
  142OSM   C18F15639   2.062   1.840   8.340 -0.0702  0.1009 -0.2422
  142OSM   H18F15640   2.105   1.878   8.435  0.3381 -0.9205 -0.0061
  142OSM   H18G15641   2.031   1.933   8.288 -1.5055  0.5797  1.4301
  142OSM   H18H15642   2.146   1.792   8.285  0.6612  0.0666  0.8837
  143OSM      N15643   2.551   4.094   6.267 -0.5428 -0.1391 -0.0003
  143OSM    C1515644   2.508   4.096   6.417 -0.4339 -0.6683  0.5738
  143OSM   H15A15645   2.537   4.191   6.461 -3.2357  1.3538 -1.7073
  143OSM   H15B15646   2.552   4.010   6.465  0.3562 -1.0061 -0.7379
  143OSM   H15C15647   2.401   4.084   6.423 -0.6992 -0.0243 -2.2966
  143OSM    C1415648   2.487   3.982   6.200  0.4119  0.0408  0.3064
  143OSM   H14A15649   2.384   4.008   6.182 -0.8741 -3.4934  2.1867
  143OSM   H14B15650   2.496   3.891   6.257  0.3754  0.1539  0.4922
  143OSM   H14C15651   2.531   3.961   6.103 -0.5332  1.3675 -0.4350
  143OSM    C1315652   2.492   4.225   6.224  0.7435  0.9717 -0.5095
  143OSM   H13A15653   2.389   4.228   6.255  0.5138  0.6888 -1.2369
  143OSM   H13B15654   2.497   4.232   6.116  0.0590  0.8671 -0.5493
  143OSM   H13C15655   2.543   4.313   6.259 -1.0526  1.8975 -0.2022
  143OSM    C1215656   2.699   4.092   6.240 -0.2977  0.1969  0.1465
  143OSM   H12A15657   2.747   4.010   6.291 -0.1448 -0.3697 -0.8919
  143OSM   H12B15658   2.738   4.183   6.283  3.0552 -0.3273 -1.6182
  143OSM    C1115659   2.750   4.084   6.096 -0.4522 -0.5340  0.0180
  143OSM   H11A15660   2.854   4.119   6.079 -0.8144  1.3770  1.5634
  143OSM   H11B15661   2.681   4.156   6.049 -0.0169 -0.4697 -0.5238
  143OSM      P15662   2.841   3.834   6.076 -0.3784 -0.0124 -0.4846
  143OSM    O1315663   2.805   3.700   6.020  0.2589 -0.3015  0.0772
  143OSM    O1415664   2.980   3.878   6.051  0.1575 -0.1631 -0.0958
  143OSM    O1115665   2.818   3.835   6.237 -0.0400  0.5004  0.3938
  143OSM    O1215666   2.734   3.949   6.040  0.3281 -0.3171 -0.5956
  143OSM    C1S15667   2.908   3.756   6.322  0.3068 -0.6577  0.2066
  143OSM    H1S15668   3.010   3.799   6.312 -1.2788  2.8066 -1.8512
  143OSM    H1T15669   2.911   3.648   6.295 -0.9574 -1.1505  1.8945
  143OSM     NF15670   2.972   3.702   6.548  0.1744 -1.2767  0.1491
  143OSM    HNF15671   2.943   3.616   6.590  1.3902 -1.5568  0.4252
  143OSM    C2S15672   2.873   3.772   6.471 -0.4088 -0.0422  0.4670
  143OSM    H2S15673   2.879   3.881   6.490 -0.9600 -0.1650  1.3676
  143OSM    C3S15674   2.726   3.724   6.499  0.2336 -0.1241  0.0418
  143OSM    H3S15675   2.732   3.615   6.480  0.3687 -0.0617 -0.2760
  143OSM     O315676   2.630   3.788   6.419 -0.2419  0.3844 -0.5092
  143OSM    HO315677   2.691   3.835   6.363  1.0858 -1.3200 -0.5445
  143OSM    C4S15678   2.690   3.751   6.646 -1.1069 -0.0143  0.2212
  143OSM    H4S15679   2.722   3.847   6.690 -0.2586  0.2828 -1.0164
  143OSM    C5S15680   2.637   3.657   6.734  0.6382 -0.0034  0.0849
  143OSM    H5S15681   2.632   3.552   6.700  0.8318 -0.4215  1.3251
  143OSM    C6S15682   2.601   3.668   6.874 -0.4562 -0.3901 -0.8692
  143OSM    H6S15683   2.617   3.773   6.906  0.5413 -0.9808  0.6201
  143OSM    H6T15684   2.673   3.615   6.940  0.4224  3.5301  1.4876
  143OSM    C7S15685   2.461   3.613   6.910 -0.0938  0.5436 -0.0601
  143OSM    H7S15686   2.462   3.507   6.875 -0.0877  0.1263  1.1488
  143OSM    H7T15687   2.385   3.671   6.854 -0.3669 -1.4272 -1.7716
  143OSM    C8S15688   2.443   3.634   7.059  0.4302 -0.5146 -0.1101
  143OSM    H8S15689   2.436   3.742   7.085 -2.9920 -0.8493  0.5280
  143OSM    H8T15690   2.533   3.594   7.112  2.3021  1.5917 -1.6220
  143OSM    C9S15691   2.308   3.558   7.101  1.1369 -0.0307  0.1621
  143OSM    H9S15692   2.285   3.485   7.020 -0.5963 -1.0153  1.4937
  143OSM    H9T15693   2.233   3.639   7.101  1.1022  0.0159 -3.0897
  143OSM   C10S15694   2.315   3.493   7.240 -1.3073  0.8879  0.3803
  143OSM   H10S15695   2.402   3.423   7.246 -2.2406 -0.3704 -0.6537
  143OSM   H10T15696   2.222   3.440   7.270 -1.7504  3.0725  3.0349
  143OSM   C11S15697   2.362   3.582   7.352 -0.1768  0.1884  0.6545
  143OSM   H11S15698   2.308   3.678   7.366 -1.5060 -0.0278 -2.6150
  143OSM   H11T15699   2.465   3.616   7.330 -0.0947  0.2831  1.1899
  143OSM   C12S15700   2.356   3.501   7.478  0.5217  1.0030  0.4779
  143OSM   H12S15701   2.398   3.403   7.450  0.1954  0.5896  1.4033
  143OSM   H12T15702   2.255   3.491   7.524 -0.0711  0.5766 -0.9041
  143OSM   C13S15703   2.445   3.562   7.590 -0.0876  0.0488  0.3148
  143OSM   H13S15704   2.402   3.661   7.616  1.8505  0.9280  0.3060
  143OSM   H13T15705   2.554   3.564   7.568  0.1078  1.9062  1.3020
  143OSM   C14S15706   2.431   3.471   7.720 -0.5451 -0.6655 -0.8600
  143OSM   H14S15707   2.473   3.369   7.716  4.6815  1.1981  1.4022
  143OSM   H14T15708   2.323   3.465   7.748 -0.4025 -0.6528 -0.2969
  143OSM   C15S15709   2.501   3.537   7.840 -0.1525  1.1680  0.7884
  143OSM   H15S15710   2.493   3.647   7.833  0.5441  1.2261  0.8345
  143OSM   H15T15711   2.608   3.508   7.846 -0.9350 -1.4423  3.9194
  143OSM   C16S15712   2.443   3.484   7.973  0.4524  0.4017 -0.1111
  143OSM   H16S15713   2.444   3.373   7.974  2.7667  0.3973  1.7632
  143OSM   H16T15714   2.333   3.502   7.973  0.4077  0.2461  1.9001
  143OSM   C17S15715   2.498   3.552   8.100  0.7030  0.4853  0.4880
  143OSM   H17S15716   2.463   3.657   8.107  2.1897  1.1026 -1.1401
  143OSM   H17T15717   2.609   3.546   8.095  0.7168  2.2192 -1.6669
  143OSM   C18S15718   2.443   3.488   8.226 -0.2050  0.1108 -0.1870
  143OSM   H18S15719   2.510   3.405   8.253 -1.4045 -1.7637 -2.8140
  143OSM   H18T15720   2.344   3.445   8.201 -1.5604  2.5909  0.6454
  143OSM   H18U15721   2.446   3.566   8.305 -0.0394  0.4201 -0.4988
  143OSM    C1F15722   3.105   3.749   6.558  0.6255 -0.1262 -0.0498
  143OSM     OF15723   3.144   3.852   6.505 -0.6720  0.3887  0.7266
  143OSM    C2F15724   3.188   3.658   6.635  0.0439  0.8929 -0.1184
  143OSM    H2F15725   3.294   3.690   6.640  0.6472 -0.6465 -2.5284
  143OSM    H2G15726   3.194   3.568   6.571  2.5424  0.0598  1.2397
  143OSM    C3F15727   3.125   3.617   6.774 -0.0190 -0.1369 -0.3311
  143OSM    H3F15728   3.197   3.535   6.794  0.7188  0.7121  0.5685
  143OSM    H3G15729   3.022   3.576   6.773 -0.1053 -0.0060  1.2393
  143OSM    C4F15730   3.134   3.724   6.879 -0.1510 -0.5072 -0.0860
  143OSM    H4F15731   3.055   3.801   6.863  0.3793  0.2048  0.7172
  143OSM    H4G15732   3.236   3.767   6.874 -0.6512  0.4280 -5.2910
  143OSM    C5F15733   3.111   3.657   7.008 -0.2076 -0.1620  0.6090
  143OSM    H5F15734   3.168   3.562   7.018  2.8741  1.9012  4.0389
  143OSM    H5G15735   3.007   3.627   7.033 -0.4287 -0.7376 -0.9332
  143OSM    C6F15736   3.175   3.741   7.127 -0.1512 -0.4559 -0.0644
  143OSM    H6F15737   3.144   3.848   7.129  0.1780 -0.3713  0.9530
  143OSM    H6G15738   3.285   3.726   7.128  0.0275 -0.0389 -4.8097
  143OSM    C7F15739   3.127   3.696   7.270  0.1663  0.0336 -0.7040
  143OSM    H7F15740   3.172   3.594   7.279 -0.8029 -0.3735 -0.4047
  143OSM    H7G15741   3.019   3.673   7.276 -0.0192  0.9435 -0.5038
  143OSM    C8F15742   3.172   3.786   7.386  0.0680  0.1080  0.2933
  143OSM    H8F15743   3.125   3.757   7.483 -3.3176 -1.1908 -1.6551
  143OSM    H8G15744   3.140   3.890   7.365  1.4976  0.8891  1.8945
  143OSM    C9F15745   3.316   3.801   7.399 -0.2985  0.5022  0.1282
  143OSM    H9F15746   3.357   3.848   7.309 -0.5555 -0.7973 -0.6802
  143OSM   C10F15747   3.395   3.760   7.498 -0.1692 -0.0379  0.3872
  143OSM   H10F15748   3.503   3.775   7.483 -0.2777 -1.8945 -2.6510
  143OSM   C11F15749   3.354   3.704   7.628 -0.2580 -0.3176 -0.3769
  143OSM   H11F15750   3.439   3.648   7.671  0.3119  0.0772 -0.9664
  143OSM   H11G15751   3.261   3.645   7.609 -0.8254  0.7628 -1.0619
  143OSM   C12F15752   3.320   3.817   7.724  0.4909 -0.0334  0.9087
  143OSM   H12F15753   3.232   3.879   7.697  1.1345  1.1547  1.5166
  143OSM   H12G15754   3.393   3.900   7.732  2.3553 -1.7013  1.3892
  143OSM   C13F15755   3.305   3.762   7.865 -0.2242  1.0305 -0.4233
  143OSM   H13F15756   3.399   3.713   7.899 -0.7988  0.6080  0.5633
  143OSM   H13G15757   3.235   3.676   7.861 -0.8835  1.6060 -1.7280
  143OSM   C14F15758   3.252   3.859   7.967 -0.3932  0.2456 -0.1860
  143OSM   H14F15759   3.160   3.909   7.931 -0.8286 -0.7408 -0.4598
  143OSM   H14G15760   3.329   3.939   7.977 -1.4157  0.9941  2.0451
  143OSM   C15F15761   3.211   3.801   8.110  0.3040 -0.2594 -0.1382
  143OSM   H15F15762   3.198   3.890   8.175  2.2154 -0.0081 -0.0781
  143OSM   H15G15763   3.303   3.751   8.147 -0.4275 -0.5094  1.4045
  143OSM   C16F15764   3.102   3.688   8.115  0.1550 -0.9068  0.2144
  143OSM   H16F15765   3.119   3.619   8.030  0.6290 -0.5010 -0.0216
  143OSM   H16G15766   2.999   3.726   8.095  1.4414  1.7849 -1.6135
  143OSM   C17F15767   3.107   3.612   8.250  0.3629  0.1801 -0.3541
  143OSM   H17F15768   3.208   3.573   8.273  0.7503  1.7708  0.7307
  143OSM   H17G15769   3.040   3.524   8.241  1.4571 -0.7107  0.1767
  143OSM   C18F15770   3.047   3.693   8.369  0.1080 -0.8851 -0.0607
  143OSM   H18F15771   2.940   3.716   8.350 -0.3746 -1.3315  1.9425
  143OSM   H18G15772   3.101   3.786   8.397 -0.9431 -0.5122  0.7679
  143OSM   H18H15773   3.053   3.625   8.457 -0.0071 -1.3241 -0.3919
  144OSM      N15774   1.943   2.960   5.786 -0.0735  0.5342 -0.1697
  144OSM    C1515775   1.945   2.812   5.747  0.0291 -0.4673  0.2475
  144OSM   H15A15776   1.872   2.754   5.801  1.0900 -0.8565  1.2818
  144OSM   H15B15777   2.042   2.765   5.750  1.3075  2.0611  0.5134
  144OSM   H15C15778   1.912   2.812   5.644  0.4140  0.5619  0.1138
  144OSM    C1415779   2.031   3.033   5.686  0.0206  0.3617  0.7353
  144OSM   H14A15780   1.989   3.045   5.587 -0.3002 -0.3512  0.7820
  144OSM   H14B15781   2.127   2.986   5.667  1.4170  2.9092  1.2589
  144OSM   H14C15782   2.048   3.135   5.717 -2.1827  1.4110 -1.3334
  144OSM    C1315783   1.808   3.018   5.779  0.0215  0.8540  0.4000
  144OSM   H13A15784   1.820   3.123   5.758 -1.1819  1.2457  1.6440
  144OSM   H13B15785   1.761   3.007   5.876  0.2638  1.7472  0.6232
  144OSM   H13C15786   1.750   2.963   5.706  1.6476 -2.5200  1.5285
  144OSM    C1215787   2.000   2.974   5.927 -0.2648  0.5134  0.1711
  144OSM   H12A15788   2.033   3.075   5.947 -2.7346  0.6669  3.8546
  144OSM   H12B15789   2.089   2.913   5.933 -0.6882 -0.5689 -3.3615
  144OSM    C1115790   1.914   2.934   6.055  0.3652 -0.3460 -0.5292
  144OSM   H11A15791   1.975   2.930   6.147 -1.6830 -1.7108  0.8104
  144OSM   H11B15792   1.874   2.834   6.028 -2.3399  0.4621  0.3718
  144OSM      P15793   1.842   3.168   6.151 -0.2365  0.0533 -0.2889
  144OSM    O1315794   1.967   3.226   6.099 -0.3802  0.6741  0.3259
  144OSM    O1415795   1.721   3.253   6.146  0.1302 -0.4324 -0.0245
  144OSM    O1115796   1.868   3.109   6.293  0.2845 -0.2396  0.3758
  144OSM    O1215797   1.808   3.032   6.070 -0.0715  0.2831 -0.6862
  144OSM    C1S15798   1.867   3.178   6.416  0.3122  0.0737 -0.1256
  144OSM    H1S15799   1.782   3.250   6.416 -0.1027 -0.4173  0.9317
  144OSM    H1T15800   1.955   3.247   6.419  0.3383  0.0202  0.3666
  144OSM     NF15801   1.845   3.156   6.668 -0.1338 -0.4385  0.1802
  144OSM    HNF15802   1.926   3.164   6.725  1.3676 -1.5387 -1.7049
  144OSM    C2S15803   1.872   3.083   6.544  0.4506 -0.7712 -0.0402
  144OSM    H2S15804   1.787   3.013   6.533  0.7714 -1.2242  0.3349
  144OSM    C3S15805   2.012   3.009   6.539 -0.1556  0.4230 -0.8210
  144OSM    H3S15806   2.083   3.093   6.555  0.3539 -0.1778  0.1195
  144OSM     O315807   2.049   2.945   6.410  0.5298  0.2317  0.0151
  144OSM    HO315808   1.979   2.979   6.354  0.6270  2.0425  0.9443
  144OSM    C4S15809   2.025   2.904   6.645 -0.9071  0.4768 -0.3789
  144OSM    H4S15810   2.087   2.936   6.730 -0.2613 -0.8209 -0.3470
  144OSM    C5S15811   1.996   2.774   6.649 -0.1528  0.0605 -0.4639
  144OSM    H5S15812   1.947   2.725   6.564  1.8167  2.0388 -2.8465
  144OSM    C6S15813   2.003   2.680   6.766 -0.0169 -0.6504  0.1484
  144OSM    H6S15814   2.080   2.601   6.753  0.7011  0.2961 -1.5439
  144OSM    H6T15815   1.900   2.638   6.770 -0.2829  0.1698  2.2103
  144OSM    C7S15816   2.015   2.748   6.903 -0.2739 -0.0823  0.6011
  144OSM    H7S15817   1.946   2.835   6.915 -1.3163 -0.8679  0.3720
  144OSM    H7T15818   2.117   2.791   6.911  0.6558 -2.0130 -0.5664
  144OSM    C8S15819   1.996   2.648   7.019 -0.1422  0.4075 -0.4049
  144OSM    H8S15820   2.066   2.564   6.997 -1.4893 -0.8060 -0.2166
  144OSM    H8T15821   1.892   2.608   7.016 -0.1075  0.1404  1.3584
  144OSM    C9S15822   2.033   2.721   7.149 -0.6993 -0.3998 -0.3309
  144OSM    H9S15823   1.968   2.810   7.138  0.9086  0.6470 -1.5499
  144OSM    H9T15824   2.143   2.733   7.155 -0.5056 -0.8832 -2.4640
  144OSM   C10S15825   1.999   2.645   7.276 -0.4500 -0.3138  0.1184
  144OSM   H10S15826   2.047   2.546   7.278  1.5377  0.6318  3.4433
  144OSM   H10T15827   1.888   2.637   7.270 -0.3688 -0.6862 -0.9356
  144OSM   C11S15828   2.055   2.729   7.388  0.1934  0.1922 -0.1102
  144OSM   H11S15829   2.016   2.833   7.387  3.5337  1.5254 -2.2076
  144OSM   H11T15830   2.164   2.749   7.382  0.4387 -0.4235  1.8855
  144OSM   C12S15831   2.033   2.660   7.526 -0.3923 -0.2940  0.3197
  144OSM   H12S15832   2.113   2.584   7.535  0.7336  0.7193 -0.9409
  144OSM   H12T15833   1.933   2.613   7.527 -1.0760  1.0716 -1.3029
  144OSM   C13S15834   2.051   2.758   7.639 -0.8117 -0.7131 -0.0527
  144OSM   H13S15835   1.963   2.825   7.643 -1.4184 -1.4338 -0.9786
  144OSM   H13T15836   2.143   2.816   7.617 -1.8020  0.6042 -0.7804
  144OSM   C14S15837   2.078   2.697   7.781 -0.4934  0.5469  0.1182
  144OSM   H14S15838   2.186   2.669   7.787 -0.5327  0.8314  2.6745
  144OSM   H14T15839   2.021   2.602   7.782 -2.9367  1.9148 -1.9968
  144OSM   C15S15840   2.031   2.778   7.901  0.2375 -0.0466  0.1262
  144OSM   H15S15841   1.926   2.810   7.880 -0.1382 -1.1027  0.3557
  144OSM   H15T15842   2.088   2.872   7.914  0.1986  0.0108 -0.1147
  144OSM   C16S15843   2.015   2.689   8.027  0.8558 -0.1617 -0.1077
  144OSM   H16S15844   2.122   2.660   8.040  0.7746 -1.1274 -1.4665
  144OSM   H16T15845   1.941   2.608   8.009  0.0667  0.7068 -0.7719
  144OSM   C17S15846   1.964   2.776   8.151 -0.5713  0.1796  0.0817
  144OSM   H17S15847   1.883   2.723   8.204  0.2805 -2.1417 -0.8820
  144OSM   H17T15848   1.919   2.868   8.109  1.0211  0.4854 -1.0192
  144OSM   C18S15849   2.077   2.827   8.245 -0.8120  0.3516  0.1929
  144OSM   H18S15850   2.121   2.922   8.210 -1.0684  0.0893 -0.8517
  144OSM   H18T15851   2.163   2.758   8.263 -1.8034 -1.1154 -0.5877
  144OSM   H18U15852   2.038   2.857   8.345  1.6580  4.1137  0.0977
  144OSM    C1F15853   1.726   3.214   6.688  0.1457 -0.0857  0.0280
  144OSM     OF15854   1.635   3.175   6.619 -0.2560  0.8502  0.0036
  144OSM    C2F15855   1.709   3.310   6.802  0.3567  0.3793 -0.7281
  144OSM    H2F15856   1.656   3.404   6.775 -0.7524  0.9003  2.9503
  144OSM    H2G15857   1.807   3.354   6.830 -0.2486  1.2430  0.0558
  144OSM    C3F15858   1.632   3.243   6.917  0.2176 -0.0639  0.1787
  144OSM    H3F15859   1.693   3.158   6.955  0.4553  0.4892  1.0331
  144OSM    H3G15860   1.534   3.202   6.885  1.2487 -1.5097 -1.1860
  144OSM    C4F15861   1.607   3.334   7.041  0.3660 -0.3238  0.2990
  144OSM    H4F15862   1.522   3.399   7.010 -1.1604 -2.6073 -0.3789
  144OSM    H4G15863   1.703   3.385   7.063 -0.2547  0.3015  1.6262
  144OSM    C5F15864   1.564   3.244   7.158 -0.3294 -0.0234 -0.5587
  144OSM    H5F15865   1.641   3.172   7.192  0.8722  2.2766  1.7339
  144OSM    H5G15866   1.470   3.195   7.122  0.8960 -2.6142 -0.3272
  144OSM    C6F15867   1.534   3.336   7.287  0.3857  0.4795  0.1780
  144OSM    H6F15868   1.431   3.376   7.283 -0.1337 -0.7140  1.2954
  144OSM    H6G15869   1.604   3.423   7.287  2.5317 -1.1676 -1.7755
  144OSM    C7F15870   1.538   3.251   7.417  0.0899 -0.8369  0.1885
  144OSM    H7F15871   1.642   3.214   7.432  1.0114  1.1972 -0.9765
  144OSM    H7G15872   1.476   3.159   7.414 -2.0544  0.5791 -0.7287
  144OSM    C8F15873   1.500   3.348   7.531  0.0432 -0.4737  0.3538
  144OSM    H8F15874   1.508   3.292   7.627 -0.1461  2.2644  2.0254
  144OSM    H8G15875   1.391   3.369   7.521  0.0960 -1.2953 -2.1775
  144OSM    C9F15876   1.566   3.482   7.545  0.2044  0.0616 -0.8173
  144OSM    H9F15877   1.558   3.541   7.453 -0.7773 -2.0523 -2.1130
  144OSM   C10F15878   1.617   3.539   7.658 -0.3934 -0.0660  0.2462
  144OSM   H10F15879   1.656   3.641   7.655  0.3867 -0.2914  1.8149
  144OSM   C11F15880   1.630   3.471   7.789 -0.3573  0.2209  0.1886
  144OSM   H11F15881   1.729   3.490   7.835  0.1183 -0.4993 -0.5464
  144OSM   H11G15882   1.622   3.361   7.779  0.6166  0.1400  0.2399
  144OSM   C12F15883   1.521   3.534   7.881 -0.0655  0.4987 -0.4215
  144OSM   H12F15884   1.418   3.514   7.845 -0.4065  0.4783  0.5431
  144OSM   H12G15885   1.542   3.643   7.870  0.4101  0.6783  1.8983
  144OSM   C13F15886   1.524   3.500   8.027  0.0031 -0.7919 -0.5645
  144OSM   H13F15887   1.456   3.571   8.080  1.4033 -0.6666  1.0968
  144OSM   H13G15888   1.629   3.514   8.059  0.0876 -0.6599 -0.8944
  144OSM   C14F15889   1.456   3.360   8.046  0.2137  0.5929 -0.0276
  144OSM   H14F15890   1.495   3.288   7.971 -0.6346  0.8434 -0.7312
  144OSM   H14G15891   1.350   3.374   8.014 -0.0613  1.4740  1.2499
  144OSM   C15F15892   1.453   3.313   8.187  0.1834 -0.2993 -0.2055
  144OSM   H15F15893   1.557   3.298   8.225 -0.3862 -0.3910  1.3394
  144OSM   H15G15894   1.403   3.214   8.190  1.5740 -1.1545 -3.1827
  144OSM   C16F15895   1.381   3.412   8.288  0.3925  0.3651 -0.5669
  144OSM   H16F15896   1.278   3.447   8.263  1.0870  2.9503  0.0251
  144OSM   H16G15897   1.447   3.501   8.282  0.9268 -0.0560 -0.9968
  144OSM   C17F15898   1.384   3.365   8.427 -0.0280 -0.0637  0.5377
  144OSM   H17F15899   1.324   3.440   8.483  0.8294  0.4080  0.8311
  144OSM   H17G15900   1.486   3.368   8.471  0.2692  0.6803 -0.1775
  144OSM   C18F15901   1.330   3.229   8.463 -0.2387 -0.1526 -0.4537
  144OSM   H18F15902   1.318   3.229   8.573 -0.5471  0.0940 -0.4870
  144OSM   H18G15903   1.387   3.137   8.439 -0.8167 -0.3707 -1.0321
  144OSM   H18H15904   1.227   3.212   8.423 -0.0517 -0.8258 -0.6534
  145SAPE     N15905   0.631   3.946  10.876  0.4308  0.9992  0.2502
  145SAPE   HN115906   0.700   3.883  10.921  1.5760  1.6847 -0.5045
  145SAPE   HN215907   0.631   4.022  10.947 -1.7463 -0.0753  1.4302
  145SAPE   HN315908   0.534   3.910  10.882  0.4383  1.0258  0.5441
  145SAPE   C1215909   0.662   3.984  10.735  0.2633  0.5516  0.4299
  145SAPE  H12A15910   0.765   4.026  10.737 -0.4625  2.5654 -2.0795
  145SAPE  H12B15911   0.589   4.063  10.706 -0.2833  0.1467  0.6960
  145SAPE   C1115912   0.628   3.876  10.630  0.5991  0.1229 -0.0968
  145SAPE  H11A15913   0.626   3.920  10.528 -2.8040  0.2400 -0.0243
  145SAPE  H11B15914   0.521   3.847  10.632  1.0656 -1.6074  0.9359
  145SAPE     P15915   0.853   3.754  10.591 -0.0953 -0.0970 -0.0865
  145SAPE   O1315916   0.883   3.889  10.538 -0.1461  0.0017  0.1713
  145SAPE   O1415917   0.940   3.690  10.699 -0.4604  0.1276 -0.0751
  145SAPE   O1215918   0.703   3.754  10.640 -0.0720  0.9154  0.2624
  145SAPE   O1115919   0.843   3.649  10.478  0.2946 -0.2079  0.1530
  145SAPE    C115920   0.755   3.675  10.367 -0.3439  0.1131 -0.6599
  145SAPE    HA15921   0.665   3.610  10.374 -1.2480  1.3881 -0.2188
  145SAPE    HB15922   0.717   3.779  10.365  0.2343  0.3107 -1.7948
  145SAPE    C215923   0.830   3.639  10.234  0.3151  0.4353  0.2746
  145SAPE    HS15924   0.915   3.711  10.227  0.5624  0.2555  1.4162
  145SAPE   O2115925   0.736   3.651  10.123  0.3983  0.0760  0.0736
  145SAPE   C2115926   0.726   3.780  10.091 -0.1708 -0.9017  0.0262
  145SAPE   O2215927   0.782   3.867  10.158 -0.5702  0.0558 -0.1698
  145SAPE   C2215928   0.639   3.796   9.971 -0.1641  0.9655  0.2412
  145SAPE   H2R15929   0.611   3.697   9.928 -0.5666  1.1718  0.0375
  145SAPE   H2S15930   0.544   3.843  10.003 -0.8493  0.1810 -0.6204
  145SAPE    C315931   0.903   3.504  10.229  0.8055  0.3636  0.3041
  145SAPE    HX15932   0.836   3.419  10.256  1.9237  0.1815  2.6494
  145SAPE    HY15933   0.991   3.495  10.297  0.7455  1.6769  0.5669
  145SAPE   O3115934   0.942   3.477  10.095  0.4422  0.3776  0.2326
  145SAPE   C3115935   1.056   3.522  10.048 -0.0998 -0.6065  0.1586
  145SAPE   O3215936   1.150   3.561  10.111 -0.0476  0.3649 -0.7521
  145SAPE   C3215937   1.050   3.536   9.891 -0.5553 -0.2052  0.1174
  145SAPE   H2X15938   1.148   3.499   9.853 -2.2796 -4.2441 -0.7126
  145SAPE   H2Y15939   1.032   3.643   9.868  1.4964 -0.2429 -1.8577
  145SAPE   C2315940   0.703   3.892   9.876  0.1559 -0.8902 -0.1534
  145SAPE   H3R15941   0.792   3.841   9.834 -1.1232 -4.5413  1.2933
  145SAPE   H3S15942   0.742   3.987   9.917  0.1597 -1.2283  0.6232
  145SAPE   C2415943   0.613   3.939   9.760  0.3691  0.7295  1.0473
  145SAPE   H4R15944   0.679   4.004   9.698  0.9623 -1.2195 -0.4200
  145SAPE   H4S15945   0.535   4.008   9.798  0.3812  0.1936  2.0455
  145SAPE   C2515946   0.559   3.822   9.691 -0.7506  0.8226 -0.3982
  145SAPE   H5R15947   0.485   3.764   9.748 -0.5800  0.5805 -0.4219
  145SAPE   C2615948   0.587   3.792   9.563 -0.0936  0.4829  0.4532
  145SAPE   H6R15949   0.551   3.699   9.517  0.5957  1.5313 -2.3219
  145SAPE   C2715950   0.683   3.864   9.465  0.1318  0.5429 -1.0130
  145SAPE   H7R15951   0.709   3.792   9.385  0.0140 -0.9134  0.2450
  145SAPE   H7S15952   0.776   3.894   9.517  0.1783  0.0301 -0.7982
  145SAPE   C2815953   0.620   3.986   9.397  0.0274  0.4529 -0.0663
  145SAPE   H8R15954   0.591   4.070   9.462 -0.4022 -0.7039  1.2590
  145SAPE   C2915955   0.614   4.011   9.267 -0.2093 -0.5096  0.3623
  145SAPE   H9R15956   0.553   4.098   9.238  0.6172 -0.5099 -1.4390
  145SAPE  C21015957   0.666   3.926   9.157  0.1918 -0.1425 -0.0898
  145SAPE  H10R15958   0.608   3.833   9.141  0.8166 -0.3870 -0.9975
  145SAPE  H10S15959   0.767   3.887   9.184 -0.0400  0.0324  1.0347
  145SAPE  C21115960   0.688   3.993   9.019 -0.4294  0.0466  0.5381
  145SAPE  H11R15961   0.607   3.970   8.948 -0.4181  1.5522  0.0202
  145SAPE  C21215962   0.789   4.066   8.971 -0.1241  0.0448  0.2928
  145SAPE  H12R15963   0.789   4.104   8.867 -2.3972  2.4315  1.1157
  145SAPE  C21315964   0.909   4.106   9.051  0.1215 -0.6611  0.7926
  145SAPE  H13R15965   0.864   4.148   9.144 -1.0106  0.6373 -0.3265
  145SAPE  H13S15966   0.968   4.191   9.010  0.3270 -0.6661  1.0753
  145SAPE  C21415967   0.998   3.987   9.083 -0.1623 -0.0351  0.5812
  145SAPE  H14R15968   0.961   3.888   9.050  0.8462 -0.0847 -0.4422
  145SAPE  C21515969   1.110   3.994   9.154 -0.7699 -0.3768 -0.7436
  145SAPE  H15R15970   1.170   3.903   9.167 -1.0979 -0.6276 -0.9487
  145SAPE  C21615971   1.172   4.115   9.214 -0.3432  0.6689  0.1495
  145SAPE  H16R15972   1.138   4.211   9.169  0.6630  0.6548 -0.6662
  145SAPE  H16S15973   1.277   4.120   9.179 -0.8943  1.5334 -1.4542
  145SAPE  C21715974   1.153   4.125   9.363  0.8564  0.3678  0.0393
  145SAPE  H17R15975   1.202   4.212   9.410 -1.0215  1.5085 -0.0452
  145SAPE  H17S15976   1.193   4.032   9.410  1.0379  1.5268  2.2295
  145SAPE  C21815977   1.002   4.141   9.403  0.4261 -0.2249 -0.0961
  145SAPE  H18R15978   0.965   4.037   9.393  0.4739 -0.3716  1.0646
  145SAPE  H18S15979   0.952   4.204   9.327  1.3274 -0.4215 -0.8586
  145SAPE  C21915980   0.991   4.196   9.549 -0.0238  0.1918  0.2823
  145SAPE  H19R15981   1.065   4.278   9.561  0.8800 -0.4233 -1.0754
  145SAPE  H19S15982   1.007   4.116   9.625 -0.5265  1.5948  1.9229
  145SAPE  C22015983   0.844   4.244   9.555  1.1003 -0.2403 -0.2931
  145SAPE  H20R15984   0.807   4.299   9.645  0.4030  0.1588 -0.8197
  145SAPE  H20S15985   0.789   4.147   9.556 -0.5522  0.6773  0.8688
  145SAPE  H20T15986   0.820   4.302   9.464 -1.2178 -1.1621 -0.3043
  145SAPE   C3315987   0.961   3.435   9.818 -0.2227 -0.3057  0.4198
  145SAPE   H3X15988   0.854   3.454   9.841  0.5179  0.9877  2.9379
  145SAPE   H3Y15989   0.984   3.330   9.845 -1.1256 -0.6328 -0.0547
  145SAPE   C3415990   0.977   3.442   9.667  0.5110  0.3300  0.1538
  145SAPE   H4X15991   0.960   3.339   9.629  0.2250  0.6387 -0.5643
  145SAPE   H4Y15992   1.083   3.468   9.644  0.6778  0.0805  0.6206
  145SAPE   C3515993   0.887   3.534   9.588  0.0992 -0.1618 -0.1712
  145SAPE   H5X15994   0.894   3.640   9.622  0.6829  0.2189 -1.4230
  145SAPE   H5Y15995   0.783   3.496   9.597 -0.5834  0.7525 -3.3207
  145SAPE   C3615996   0.914   3.521   9.438 -0.2939 -0.4748  0.6446
  145SAPE   H6X15997   0.824   3.561   9.386 -0.1885 -0.1508  0.7146
  145SAPE   H6Y15998   0.917   3.416   9.402 -1.6868  0.2758 -1.8196
  145SAPE   C3715999   1.041   3.585   9.386 -0.0777 -0.1784  0.3919
  145SAPE   H7X16000   1.126   3.527   9.428  1.8810  1.5971 -1.0179
  145SAPE   H7Y16001   1.053   3.691   9.414 -1.1832  0.4488 -1.4539
  145SAPE   C3816002   1.058   3.596   9.231 -0.3904  0.5033  0.1560
  145SAPE   H8X16003   0.990   3.669   9.182  0.4766  1.2621  0.0578
  145SAPE   H8Y16004   1.026   3.495   9.198 -0.8423  0.7435 -0.1429
  145SAPE   C3916005   1.207   3.612   9.196  0.4611  0.0002  0.2639
  145SAPE   H9X16006   1.269   3.549   9.263 -0.3966 -1.4941 -0.3222
  145SAPE   H9Y16007   1.214   3.718   9.228  0.1511 -0.8057  3.1231
  145SAPE  C31016008   1.233   3.577   9.044 -0.7779 -0.2295 -0.3287
  145SAPE  H10X16009   1.199   3.660   8.979 -0.3152  0.1084 -0.1421
  145SAPE  H10Y16010   1.181   3.479   9.034 -2.6546  0.2985  3.5437
  145SAPE  C31116011   1.385   3.545   9.009 -0.0366  0.3956 -0.0147
  145SAPE  H11X16012   1.425   3.464   9.074 -1.5285  0.5857  1.1895
  145SAPE  H11Y16013   1.441   3.638   9.033 -0.2267  0.2778  0.9199
  145SAPE  C31216014   1.387   3.505   8.858  0.8947 -0.6579  0.3363
  145SAPE  H12X16015   1.332   3.586   8.805  0.8898 -0.8139  0.1012
  145SAPE  H12Y16016   1.335   3.411   8.832 -1.2457 -0.8789  4.9957
  145SAPE  C31316017   1.528   3.511   8.802 -0.5276  0.4767 -0.1016
  145SAPE  H13X16018   1.524   3.434   8.722 -0.5567  1.8736 -1.4529
  145SAPE  H13Y16019   1.604   3.471   8.873  1.0060  0.2617 -1.8274
  145SAPE  C31416020   1.587   3.655   8.750  0.2767  0.6961  0.4450
  145SAPE  H14X16021   1.693   3.637   8.721  0.5403  3.2535 -0.3149
  145SAPE  H14Y16022   1.589   3.727   8.834  1.7593  0.0416  0.9848
  145SAPE  C31516023   1.518   3.704   8.623 -0.4340  0.7344 -0.5579
  145SAPE  H15X16024   1.421   3.741   8.663 -0.0951 -1.6422  2.6621
  145SAPE  H15Y16025   1.494   3.616   8.560  2.3978 -0.4724 -0.0037
  145SAPE  C31616026   1.592   3.802   8.545  0.5243 -0.3124  0.0199
  145SAPE  H16X16027   1.629   3.886   8.607  0.2843  0.0502 -0.3228
  145SAPE  H16Y16028   1.507   3.839   8.485  1.2650  1.9701  0.3520
  145SAPE  C31716029   1.704   3.744   8.462  0.0923 -0.3367  0.3905
  145SAPE  H17X16030   1.665   3.660   8.401 -1.9975  0.6227  0.3309
  145SAPE  H17Y16031   1.783   3.702   8.528 -0.6307 -1.2583  0.6772
  145SAPE  C31816032   1.768   3.846   8.364  0.8599  0.5810 -0.6160
  145SAPE  H18X16033   1.843   3.788   8.305 -0.2430 -1.1266 -0.3835
  145SAPE  H18Y16034   1.829   3.926   8.410  0.9381  0.1003  0.1173
  145SAPE  H18Z16035   1.694   3.899   8.301 -1.5689 -0.6788  1.1126
  146SAPE     N16036   0.307   4.982  10.681 -0.0151  0.2819 -0.2210
  146SAPE   HN116037   0.397   5.032  10.697 -0.1837  0.2416  0.8629
  146SAPE   HN216038   0.233   5.031  10.733 -0.8700  0.6392 -1.7484
  146SAPE   HN316039   0.319   4.885  10.718  2.2545  1.6167  2.7109
  146SAPE   C1216040   0.265   4.972  10.534  0.5297 -0.2285  0.2776
  146SAPE  H12A16041   0.352   4.931  10.479 -0.7389 -0.0682 -1.9145
  146SAPE  H12B16042   0.238   5.078  10.516  0.2386 -0.1915  0.8950
  146SAPE   C1116043   0.147   4.874  10.517 -0.7340  0.2521 -0.2606
  146SAPE  H11A16044   0.179   4.769  10.531 -0.0510  0.3139 -1.2301
  146SAPE  H11B16045   0.112   4.882  10.411  0.7520 -1.6293 -0.9120
  146SAPE     P16046  -0.112   4.834  10.559 -0.1414 -0.2357  0.1707
  146SAPE   O1316047  -0.084   4.693  10.519 -0.3388 -0.1854  0.1630
  146SAPE   O1416048  -0.210   4.855  10.672  0.2215 -0.3862  0.3869
  146SAPE   O1216049   0.033   4.903  10.598 -0.1728  0.2025 -0.0929
  146SAPE   O1116050  -0.158   4.913  10.433 -0.5134  0.9249  0.1025
  146SAPE    C116051  -0.235   5.033  10.451  0.3797  1.2299 -0.2105
  146SAPE    HA16052  -0.341   5.021  10.422  0.7309 -0.1491 -1.0034
  146SAPE    HB16053  -0.236   5.073  10.555 -1.1184  0.1600  0.1992
  146SAPE    C216054  -0.171   5.136  10.363 -0.1131 -0.6120 -0.5895
  146SAPE    HS16055  -0.231   5.229  10.356  1.8681  0.6258 -1.5363
  146SAPE   O2116056  -0.150   5.082  10.231 -0.8564 -0.4335  0.1763
  146SAPE   C2116057  -0.254   5.048  10.171  0.0536  0.8156  0.0929
  146SAPE   O2216058  -0.371   5.081  10.202 -0.6030 -0.3462  0.5701
  146SAPE   C2216059  -0.219   4.978  10.046 -0.1421 -0.0127 -0.0750
  146SAPE   H2R16060  -0.110   4.961  10.035 -0.3377 -1.7807  0.4074
  146SAPE   H2S16061  -0.265   4.877  10.056 -0.7116  0.1904 -0.5728
  146SAPE    C316062  -0.028   5.180  10.416  0.6015 -0.6794 -0.2877
  146SAPE    HX16063   0.030   5.086  10.409  0.1316 -1.1709  1.9932
  146SAPE    HY16064  -0.042   5.222  10.518  1.8573 -0.3913 -0.2241
  146SAPE   O3116065   0.026   5.288  10.343 -0.4986  0.1288  0.0093
  146SAPE   C3116066   0.146   5.281  10.291  0.8455 -0.9563 -0.3241
  146SAPE   O3216067   0.226   5.187  10.298 -0.2990 -0.2358  0.5490
  146SAPE   C3216068   0.175   5.410  10.216 -0.6545  0.1941  0.7286
  146SAPE   H2X16069   0.234   5.472  10.288 -3.5081 -0.3715  3.6930
  146SAPE   H2Y16070   0.080   5.468  10.208 -1.8032 -1.6494  0.7507
  146SAPE   C2316071  -0.276   5.035   9.923 -0.4359  0.7924  0.6556
  146SAPE   H3R16072  -0.387   5.030   9.925 -0.4700  1.3379  0.1924
  146SAPE   H3S16073  -0.252   4.961   9.844 -0.3931  0.8626  0.6027
  146SAPE   C2416074  -0.213   5.169   9.883 -0.0565 -0.1990 -0.7148
  146SAPE   H4R16075  -0.103   5.163   9.878 -0.0146  0.9783 -1.4526
  146SAPE   H4S16076  -0.232   5.242   9.964 -1.8753 -0.0854 -1.2084
  146SAPE   C2516077  -0.266   5.244   9.765 -0.0127  0.3184  0.0352
  146SAPE   H5R16078  -0.323   5.337   9.781 -1.4468 -0.7633  1.4148
  146SAPE   C2616079  -0.256   5.203   9.632 -0.1944 -0.5771  0.0340
  146SAPE   H6R16080  -0.294   5.270   9.554 -0.2665 -0.8957 -0.2058
  146SAPE   C2716081  -0.197   5.070   9.590 -0.3282 -0.7081 -0.4577
  146SAPE   H7R16082  -0.282   5.003   9.566 -2.0822  1.7069 -1.0893
  146SAPE   H7S16083  -0.148   5.020   9.676  1.2543  0.8588 -0.4320
  146SAPE   C2816084  -0.101   5.069   9.471 -0.6159  0.8347 -0.0798
  146SAPE   H8R16085   0.001   5.097   9.502  0.0166 -0.4795 -0.8744
  146SAPE   C2916086  -0.131   5.031   9.344  0.4432 -0.8060 -0.6181
  146SAPE   H9R16087  -0.055   5.022   9.265  1.4133 -3.3599  0.5363
  146SAPE  C21016088  -0.277   5.007   9.294  0.6954 -0.0570 -0.0669
  146SAPE  H10R16089  -0.341   5.051   9.374  1.5776  1.9787 -0.4654
  146SAPE  H10S16090  -0.298   4.897   9.297 -0.3447  0.1422  0.4870
  146SAPE  C21116091  -0.321   5.073   9.169 -0.3361 -0.5027 -0.2872
  146SAPE  H11R16092  -0.336   5.181   9.172 -3.2557 -0.7863 -2.7691
  146SAPE  C21216093  -0.329   5.005   9.051 -0.7359 -0.4441 -0.4110
  146SAPE  H12R16094  -0.367   5.053   8.959 -1.1244  0.0908  0.0247
  146SAPE  C21316095  -0.309   4.855   9.039 -0.2757  0.8663 -0.9419
  146SAPE  H13R16096  -0.399   4.798   9.072  0.4381  0.3487  0.1321
  146SAPE  H13S16097  -0.227   4.821   9.106 -0.1725  1.7498 -0.6216
  146SAPE  C21416098  -0.291   4.804   8.895 -0.8542  0.1980 -0.8598
  146SAPE  H14R16099  -0.188   4.765   8.883  0.6047  3.6596 -0.2562
  146SAPE  C21516100  -0.372   4.794   8.793  0.4277 -0.0581  0.0555
  146SAPE  H15R16101  -0.341   4.758   8.693  2.5829  3.1486 -0.4954
  146SAPE  C21616102  -0.515   4.838   8.782  0.4470  0.6544  0.2842
  146SAPE  H16R16103  -0.513   4.930   8.719  1.4246  0.3240 -0.1829
  146SAPE  H16S16104  -0.560   4.875   8.876  1.1804  0.8340  0.5713
  146SAPE  C21716105  -0.597   4.725   8.728  0.3042  0.4288  0.3579
  146SAPE  H17R16106  -0.550   4.702   8.630 -2.0836  2.2501 -1.2838
  146SAPE  H17S16107  -0.705   4.749   8.724  0.1254 -0.4927 -0.7695
  146SAPE  C21816108  -0.572   4.597   8.810  0.2303  0.2675 -0.1719
  146SAPE  H18R16109  -0.588   4.625   8.916  1.4447  0.8966 -0.1357
  146SAPE  H18S16110  -0.474   4.545   8.801 -0.6803 -1.5908  0.5087
  146SAPE  C21916111  -0.685   4.494   8.788  1.0462 -0.0175  0.0061
  146SAPE  H19R16112  -0.778   4.550   8.809  0.3838 -0.4554 -1.6821
  146SAPE  H19S16113  -0.666   4.405   8.852 -0.4693 -0.6215 -0.3815
  146SAPE  C22016114  -0.693   4.449   8.639 -0.5533  0.1027 -0.6179
  146SAPE  H20R16115  -0.600   4.403   8.597 -1.1451 -2.5896  0.9261
  146SAPE  H20S16116  -0.727   4.534   8.576 -2.1347  0.5722  0.8449
  146SAPE  H20T16117  -0.777   4.377   8.631  0.0109 -0.5335 -0.9385
  146SAPE   C3316118   0.246   5.397  10.084 -0.0730 -0.3255  0.7796
  146SAPE   H3X16119   0.331   5.325  10.082 -0.3882 -0.6922  0.6639
  146SAPE   H3Y16120   0.295   5.495  10.065  0.6100 -1.1904 -2.0964
  146SAPE   C3416121   0.151   5.358   9.973 -0.7481  1.1570 -0.0047
  146SAPE   H4X16122   0.085   5.444   9.951 -1.9500  0.0602 -0.7775
  146SAPE   H4Y16123   0.095   5.268  10.007  0.7224  0.5890  1.0053
  146SAPE   C3516124   0.220   5.331   9.835 -0.0159  0.5393 -0.3738
  146SAPE   H5X16125   0.284   5.241   9.830 -0.6372  0.1172 -0.7901
  146SAPE   H5Y16126   0.286   5.418   9.818 -1.5438  2.1893  1.8603
  146SAPE   C3616127   0.118   5.299   9.724  0.7187 -0.2740  0.3485
  146SAPE   H6X16128   0.027   5.360   9.740 -0.5250 -2.7045  2.8108
  146SAPE   H6Y16129   0.093   5.191   9.733  0.8813 -0.2729  0.8220
  146SAPE   C3716130   0.160   5.341   9.583  0.6249 -0.2977 -0.0359
  146SAPE   H7X16131   0.169   5.452   9.581  0.8548 -0.2690  1.8339
  146SAPE   H7Y16132   0.065   5.317   9.531  0.2635 -2.1070  1.4044
  146SAPE   C3816133   0.270   5.266   9.512 -0.4947 -0.3264 -0.3570
  146SAPE   H8X16134   0.243   5.158   9.519 -0.0661 -0.4242 -0.2057
  146SAPE   H8Y16135   0.358   5.274   9.579 -2.9812  0.2018  2.9441
  146SAPE   C3916136   0.284   5.312   9.364 -0.4381 -0.2297  1.0216
  146SAPE   H9X16137   0.376   5.280   9.312  1.2271 -0.0093  3.7369
  146SAPE   H9Y16138   0.282   5.423   9.371  1.5834 -0.1014 -0.2906
  146SAPE  C31016139   0.178   5.263   9.271 -0.3375 -1.0968  0.4663
  146SAPE  H10X16140   0.074   5.288   9.304  0.0911  1.1653  0.1659
  146SAPE  H10Y16141   0.183   5.153   9.289  1.0546 -1.1925 -0.5259
  146SAPE  C31116142   0.190   5.284   9.122 -0.5749 -0.1436  0.7166
  146SAPE  H11X16143   0.297   5.269   9.098 -0.8569  1.0407 -1.4196
  146SAPE  H11Y16144   0.165   5.386   9.085  3.1012  0.1906 -1.0045
  146SAPE  C31216145   0.113   5.185   9.046 -0.0288  0.0932  0.4971
  146SAPE  H12X16146   0.006   5.185   9.076  0.1529  0.6596  1.1610
  146SAPE  H12Y16147   0.157   5.089   9.081  1.3716  0.9401  1.0774
  146SAPE  C31316148   0.119   5.205   8.898 -0.1044 -0.9899 -0.2387
  146SAPE  H13X16149   0.226   5.204   8.868 -0.7273 -4.5437 -2.6328
  146SAPE  H13Y16150   0.057   5.291   8.865  1.0892 -0.2628 -0.6291
  146SAPE  C31416151   0.054   5.085   8.829  0.2637  0.1843  0.4247
  146SAPE  H14X16152  -0.049   5.081   8.869 -0.1719 -1.6142 -0.7969
  146SAPE  H14Y16153   0.113   4.994   8.855  0.8614  0.0849 -1.2150
  146SAPE  C31516154   0.058   5.093   8.678 -0.2579  0.4331  0.0796
  146SAPE  H15X16155   0.161   5.082   8.638  0.4442 -3.4354  2.6293
  146SAPE  H15Y16156   0.034   5.197   8.647  0.6079  0.1967 -1.4529
  146SAPE  C31616157  -0.034   4.996   8.605 -0.1345  0.0123  0.1091
  146SAPE  H16X16158  -0.057   4.908   8.669 -2.2521 -0.1846 -0.8602
  146SAPE  H16Y16159   0.004   4.962   8.506 -1.1649  0.0842 -0.3207
  146SAPE  C31716160  -0.174   5.054   8.598  0.3413 -0.7445  0.4819
  146SAPE  H17X16161  -0.210   5.095   8.695  0.6545 -1.3102  0.8409
  146SAPE  H17Y16162  -0.245   4.971   8.576  2.1103 -1.3381 -3.4046
  146SAPE  C31816163  -0.184   5.166   8.498  0.1284 -0.5905 -0.4033
  146SAPE  H18X16164  -0.145   5.125   8.402 -0.4618 -1.8219 -0.1389
  146SAPE  H18Y16165  -0.127   5.254   8.533 -0.9595 -0.0074 -0.0776
  146SAPE  H18Z16166  -0.287   5.205   8.480  0.6458 -0.2201 -2.7646
  147SAPE     N16167   0.640   0.879  10.890  0.1031  0.2290  0.1336
  147SAPE   HN116168   0.589   0.862  10.800  0.9327  1.7138 -0.6437
  147SAPE   HN216169   0.576   0.868  10.971 -2.3190  2.1301 -1.4673
  147SAPE   HN316170   0.681   0.974  10.892  0.6815 -0.0432  1.2850
  147SAPE   C1216171   0.754   0.784  10.919  0.2243  0.0363  1.0423
  147SAPE  H12A16172   0.830   0.787  10.838 -0.8489  0.0959  0.0414
  147SAPE  H12B16173   0.715   0.688  10.957 -0.0213  0.1461  1.0672
  147SAPE   C1116174   0.824   0.850  11.048 -0.1934  0.3463  0.4606
  147SAPE  H11A16175   0.911   0.784  11.063  0.3541  1.0565  0.4581
  147SAPE  H11B16176   0.755   0.835  11.134  0.5628 -0.3748  0.9434
  147SAPE     P16177   1.007   1.023  10.986 -0.2469 -0.4907  0.1876
  147SAPE   O1316178   1.004   1.153  10.926  0.3840 -0.5069  0.7174
  147SAPE   O1416179   1.082   1.011  11.113  0.0074 -0.7141  0.3000
  147SAPE   O1216180   0.852   0.988  11.024 -0.2132 -0.2521 -0.1566
  147SAPE   O1116181   1.052   0.919  10.879  0.1029 -0.1077 -0.2619
  147SAPE    C116182   1.190   0.909  10.851  0.5313 -0.2377  0.0870
  147SAPE    HA16183   1.248   1.002  10.870  0.3524  0.6880 -3.3995
  147SAPE    HB16184   1.230   0.834  10.922  0.1833 -0.4962  0.0087
  147SAPE    C216185   1.240   0.855  10.707 -0.0603  0.5760 -0.1678
  147SAPE    HS16186   1.349   0.835  10.703  0.1029  1.5338 -0.6080
  147SAPE   O2116187   1.200   0.939  10.595  0.2456  0.0576 -0.6046
  147SAPE   C2116188   1.282   1.042  10.576 -0.9111 -0.7910  0.0641
  147SAPE   O2216189   1.375   1.073  10.649  0.2412  0.1603  0.3872
  147SAPE   C2216190   1.257   1.103  10.435 -0.1994 -0.0954 -0.7694
  147SAPE   H2R16191   1.233   1.014  10.374  0.9303 -0.1181 -1.1917
  147SAPE   H2S16192   1.170   1.170  10.451  0.0504  0.4045 -1.4969
  147SAPE    C316193   1.169   0.716  10.690 -0.8154 -0.2995  0.5417
  147SAPE    HX16194   1.060   0.736  10.696 -0.9661 -1.3648  1.7839
  147SAPE    HY16195   1.196   0.641  10.768  1.5546  1.0050  1.0230
  147SAPE   O3116196   1.203   0.658  10.562  0.1610 -0.4065  0.4136
  147SAPE   C3116197   1.142   0.542  10.551 -0.1889  0.3246  0.8828
  147SAPE   O3216198   1.069   0.485  10.633 -0.0332  0.1244  0.2908
  147SAPE   C3216199   1.153   0.483  10.413 -0.3453 -0.0412 -0.3143
  147SAPE   H2X16200   1.254   0.439  10.403 -0.3291  0.0591 -0.5984
  147SAPE   H2Y16201   1.143   0.568  10.342  1.5662  2.1738  1.9825
  147SAPE   C2316202   1.374   1.195  10.382 -0.0822 -0.3639 -0.4342
  147SAPE   H3R16203   1.474   1.167  10.419 -0.1520  0.2083  0.1891
  147SAPE   H3S16204   1.357   1.289  10.439  0.7886 -0.0594 -0.6765
  147SAPE   C2416205   1.375   1.203  10.234 -0.3584  0.3008  0.2816
  147SAPE   H4R16206   1.448   1.280  10.202  0.4081 -0.9768 -1.1182
  147SAPE   H4S16207   1.273   1.242  10.214 -0.7523 -1.3818 -1.0826
  147SAPE   C2516208   1.428   1.080  10.161  0.2251 -0.3954 -0.1747
  147SAPE   H5R16209   1.529   1.045  10.186 -0.4540 -2.1700  0.1461
  147SAPE   C2616210   1.355   1.013  10.063  0.5813 -0.0995 -0.1761
  147SAPE   H6R16211   1.383   0.922  10.009  1.5505  0.3531 -0.4434
  147SAPE   C2716212   1.218   1.050  10.021  0.5394 -0.2885 -0.1683
  147SAPE   H7R16213   1.152   1.067  10.109  0.8700  0.0169  0.0233
  147SAPE   H7S16214   1.166   0.955   9.994  0.1244 -0.5184  1.3645
  147SAPE   C2816215   1.208   1.155   9.917 -0.6061  0.1272 -0.0931
  147SAPE   H8R16216   1.219   1.260   9.950  4.4684 -0.6478  1.1546
  147SAPE   C2916217   1.189   1.137   9.782  0.0549  0.4863 -0.2715
  147SAPE   H9R16218   1.190   1.229   9.721  0.1546 -1.1257 -2.7538
  147SAPE  C21016219   1.176   1.009   9.706 -0.3847  0.0940 -0.4577
  147SAPE  H10R16220   1.095   1.029   9.633  1.2756  1.9424 -1.8440
  147SAPE  H10S16221   1.151   0.916   9.762  1.1740 -1.5235 -2.3543
  147SAPE  C21116222   1.308   0.984   9.629 -0.5248  0.0597 -0.1209
  147SAPE  H11R16223   1.388   0.939   9.689  1.0099  1.7003 -0.9154
  147SAPE  C21216224   1.345   1.017   9.504 -0.0408  0.6215 -0.3223
  147SAPE  H12R16225   1.440   0.990   9.456 -0.3953 -0.9688 -0.1462
  147SAPE  C21316226   1.249   1.094   9.413 -0.2411 -0.0240  0.3510
  147SAPE  H13R16227   1.308   1.171   9.358 -2.2922  0.7809 -0.7417
  147SAPE  H13S16228   1.172   1.139   9.479  0.1753  1.9197 -0.4310
  147SAPE  C21416229   1.181   0.991   9.325 -0.1956  0.4602 -0.4443
  147SAPE  H14R16230   1.102   0.940   9.382  0.0932 -0.2054 -0.6329
  147SAPE  C21516231   1.200   0.967   9.193  0.5970 -0.5111  0.0799
  147SAPE  H15R16232   1.134   0.893   9.145 -3.1619  1.2005  2.3781
  147SAPE  C21616233   1.299   1.045   9.109 -0.4802 -0.2118  0.1185
  147SAPE  H16R16234   1.367   1.102   9.176  0.2742 -0.0786 -0.7557
  147SAPE  H16S16235   1.260   1.125   9.042  0.7534 -0.8819 -1.3992
  147SAPE  C21716236   1.393   0.966   9.011 -0.2143 -0.7141  0.3967
  147SAPE  H17R16237   1.359   0.937   8.909  0.5653 -0.2744  0.0053
  147SAPE  H17S16238   1.422   0.875   9.067 -1.2704 -2.0612 -1.1874
  147SAPE  C21816239   1.524   1.043   8.995  0.0399 -0.3441  0.1503
  147SAPE  H18R16240   1.577   1.034   9.092 -0.6306  0.0728  0.5594
  147SAPE  H18S16241   1.504   1.151   8.979 -2.3763 -0.8266 -0.3448
  147SAPE  C21916242   1.615   0.991   8.877  0.5068  0.6450 -0.4611
  147SAPE  H19R16243   1.567   0.986   8.777  0.1532 -3.0105 -0.2054
  147SAPE  H19S16244   1.633   0.883   8.898  1.5412  0.2643 -3.1116
  147SAPE  C22016245   1.749   1.056   8.845 -0.7482  0.1444 -0.0141
  147SAPE  H20R16246   1.733   1.161   8.813 -3.4171 -0.3138 -0.3012
  147SAPE  H20S16247   1.810   1.003   8.768  0.7334  0.0530  1.2163
  147SAPE  H20T16248   1.807   1.060   8.939 -0.0496 -0.2340 -0.4252
  147SAPE   C3316249   1.044   0.380  10.387  0.2825 -0.3361 -0.1851
  147SAPE   H3X16250   0.944   0.416  10.420  0.3586 -0.3711  0.0801
  147SAPE   H3Y16251   1.050   0.285  10.445 -0.7406  0.7412  1.7352
  147SAPE   C3416252   1.047   0.343  10.237  0.0857 -0.1706 -0.5152
  147SAPE   H4X16253   1.150   0.312  10.208  0.8260  2.3573 -0.7000
  147SAPE   H4Y16254   1.024   0.428  10.170 -1.5543  0.6383  1.0432
  147SAPE   C3516255   0.968   0.218  10.194  0.2662 -0.0398  0.1348
  147SAPE   H5X16256   0.860   0.238  10.212 -0.1880 -2.4910  0.2830
  147SAPE   H5Y16257   1.016   0.134  10.249  1.1953  0.4500  0.0792
  147SAPE   C3616258   0.997   0.179  10.051 -0.2886  0.7170  0.8108
  147SAPE   H6X16259   1.108   0.178  10.042 -0.4762  0.9586 -1.9147
  147SAPE   H6Y16260   0.966   0.259   9.981  0.7835  0.0353 -0.4833
  147SAPE   C3716261   0.957   0.047   9.982  0.1854 -0.0723  0.5230
  147SAPE   H7X16262   0.848   0.030  10.000  0.1632 -1.2637 -0.7044
  147SAPE   H7Y16263   1.009  -0.037  10.032  0.4007  0.7205  1.6545
  147SAPE   C3816264   1.000   0.044   9.834 -0.1891 -0.3186  0.6788
  147SAPE   H8X16265   0.973  -0.055   9.792  2.9006 -1.0849  0.4022
  147SAPE   H8Y16266   1.110   0.045   9.823 -0.1847 -0.4995  0.7024
  147SAPE   C3916267   0.947   0.163   9.753  0.7264  0.3202  0.3753
  147SAPE   H9X16268   1.014   0.249   9.773 -0.4481  1.6280 -1.1288
  147SAPE   H9Y16269   0.840   0.187   9.773  1.0017  1.0534  0.9656
  147SAPE  C31016270   0.945   0.124   9.599  0.9049  0.3105  0.2940
  147SAPE  H10X16271   0.903   0.022   9.581  0.9122  0.4656 -0.6373
  147SAPE  H10Y16272   1.053   0.120   9.574  0.9518  1.4048  0.3161
  147SAPE  C31116273   0.871   0.237   9.529  0.5660  0.1000  0.9584
  147SAPE  H11X16274   0.901   0.338   9.564  1.9938 -0.1176  0.4111
  147SAPE  H11Y16275   0.761   0.233   9.543  0.1993  0.2872 -1.5082
  147SAPE  C31216276   0.886   0.231   9.379 -0.4011  0.5129  0.4109
  147SAPE  H12X16277   0.994   0.234   9.353 -0.4982 -0.8082 -0.1536
  147SAPE  H12Y16278   0.847   0.329   9.345 -1.7419  0.3064  1.3240
  147SAPE  C31316279   0.807   0.116   9.316  0.0081  0.3556 -0.1006
  147SAPE  H13X16280   0.702   0.145   9.294  0.5500  1.1213 -1.7637
  147SAPE  H13Y16281   0.813   0.032   9.389 -1.5614  0.3994  0.1004
  147SAPE  C31416282   0.851   0.069   9.177 -0.0166  0.6528  0.3915
  147SAPE  H14X16283   0.961   0.052   9.189 -0.3411 -1.9888 -0.0352
  147SAPE  H14Y16284   0.839   0.152   9.105  0.5769  0.0940 -0.3687
  147SAPE  C31516285   0.792  -0.067   9.142  1.0368  0.0686 -0.2442
  147SAPE  H15X16286   0.684  -0.050   9.163  1.0449 -0.2595  0.0587
  147SAPE  H15Y16287   0.835  -0.154   9.196  0.8127  0.2385  0.2093
  147SAPE  C31616288   0.812  -0.101   8.997  0.1545 -0.5818  0.8286
  147SAPE  H16X16289   0.780  -0.207   8.988 -3.7177  0.5232  0.8143
  147SAPE  H16Y16290   0.921  -0.098   8.976  0.8776 -1.8285  3.9687
  147SAPE  C31716291   0.737  -0.012   8.898 -0.3177 -0.0533  0.5668
  147SAPE  H17X16292   0.774  -0.039   8.797  0.2641  0.2680  0.6899
  147SAPE  H17Y16293   0.769   0.094   8.912  2.4197 -0.5578 -1.5439
  147SAPE  C31816294   0.584  -0.024   8.889  0.5418 -0.1469 -0.2500
  147SAPE  H18X16295   0.565  -0.118   8.833  0.9075 -0.0708 -0.5088
  147SAPE  H18Y16296   0.535   0.059   8.834  1.1829 -0.2040 -0.9191
  147SAPE  H18Z16297   0.540  -0.034   8.991 -0.7771 -0.4163 -0.8336
  148SAPE     N16298   2.760   3.417  10.865  0.0821 -0.6434  0.2767
  148SAPE   HN116299   2.784   3.325  10.823 -1.3994 -0.9260  0.0016
  148SAPE   HN216300   2.843   3.478  10.851 -0.2998  0.2643  1.9230
  148SAPE   HN316301   2.749   3.411  10.968 -2.0938 -0.4157  0.0952
  148SAPE   C1216302   2.634   3.469  10.806  0.7812 -0.0296  0.1128
  148SAPE  H12A16303   2.589   3.546  10.872 -0.0016 -1.1994  0.9783
  148SAPE  H12B16304   2.563   3.383  10.806  0.0746  0.5548 -0.3744
  148SAPE   C1116305   2.664   3.523  10.666  0.4191  0.0987 -0.0376
  148SAPE  H11A16306   2.712   3.622  10.677 -2.5164  1.5482  0.1665
  148SAPE  H11B16307   2.563   3.546  10.627  0.3460 -2.0791 -1.1973
  148SAPE     P16308   2.660   3.330  10.482 -0.3291 -0.1942  0.1638
  148SAPE   O1316309   2.763   3.297  10.384  0.4542  0.0568  0.4301
  148SAPE   O1416310   2.606   3.208  10.549  0.6004 -0.0433 -0.2391
  148SAPE   O1216311   2.733   3.424  10.588  0.1164 -0.4852  0.5494
  148SAPE   O1116312   2.547   3.417  10.419  0.1876  0.5840 -0.0541
  148SAPE    C116313   2.432   3.370  10.350  0.3496  0.7635 -0.0690
  148SAPE    HA16314   2.367   3.298  10.403 -0.7248  0.7232 -1.4158
  148SAPE    HB16315   2.371   3.459  10.322 -0.3599  0.9802  2.1285
  148SAPE    C216316   2.467   3.314  10.201 -0.5544  0.2725 -0.1112
  148SAPE    HS16317   2.504   3.210  10.208 -1.1276  0.2230  3.2879
  148SAPE   O2116318   2.546   3.401  10.119 -0.5723  0.3430  0.2741
  148SAPE   C2116319   2.643   3.353  10.046  0.8177  0.3970 -0.0003
  148SAPE   O2216320   2.671   3.240  10.019 -0.7451  0.8327  0.5817
  148SAPE   C2216321   2.715   3.474   9.997 -0.2236  0.2327 -0.2963
  148SAPE   H2R16322   2.688   3.569  10.050 -1.3038 -0.0201 -0.3716
  148SAPE   H2S16323   2.819   3.451  10.028 -0.7093 -0.1055  1.0807
  148SAPE    C316324   2.324   3.294  10.132 -0.3976  0.3081  0.1950
  148SAPE    HX16325   2.288   3.396  10.111 -1.0393 -0.1937 -1.2404
  148SAPE    HY16326   2.263   3.256  10.216  0.9292 -1.7861  0.2644
  148SAPE   O3116327   2.313   3.221  10.008  0.5640  0.1066  0.4101
  148SAPE   C3116328   2.315   3.088  10.016  0.5648  0.6081 -0.2191
  148SAPE   O3216329   2.320   3.022  10.123  0.6108 -0.0106 -0.8519
  148SAPE   C3216330   2.313   3.023   9.880 -0.3277  0.2071 -0.3216
  148SAPE   H2X16331   2.210   3.027   9.840 -0.5010 -2.0348 -0.1678
  148SAPE   H2Y16332   2.348   2.918   9.885  2.1187  1.0753  1.7012
  148SAPE   C2316333   2.697   3.495   9.843 -0.8029  0.0831 -0.1288
  148SAPE   H3R16334   2.713   3.399   9.789 -1.1069 -0.1817  0.2503
  148SAPE   H3S16335   2.772   3.566   9.802 -0.9325 -0.1770 -0.8159
  148SAPE   C2416336   2.550   3.543   9.804 -1.0892  0.2689 -0.8617
  148SAPE   H4R16337   2.485   3.465   9.850  0.1042  0.8933  1.9863
  148SAPE   H4S16338   2.550   3.539   9.693 -2.0723 -0.9238 -0.8285
  148SAPE   C2516339   2.524   3.690   9.846  0.1751  0.3874  0.0655
  148SAPE   H5R16340   2.534   3.728   9.949 -0.8242 -0.4830  0.4926
  148SAPE   C2616341   2.494   3.793   9.767 -0.4676 -0.1463  0.0911
  148SAPE   H6R16342   2.459   3.885   9.816  1.4006 -0.3794  1.9338
  148SAPE   C2716343   2.477   3.798   9.614  0.4169 -0.3404 -0.0748
  148SAPE   H7R16344   2.428   3.891   9.578  2.7707  1.6502  1.6633
  148SAPE   H7S16345   2.420   3.712   9.574 -1.1344  0.5023  0.2821
  148SAPE   C2816346   2.618   3.788   9.562 -0.1095 -0.2486 -0.6052
  148SAPE   H8R16347   2.682   3.857   9.618 -1.4809 -0.9109  1.8913
  148SAPE   C2916348   2.680   3.705   9.476  0.0338 -0.4379 -0.3895
  148SAPE   H9R16349   2.787   3.714   9.451 -0.3756  3.9844 -0.8652
  148SAPE  C21016350   2.618   3.585   9.410 -0.2224  0.2350  0.4654
  148SAPE  H10R16351   2.575   3.619   9.314 -0.2184  3.8211  1.6531
  148SAPE  H10S16352   2.528   3.558   9.469 -1.1053  0.0520 -0.9406
  148SAPE  C21116353   2.715   3.466   9.400 -1.0111  0.1524 -0.2577
  148SAPE  H11R16354   2.760   3.436   9.495  2.6309  1.0812 -1.6013
  148SAPE  C21216355   2.745   3.403   9.285  0.5690  0.5094 -0.6099
  148SAPE  H12R16356   2.822   3.325   9.282  0.1525  0.0618  0.2072
  148SAPE  C21316357   2.697   3.441   9.146  0.0331  0.9077  0.0331
  148SAPE  H13R16358   2.596   3.487   9.150 -0.3320  0.2795 -1.6279
  148SAPE  H13S16359   2.667   3.346   9.097  0.8716  1.4199 -1.5069
  148SAPE  C21416360   2.805   3.518   9.070  0.7292 -0.2113 -0.3442
  148SAPE  H14R16361   2.845   3.609   9.117 -0.5139  0.2522 -0.1677
  148SAPE  C21516362   2.854   3.495   8.949 -0.6075  0.3847  0.5091
  148SAPE  H15R16363   2.920   3.566   8.897  0.1473 -0.2875  0.5326
  148SAPE  C21616364   2.812   3.383   8.860  0.2981  1.4081 -0.0372
  148SAPE  H16R16365   2.711   3.345   8.890  2.7318 -3.4936  2.5615
  148SAPE  H16S16366   2.876   3.294   8.877 -1.0902  0.7390  1.8932
  148SAPE  C21716367   2.796   3.401   8.705 -0.2181  0.9398  0.4158
  148SAPE  H17R16368   2.739   3.314   8.667  0.3971  0.7894 -0.1740
  148SAPE  H17S16369   2.894   3.416   8.656 -1.1344 -1.3505 -2.2611
  148SAPE  C21816370   2.721   3.526   8.667 -0.2150 -0.0522  0.0363
  148SAPE  H18R16371   2.763   3.622   8.705 -0.0818 -0.7258  1.6019
  148SAPE  H18S16372   2.617   3.526   8.705 -0.4193  0.3462 -0.5206
  148SAPE  C21916373   2.696   3.549   8.510 -0.6940  0.1865 -0.9465
  148SAPE  H19R16374   2.620   3.471   8.488 -1.0972  0.3478 -0.1275
  148SAPE  H19S16375   2.781   3.512   8.449 -1.6060 -1.3913 -1.2950
  148SAPE  C22016376   2.660   3.692   8.470  0.0490 -1.2054  0.1338
  148SAPE  H20R16377   2.647   3.695   8.360  0.0859  0.9753  0.1596
  148SAPE  H20S16378   2.745   3.762   8.488  0.1625 -1.0550 -0.9475
  148SAPE  H20T16379   2.573   3.730   8.526  1.2827  1.9455  0.0094
  148SAPE   C3316380   2.401   3.100   9.785 -0.1938 -0.3010  0.7486
  148SAPE   H3X16381   2.509   3.107   9.809  0.0497  0.2812 -0.4750
  148SAPE   H3Y16382   2.376   3.208   9.777 -2.1184 -0.8392 -1.2205
  148SAPE   C3416383   2.377   3.054   9.641 -0.3525  0.0673 -0.0041
  148SAPE   H4X16384   2.275   3.083   9.608 -0.5889  1.0937  1.6312
  148SAPE   H4Y16385   2.380   2.943   9.639  0.9883  0.0159  2.6884
  148SAPE   C3516386   2.481   3.105   9.538 -0.0103 -0.5396  0.3593
  148SAPE   H5X16387   2.579   3.057   9.556 -0.7978 -1.9764  0.9122
  148SAPE   H5Y16388   2.491   3.216   9.542 -1.3372 -0.2893 -2.2474
  148SAPE   C3616389   2.449   3.056   9.394  0.7356 -0.3716 -0.0757
  148SAPE   H6X16390   2.354   3.109   9.369  0.9439  0.5623  1.0851
  148SAPE   H6Y16391   2.426   2.947   9.403  0.7653 -0.2723  1.3624
  148SAPE   C3716392   2.563   3.072   9.295 -0.1352  0.0308 -0.5449
  148SAPE   H7X16393   2.646   3.032   9.358 -0.0411 -0.8422 -1.2160
  148SAPE   H7Y16394   2.570   3.179   9.266 -0.3850  0.5730  1.2879
  148SAPE   C3816395   2.531   2.997   9.161  0.0979 -1.2748  0.6288
  148SAPE   H8X16396   2.455   3.045   9.097  1.5442  2.8458  1.8400
  148SAPE   H8Y16397   2.494   2.897   9.191 -1.7852 -0.3496  1.4876
  148SAPE   C3916398   2.655   2.991   9.072 -0.2846  0.5274 -0.2520
  148SAPE   H9X16399   2.733   2.945   9.136 -1.8535 -0.6721  0.8398
  148SAPE   H9Y16400   2.693   3.092   9.044 -0.6063 -0.1100 -3.2324
  148SAPE  C31016401   2.624   2.901   8.954 -0.1681  0.6770 -0.4686
  148SAPE  H10X16402   2.542   2.952   8.900  1.4399  2.4165 -1.2991
  148SAPE  H10Y16403   2.580   2.808   8.997 -1.1920 -0.2306 -3.3400
  148SAPE  C31116404   2.734   2.859   8.856 -0.8018  0.0809 -0.2870
  148SAPE  H11X16405   2.780   2.772   8.909  2.1977 -0.0087 -2.9018
  148SAPE  H11Y16406   2.814   2.933   8.837  1.0236 -2.4614 -2.9792
  148SAPE  C31216407   2.665   2.825   8.722 -0.1222  1.1521  0.2348
  148SAPE  H12X16408   2.608   2.910   8.679 -0.3127  0.9749  0.1405
  148SAPE  H12Y16409   2.586   2.751   8.747 -0.3993  0.8546 -1.5128
  148SAPE  C31316410   2.769   2.773   8.614  0.1341 -1.0647  0.7811
  148SAPE  H13X16411   2.812   2.671   8.627  1.3636 -0.8273 -1.2788
  148SAPE  H13Y16412   2.860   2.837   8.609  0.0411 -0.7432  2.7367
  148SAPE  C31416413   2.699   2.779   8.476 -0.7742 -0.1477 -0.0510
  148SAPE  H14X16414   2.769   2.776   8.390 -0.0644  1.5581  0.4353
  148SAPE  H14Y16415   2.656   2.882   8.469  1.3530  0.9444  2.0578
  148SAPE  C31516416   2.590   2.673   8.451  0.1646 -0.3111 -0.3469
  148SAPE  H15X16417   2.529   2.654   8.543  3.6375 -1.4503  1.8233
  148SAPE  H15Y16418   2.627   2.578   8.407  0.1493 -1.0870  1.2686
  148SAPE  C31616419   2.480   2.719   8.357 -0.7753  0.1586  0.4238
  148SAPE  H16X16420   2.429   2.794   8.421 -1.2038 -1.7254  2.3723
  148SAPE  H16Y16421   2.410   2.633   8.351 -1.5652  0.8752 -1.0592
  148SAPE  C31716422   2.521   2.765   8.223  0.1331 -0.2857 -0.1022
  148SAPE  H17X16423   2.579   2.679   8.182  1.7010  0.5146  0.4084
  148SAPE  H17Y16424   2.596   2.843   8.249  1.3661 -1.3261 -0.4447
  148SAPE  C31816425   2.415   2.832   8.134 -0.2378 -0.7150 -0.4003
  148SAPE  H18X16426   2.424   2.939   8.163 -2.2386  0.0833 -2.5949
  148SAPE  H18Y16427   2.312   2.792   8.144 -0.5859  0.2513 -0.0628
  148SAPE  H18Z16428   2.446   2.834   8.027 -1.2745  2.3993 -0.6811
  149SAPE     N16429   4.701   5.236  10.955 -0.4059  0.0140 -0.0543
  149SAPE   HN116430   4.646   5.309  11.006  0.4583 -0.4271  1.5587
  149SAPE   HN216431   4.636   5.188  10.890  0.4710 -1.2114 -0.0445
  149SAPE   HN316432   4.730   5.159  11.019  0.4124 -1.1458 -1.7850
  149SAPE   C1216433   4.824   5.297  10.884 -1.2091 -0.3422 -0.9541
  149SAPE  H12A16434   4.863   5.354  10.971  0.5811  0.2786 -2.1401
  149SAPE  H12B16435   4.797   5.379  10.814  1.5153  1.3493 -0.0831
  149SAPE   C1116436   4.914   5.189  10.830 -0.7109  0.2090 -0.0412
  149SAPE  H11A16437   5.007   5.235  10.791 -1.8115  1.8946 -0.7283
  149SAPE  H11B16438   4.861   5.147  10.742  0.8495 -0.1111 -0.8434
  149SAPE     P16439   5.041   4.972  10.885 -0.0530 -0.0212  0.4018
  149SAPE   O1316440   5.159   4.975  10.973 -0.3189  0.4200 -0.2768
  149SAPE   O1416441   4.955   4.859  10.883 -0.2086  0.5453 -0.7996
  149SAPE   O1216442   4.958   5.091  10.925  0.0090  0.1235  0.2635
  149SAPE   O1116443   5.091   5.004  10.741 -0.3351 -0.3968 -0.8785
  149SAPE    C116444   5.181   4.913  10.673 -0.6012 -0.1759  0.3138
  149SAPE    HA16445   5.285   4.951  10.663  0.1824 -2.1258  0.7002
  149SAPE    HB16446   5.180   4.811  10.716 -1.8207 -0.3363 -0.0771
  149SAPE    C216447   5.127   4.897  10.526 -0.7115 -0.2374  0.2124
  149SAPE    HS16448   5.142   4.991  10.468 -0.8369 -1.0501 -1.1324
  149SAPE   O2116449   4.987   4.845  10.522 -0.3032  0.3042 -0.4746
  149SAPE   C2116450   4.897   4.943  10.508  0.0438  0.1519  0.1441
  149SAPE   O2216451   4.926   5.060  10.505 -0.1251  0.2274 -0.1349
  149SAPE   C2216452   4.759   4.887  10.490  0.2640  0.5030 -0.5032
  149SAPE   H2R16453   4.761   4.817  10.404 -0.3642 -2.2433  1.6513
  149SAPE   H2S16454   4.735   4.824  10.578  2.1539  1.4366  0.7248
  149SAPE    C316455   5.212   4.785  10.455 -0.7068 -0.8319 -0.8209
  149SAPE    HX16456   5.201   4.696  10.521  0.0457 -0.1505  0.2291
  149SAPE    HY16457   5.316   4.823  10.466 -1.8376  1.6589  1.8617
  149SAPE   O3116458   5.173   4.763  10.321  0.3984 -0.4853 -0.4901
  149SAPE   C3116459   5.220   4.859  10.235 -0.5714  0.4062 -0.2917
  149SAPE   O3216460   5.297   4.949  10.262  0.2750 -0.1924 -1.0775
  149SAPE   C3216461   5.164   4.834  10.100  0.1596 -0.1253  0.0361
  149SAPE   H2X16462   5.055   4.822  10.117  0.1654  0.2606  0.3725
  149SAPE   H2Y16463   5.198   4.735  10.063 -1.7693 -0.4323 -1.0103
  149SAPE   C2316464   4.654   4.999  10.479 -0.4915  0.1643  0.5356
  149SAPE   H3R16465   4.681   5.063  10.392 -1.0327  0.9730  0.9600
  149SAPE   H3S16466   4.644   5.062  10.569  1.1674  0.1913  0.7026
  149SAPE   C2416467   4.515   4.940  10.440 -0.8758  0.7587  0.0464
  149SAPE   H4R16468   4.482   4.882  10.528 -1.4887 -1.0732 -1.3394
  149SAPE   H4S16469   4.520   4.851  10.374 -2.4120  1.0580 -0.5136
  149SAPE   C2516470   4.426   5.058  10.410  0.1266  0.0012  0.6769
  149SAPE   H5R16471   4.418   5.127  10.494  1.8095  0.8478  0.1610
  149SAPE   C2616472   4.396   5.097  10.286  0.7341  0.5694  0.3594
  149SAPE   H6R16473   4.343   5.193  10.276 -1.2802 -0.6710 -1.3018
  149SAPE   C2716474   4.442   5.034  10.158  0.3051 -0.0298 -0.2626
  149SAPE   H7R16475   4.356   4.982  10.111  0.0001 -0.8833  1.1924
  149SAPE   H7S16476   4.506   4.944  10.172 -0.7027 -0.9449 -1.3928
  149SAPE   C2816477   4.502   5.129  10.056 -0.1496  0.2055 -0.3544
  149SAPE   H8R16478   4.515   5.231  10.097  1.4823  0.2713 -0.9968
  149SAPE   C2916479   4.541   5.101   9.934 -0.0255 -0.0099  0.0634
  149SAPE   H9R16480   4.571   5.185   9.869 -3.2612  2.0149  1.0888
  149SAPE  C21016481   4.532   4.966   9.865  0.3317  0.3254  0.6593
  149SAPE  H10R16482   4.518   4.878   9.931  2.8804  0.9153  2.0330
  149SAPE  H10S16483   4.633   4.936   9.830  0.7761  0.7830  1.5330
  149SAPE  C21116484   4.431   4.955   9.756 -0.2920 -0.0396 -0.4550
  149SAPE  H11R16485   4.330   4.990   9.782 -0.3735 -0.7892  0.2635
  149SAPE  C21216486   4.452   4.909   9.633  0.3007  0.1516 -0.3022
  149SAPE  H12R16487   4.373   4.925   9.557  0.1977  0.2188 -0.1806
  149SAPE  C21316488   4.577   4.870   9.561  0.2568 -0.0702 -0.2668
  149SAPE  H13R16489   4.550   4.803   9.477  0.0982  1.1575 -1.2059
  149SAPE  H13S16490   4.640   4.809   9.629  0.1236  1.4309  1.2252
  149SAPE  C21416491   4.666   4.993   9.523  0.2612 -0.1271  0.0958
  149SAPE  H14R16492   4.715   5.036   9.611  0.6987 -1.8886  0.7338
  149SAPE  C21516493   4.672   5.044   9.405 -0.7082  0.3602 -0.3526
  149SAPE  H15R16494   4.747   5.124   9.393  1.6159 -1.3994  1.7440
  149SAPE  C21616495   4.617   4.983   9.279 -0.0652  0.2760 -0.1744
  149SAPE  H16R16496   4.584   5.063   9.209 -2.5670 -0.8758 -0.3499
  149SAPE  H16S16497   4.528   4.918   9.297  0.2119 -0.5032 -1.5385
  149SAPE  C21716498   4.717   4.886   9.217  0.5815  0.0294 -0.5840
  149SAPE  H17R16499   4.674   4.844   9.123 -0.9314 -0.5770  0.3642
  149SAPE  H17S16500   4.742   4.805   9.289 -2.3544 -0.9198 -0.5637
  149SAPE  C21816501   4.848   4.946   9.166 -0.1722 -0.2520  0.0574
  149SAPE  H18R16502   4.911   4.861   9.132 -1.3739 -1.2014  0.1395
  149SAPE  H18S16503   4.898   5.001   9.248 -0.7816 -0.2883  0.4656
  149SAPE  C21916504   4.825   5.049   9.052  0.4222 -0.0923 -0.6014
  149SAPE  H19R16505   4.792   5.141   9.104 -0.9347 -0.0180 -1.5833
  149SAPE  H19S16506   4.739   5.017   8.989  1.7961 -1.9681 -1.5943
  149SAPE  C22016507   4.957   5.083   8.980 -0.1570  0.7217  0.1212
  149SAPE  H20R16508   5.000   5.001   8.919  1.2810  1.5866 -0.0470
  149SAPE  H20S16509   5.032   5.126   9.050 -0.3794 -1.1561  1.5481
  149SAPE  H20T16510   4.937   5.170   8.914  1.3637  0.5115 -0.6433
  149SAPE   C3316511   5.199   4.944   9.997  0.3578 -0.1584 -0.1182
  149SAPE   H3X16512   5.310   4.938   9.984  0.7470  0.2852  2.7651
  149SAPE   H3Y16513   5.182   5.042  10.046  0.2049 -0.5767  0.6638
  149SAPE   C3416514   5.114   4.933   9.869  0.4515  0.0778 -0.2825
  149SAPE   H4X16515   5.121   5.022   9.803 -2.6372  1.8202  1.6143
  149SAPE   H4Y16516   5.008   4.939   9.901 -0.2025 -0.5697 -2.2786
  149SAPE   C3516517   5.142   4.804   9.794  0.0994  0.9235  0.0881
  149SAPE   H5X16518   5.092   4.722   9.850  2.1805 -2.2135 -2.4257
  149SAPE   H5Y16519   5.252   4.794   9.780 -0.2956 -0.9576 -2.1407
  149SAPE   C3616520   5.067   4.804   9.658 -0.2632 -0.0330  0.0293
  149SAPE   H6X16521   5.094   4.891   9.595 -0.9994 -0.2410 -0.5792
  149SAPE   H6Y16522   4.959   4.814   9.682 -0.6591 -2.0811 -0.8150
  149SAPE   C3716523   5.078   4.674   9.578  0.0111 -0.2846  0.2843
  149SAPE   H7X16524   5.044   4.583   9.631 -0.5009  0.0783  0.5845
  149SAPE   H7Y16525   5.186   4.673   9.552 -0.4954 -2.6928 -1.9869
  149SAPE   C3816526   5.004   4.699   9.445  0.0111  0.6398  0.2891
  149SAPE   H8X16527   5.042   4.791   9.396 -0.9528  1.3064  0.7662
  149SAPE   H8Y16528   4.900   4.720   9.477 -0.9618 -1.7502 -1.1496
  149SAPE   C3916529   4.998   4.575   9.352 -0.4936 -0.0528  0.4998
  149SAPE   H9X16530   4.925   4.580   9.268 -0.1974 -0.1985  0.2353
  149SAPE   H9Y16531   4.975   4.490   9.419  1.2139  1.5841  3.2617
  149SAPE  C31016532   5.135   4.537   9.277  1.1110  0.0001  0.2988
  149SAPE  H10X16533   5.110   4.445   9.220 -2.3728  1.3212 -0.3800
  149SAPE  H10Y16534   5.210   4.518   9.357 -0.4586 -3.0015  1.1078
  149SAPE  C31116535   5.200   4.631   9.184  0.3964  0.1317  0.4389
  149SAPE  H11X16536   5.310   4.619   9.189  0.2253 -2.4670 -1.2860
  149SAPE  H11Y16537   5.178   4.737   9.210  1.4754  0.8135 -1.3499
  149SAPE  C31216538   5.155   4.621   9.038  0.2612 -0.0392  0.1505
  149SAPE  H12X16539   5.044   4.614   9.030  0.0161  0.3064  2.8474
  149SAPE  H12Y16540   5.196   4.522   9.009  1.3602  0.5369 -0.2810
  149SAPE  C31316541   5.211   4.740   8.959 -0.0023 -0.5079 -0.0374
  149SAPE  H13X16542   5.318   4.759   8.980  0.0861 -0.2804 -0.6659
  149SAPE  H13Y16543   5.158   4.837   8.965 -2.3159 -1.5109 -2.5736
  149SAPE  C31416544   5.211   4.700   8.808 -0.2410  0.1362 -0.5432
  149SAPE  H14X16545   5.112   4.678   8.763 -0.7724  0.2457  0.5732
  149SAPE  H14Y16546   5.271   4.607   8.799 -0.8201 -0.2809 -0.1535
  149SAPE  C31516547   5.288   4.796   8.716  0.5951 -0.4527 -0.2585
  149SAPE  H15X16548   5.397   4.784   8.734  0.9719  2.2183 -0.5197
  149SAPE  H15Y16549   5.261   4.900   8.744  0.1620 -1.3455  2.7764
  149SAPE  C31616550   5.263   4.780   8.566 -0.4142  0.8520 -0.1787
  149SAPE  H16X16551   5.264   4.671   8.542 -1.9176  0.3079  2.0451
  149SAPE  H16Y16552   5.345   4.828   8.509 -0.4816 -1.0949 -1.9871
  149SAPE  C31716553   5.128   4.819   8.509 -0.0392  0.8831 -0.1825
  149SAPE  H17X16554   5.120   4.921   8.554  0.6856 -0.1634  2.4311
  149SAPE  H17Y16555   5.047   4.767   8.564  1.4412 -0.5402  0.7206
  149SAPE  C31816556   5.111   4.813   8.358  0.0773 -0.5890 -0.0816
  149SAPE  H18X16557   5.023   4.878   8.337  0.5986  0.3169  0.4885
  149SAPE  H18Y16558   5.094   4.713   8.313 -4.9516  0.1258 -0.0130
  149SAPE  H18Z16559   5.193   4.869   8.308 -0.1998  0.9560  1.1661
  150SAPE     N16560   6.783   4.466  10.638 -0.1293 -0.2941  0.0544
  150SAPE   HN116561   6.784   4.376  10.587  2.7110 -0.1187 -0.2920
  150SAPE   HN216562   6.775   4.533  10.558 -1.1627 -1.1998 -0.6094
  150SAPE   HN316563   6.867   4.488  10.695  0.4112 -1.8879 -0.1175
  150SAPE   C1216564   6.664   4.469  10.727  0.2890  0.5423 -0.6622
  150SAPE  H12A16565   6.582   4.452  10.654 -0.4946 -1.3318  0.6336
  150SAPE  H12B16566   6.648   4.569  10.772  0.5924 -0.3004  1.3568
  150SAPE   C1116567   6.677   4.349  10.825  0.7629 -0.5414  0.2587
  150SAPE  H11A16568   6.584   4.351  10.886 -0.6394 -1.4389 -1.8163
  150SAPE  H11B16569   6.757   4.379  10.897  0.8246  2.6199 -1.0321
  150SAPE     P16570   6.839   4.147  10.802 -0.0126  0.5145  0.0626
  150SAPE   O1316571   6.879   4.199  10.937  0.4330  0.3243 -0.0061
  150SAPE   O1416572   6.826   3.997  10.785 -0.5997 -0.0774 -0.5259
  150SAPE   O1216573   6.695   4.220  10.761 -0.6587  0.4800  0.4638
  150SAPE   O1116574   6.939   4.209  10.704 -0.1669 -0.4588 -0.1407
  150SAPE    C116575   7.048   4.148  10.635 -0.2245  0.2288  0.6095
  150SAPE    HA16576   7.142   4.197  10.668 -1.0005  2.0404  0.1730
  150SAPE    HB16577   7.052   4.038  10.651  2.0951  0.0260 -1.0776
  150SAPE    C216578   7.042   4.173  10.478 -0.4260 -0.5128 -0.4886
  150SAPE    HS16579   7.032   4.283  10.476  0.7896 -0.3908 -0.3153
  150SAPE   O2116580   6.939   4.090  10.418  0.0712  0.2299 -0.0191
  150SAPE   C2116581   6.821   4.152  10.414  0.4646  0.4817 -0.5152
  150SAPE   O2216582   6.807   4.268  10.450  0.2072 -0.0327  0.1700
  150SAPE   C2216583   6.715   4.053  10.372  0.7562  0.3201  0.3244
  150SAPE   H2R16584   6.758   3.983  10.298 -0.3264 -2.6408  2.4087
  150SAPE   H2S16585   6.689   3.983  10.455 -1.7832 -0.2536 -0.8841
  150SAPE    C316586   7.184   4.134  10.423 -0.0477 -0.7732 -0.4094
  150SAPE    HX16587   7.197   4.024  10.423  1.4205 -0.6151 -0.2431
  150SAPE    HY16588   7.272   4.166  10.482 -1.0374 -1.6699  1.5858
  150SAPE   O3116589   7.201   4.190  10.288 -0.5835  0.4158  0.6595
  150SAPE   C3116590   7.234   4.107  10.188 -0.2137  0.8413  0.3782
  150SAPE   O3216591   7.228   3.983  10.196 -0.0847  0.4315  0.1174
  150SAPE   C3216592   7.286   4.181  10.065 -0.3820  0.2068  0.3416
  150SAPE   H2X16593   7.236   4.280  10.064  0.9218  0.8971 -2.2342
  150SAPE   H2Y16594   7.268   4.137   9.964 -0.8736  2.8675 -0.7890
  150SAPE   C2316595   6.595   4.127  10.328  0.2477 -0.5587  1.0106
  150SAPE   H3R16596   6.560   4.198  10.405 -2.6495  0.9969 -1.6008
  150SAPE   H3S16597   6.515   4.049  10.323  0.5781 -0.8185 -0.5412
  150SAPE   C2416598   6.606   4.192  10.188  0.7538  0.6023 -0.3592
  150SAPE   H4R16599   6.676   4.279  10.194  0.9408  0.3816  0.7844
  150SAPE   H4S16600   6.499   4.218  10.173  0.4864  0.3412  1.0733
  150SAPE   C2516601   6.633   4.091  10.073  0.6351 -0.3431 -0.1075
  150SAPE   H5R16602   6.552   4.018  10.064 -0.2519  0.5075  0.8204
  150SAPE   C2616603   6.737   4.090   9.988  0.0618 -0.0607  0.2100
  150SAPE   H6R16604   6.728   4.021   9.903 -0.5664  0.4323 -0.1328
  150SAPE   C2716605   6.852   4.185   9.978  0.1701  0.0664 -0.0785
  150SAPE   H7R16606   6.879   4.223  10.079  0.0739  0.8192 -0.3335
  150SAPE   H7S16607   6.813   4.267   9.914  0.1259  0.3332  0.2872
  150SAPE   C2816608   6.972   4.130   9.915 -1.1414  0.0401 -0.1657
  150SAPE   H8R16609   7.033   4.068   9.982  0.1655  1.1556 -0.2996
  150SAPE   C2916610   7.012   4.130   9.786 -0.1621 -0.3702 -0.0085
  150SAPE   H9R16611   7.109   4.086   9.761 -0.9891 -1.8470 -0.6930
  150SAPE  C21016612   6.924   4.188   9.674 -0.2977 -0.1144 -0.4762
  150SAPE  H10R16613   6.823   4.155   9.704  1.1502 -1.4580  3.2107
  150SAPE  H10S16614   6.945   4.128   9.583  0.0697 -2.6782  1.2324
  150SAPE  C21116615   6.938   4.342   9.663 -0.0610 -0.1300  0.7575
  150SAPE  H11R16616   6.886   4.409   9.733 -0.7863 -0.4804  0.5641
  150SAPE  C21216617   7.007   4.402   9.564 -0.1872 -0.9219 -0.8827
  150SAPE  H12R16618   7.008   4.512   9.570  1.7158 -1.1031  4.0385
  150SAPE  C21316619   7.081   4.343   9.441  0.8792 -0.2041  0.8364
  150SAPE  H13R16620   7.169   4.283   9.473 -0.4250 -2.2324  0.7433
  150SAPE  H13S16621   7.121   4.429   9.383  0.8165  1.4786  3.2243
  150SAPE  C21416622   6.988   4.254   9.347 -0.2631  0.8618  0.0750
  150SAPE  H14R16623   6.898   4.209   9.392 -1.1719  3.7344  1.2590
  150SAPE  C21516624   7.004   4.237   9.210 -0.5575 -0.6901  0.1074
  150SAPE  H15R16625   6.934   4.178   9.149 -2.8010 -0.0112  1.9540
  150SAPE  C21616626   7.119   4.298   9.133  0.1187 -0.7748  0.4134
  150SAPE  H16R16627   7.209   4.314   9.196 -1.0835  2.1669  1.4872
  150SAPE  H16S16628   7.088   4.393   9.083  0.2536 -1.1741 -0.4411
  150SAPE  C21716629   7.150   4.237   8.996  0.4683 -0.3158 -0.0409
  150SAPE  H17R16630   7.053   4.222   8.943  0.8431 -1.0460 -0.5318
  150SAPE  H17S16631   7.185   4.134   9.021  0.5296 -0.3751 -0.3644
  150SAPE  C21816632   7.248   4.312   8.915  0.1602  0.4727  1.1233
  150SAPE  H18R16633   7.350   4.316   8.958  1.9352 -0.4193 -2.7787
  150SAPE  H18S16634   7.206   4.414   8.919 -1.8112 -0.2362 -0.3535
  150SAPE  C21916635   7.251   4.282   8.759 -0.2841 -0.1777 -0.7360
  150SAPE  H19R16636   7.150   4.272   8.713 -0.4177 -1.2354 -0.2304
  150SAPE  H19S16637   7.283   4.175   8.752  4.4992  1.2018 -1.2851
  150SAPE  C22016638   7.353   4.368   8.681  0.3648 -0.7432 -0.1328
  150SAPE  H20R16639   7.450   4.345   8.731  0.1951 -1.6239 -0.1947
  150SAPE  H20S16640   7.317   4.473   8.686 -0.8648 -1.1574 -0.1265
  150SAPE  H20T16641   7.355   4.353   8.571 -0.5126 -3.1535  0.1427
  150SAPE   C3316642   7.436   4.220  10.067 -0.3784 -0.4953  0.1184
  150SAPE   H3X16643   7.503   4.132  10.071 -0.1449 -0.3245  0.0424
  150SAPE   H3Y16644   7.458   4.280  10.158 -1.9284  2.1765 -1.1960
  150SAPE   C3416645   7.480   4.296   9.943  0.7711 -0.4394  0.7185
  150SAPE   H4X16646   7.467   4.237   9.850 -0.5113 -0.0314  0.6187
  150SAPE   H4Y16647   7.589   4.313   9.951  0.6306 -0.2290  2.5270
  150SAPE   C3516648   7.411   4.430   9.925 -0.0923 -0.3194 -0.3989
  150SAPE   H5X16649   7.423   4.476  10.025  1.3087 -3.0289  0.7383
  150SAPE   H5Y16650   7.306   4.407   9.897  0.3035 -1.0617 -1.3034
  150SAPE   C3616651   7.459   4.529   9.817  0.4156 -0.0494  0.4234
  150SAPE   H6X16652   7.569   4.515   9.811  0.5105  0.5068  0.8662
  150SAPE   H6Y16653   7.441   4.635   9.845 -2.3673 -0.1595 -0.8380
  150SAPE   C3716654   7.383   4.514   9.685 -0.3809  1.3229 -0.3184
  150SAPE   H7X16655   7.275   4.533   9.704 -0.7774  0.9040 -1.9919
  150SAPE   H7Y16656   7.396   4.412   9.643  1.8121  1.4744 -0.0825
  150SAPE   C3816657   7.444   4.601   9.579 -0.2770 -0.2208  0.0675
  150SAPE   H8X16658   7.555   4.595   9.580 -0.3070 -0.8327  1.6281
  150SAPE   H8Y16659   7.406   4.705   9.593 -0.3597 -0.2827  0.3034
  150SAPE   C3916660   7.414   4.543   9.441  0.1380 -0.5233  0.9245
  150SAPE   H9X16661   7.304   4.542   9.433  0.2731 -1.7772 -1.1332
  150SAPE   H9Y16662   7.460   4.442   9.448 -0.0156 -0.4440  3.4227
  150SAPE  C31016663   7.478   4.629   9.328  0.5270  0.0920  0.2596
  150SAPE  H10X16664   7.585   4.633   9.356  0.1452 -0.8370  1.9661
  150SAPE  H10Y16665   7.440   4.733   9.331 -0.1639 -0.1633  0.5792
  150SAPE  C31116666   7.478   4.562   9.187 -0.6168  0.2545 -0.1547
  150SAPE  H11X16667   7.371   4.543   9.167 -0.3500  1.0066 -2.4264
  150SAPE  H11Y16668   7.507   4.455   9.186 -3.5301 -0.5842  0.9404
  150SAPE  C31216669   7.542   4.647   9.076 -0.1253 -0.1131 -0.1020
  150SAPE  H12X16670   7.650   4.642   9.099 -0.8082  0.6565  3.4310
  150SAPE  H12Y16671   7.509   4.753   9.078 -0.0319 -0.0963  0.6915
  150SAPE  C31316672   7.521   4.578   8.943 -0.2643  0.3666  0.4429
  150SAPE  H13X16673   7.413   4.577   8.915 -0.4248 -0.6163  1.0536
  150SAPE  H13Y16674   7.553   4.473   8.954 -0.5697  0.1928 -0.3607
  150SAPE  C31416675   7.597   4.653   8.823  0.1280  0.3020 -0.5114
  150SAPE  H14X16676   7.597   4.589   8.732 -1.9605  2.3130 -1.9866
  150SAPE  H14Y16677   7.703   4.653   8.856  0.1395 -1.1730 -0.4770
  150SAPE  C31516678   7.540   4.785   8.792  0.8855 -0.0444 -0.2518
  150SAPE  H15X16679   7.578   4.857   8.868 -0.4010  1.9669 -1.4681
  150SAPE  H15Y16680   7.432   4.782   8.819  1.6428 -0.8528  2.9305
  150SAPE  C31616681   7.570   4.853   8.654 -0.7986  0.7749 -1.0452
  150SAPE  H16X16682   7.512   4.786   8.587 -2.6721 -0.0148  1.3086
  150SAPE  H16Y16683   7.677   4.859   8.624 -0.3914 -0.3953  0.1191
  150SAPE  C31716684   7.509   4.989   8.644  0.0689  0.4417 -0.3647
  150SAPE  H17X16685   7.554   5.051   8.724 -0.2486 -0.5723  0.6127
  150SAPE  H17Y16686   7.402   4.984   8.673 -0.3098  0.5363 -1.6849
  150SAPE  C31816687   7.509   5.055   8.503  0.1369  0.9692  0.2112
  150SAPE  H18X16688   7.446   5.007   8.425 -0.4901  2.4238 -0.1954
  150SAPE  H18Y16689   7.614   5.055   8.468  0.7061  1.2604  1.8866
  150SAPE  H18Z16690   7.474   5.160   8.503  0.9569  1.2389  0.6886
  151SAPE     N16691   3.592   1.365  10.470  0.3949  0.2373  0.0607
  151SAPE   HN116692   3.514   1.306  10.506 -1.2872  1.2292 -1.8656
  151SAPE   HN216693   3.660   1.372  10.547  1.4957 -2.6509 -0.5715
  151SAPE   HN316694   3.547   1.458  10.457  0.7869  0.0593 -3.0547
  151SAPE   C1216695   3.644   1.313  10.340  0.1475 -0.0658  0.5084
  151SAPE  H12A16696   3.556   1.277  10.282  2.0645 -1.4225 -1.6741
  151SAPE  H12B16697   3.720   1.234  10.355  1.7887  1.1461 -1.0917
  151SAPE   C1116698   3.707   1.428  10.269 -0.3379 -0.1119  0.4672
  151SAPE  H11A16699   3.621   1.494  10.244 -1.5937 -2.0365 -0.3821
  151SAPE  H11B16700   3.764   1.392  10.181 -0.9654 -1.4882  0.6083
  151SAPE     P16701   3.942   1.509  10.367 -0.1836 -0.3243 -0.1191
  151SAPE   O1316702   3.975   1.592  10.485 -0.3784 -0.5590 -0.0379
  151SAPE   O1416703   3.982   1.365  10.376  0.2128  0.1083 -0.0093
  151SAPE   O1216704   3.787   1.511  10.354 -0.2196  0.1435 -0.4819
  151SAPE   O1116705   3.989   1.570  10.232 -0.7381 -0.4140  0.4117
  151SAPE    C116706   3.940   1.703  10.198 -0.3476 -0.2038 -0.3876
  151SAPE    HA16707   3.830   1.703  10.179 -0.5719  1.1835  0.8381
  151SAPE    HB16708   3.960   1.778  10.277 -0.2653  0.5797 -1.1412
  151SAPE    C216709   4.006   1.759  10.068  0.4395 -0.4653  0.4924
  151SAPE    HS16710   3.971   1.864  10.067 -1.6103 -1.0977  2.1323
  151SAPE   O2116711   3.959   1.681   9.953  0.5945  0.0350 -0.5404
  151SAPE   C2116712   3.942   1.745   9.842  0.3914  0.6520 -0.1454
  151SAPE   O2216713   3.947   1.862   9.824  0.4237 -0.6365 -0.4939
  151SAPE   C2216714   3.922   1.651   9.725  0.3262 -0.2237  0.0794
  151SAPE   H2R16715   3.944   1.546   9.754 -0.0318  0.1006  1.5740
  151SAPE   H2S16716   3.816   1.659   9.694 -0.9451 -2.3149  3.5892
  151SAPE    C316717   4.159   1.751  10.071  0.1134  0.8097  0.2028
  151SAPE    HX16718   4.195   1.650  10.099 -2.4364 -0.0309  0.5689
  151SAPE    HY16719   4.184   1.815  10.159 -2.3761  0.2112  1.3805
  151SAPE   O3116720   4.224   1.795   9.952 -0.2752  0.1096 -0.2020
  151SAPE   C3116721   4.226   1.919   9.927 -0.3627 -0.0132  0.0454
  151SAPE   O3216722   4.215   2.012  10.005  0.9556  0.0825  0.1065
  151SAPE   C3216723   4.262   1.943   9.780  0.1775 -0.4754 -1.1086
  151SAPE   H2X16724   4.299   2.048   9.784 -2.9925  0.6291  1.0168
  151SAPE   H2Y16725   4.182   1.930   9.704 -1.6527  1.3417  0.4175
  151SAPE   C2316726   4.007   1.706   9.603 -0.7291  0.8895 -0.0207
  151SAPE   H3R16727   4.114   1.676   9.610 -1.3258 -1.8065 -1.6879
  151SAPE   H3S16728   3.998   1.816   9.585 -1.0484  0.9139  0.2878
  151SAPE   C2416729   3.964   1.639   9.477  0.2780 -0.4423 -0.5301
  151SAPE   H4R16730   3.855   1.648   9.463 -0.1743 -1.2234  2.1687
  151SAPE   H4S16731   3.977   1.530   9.495 -0.6921 -0.6046 -0.7921
  151SAPE   C2516732   4.030   1.680   9.346 -0.3781  0.3391  0.5932
  151SAPE   H5R16733   4.135   1.711   9.352  0.1670 -0.4106 -3.2964
  151SAPE   C2616734   3.980   1.680   9.216  0.3883  0.7088  0.5436
  151SAPE   H6R16735   4.049   1.701   9.132  1.0142  0.7525  1.0629
  151SAPE   C2716736   3.844   1.619   9.175  0.3106 -0.0487 -0.3513
  151SAPE   H7R16737   3.833   1.634   9.065 -0.0210  1.4969 -0.1194
  151SAPE   H7S16738   3.758   1.672   9.223  1.1656  2.6358 -1.6559
  151SAPE   C2816739   3.843   1.469   9.195 -1.3130 -0.5618  0.0778
  151SAPE   H8R16740   3.942   1.427   9.218  0.4798  1.9806 -2.5774
  151SAPE   C2916741   3.743   1.394   9.227  0.5103  0.0294 -0.4706
  151SAPE   H9R16742   3.758   1.289   9.255  1.1968  0.1278 -0.4572
  151SAPE  C21016743   3.599   1.449   9.239  0.6973  0.8240  0.3201
  151SAPE  H10R16744   3.582   1.551   9.198 -0.7473  0.1374 -0.8353
  151SAPE  H10S16745   3.569   1.465   9.345  2.0804  0.9235  0.7063
  151SAPE  C21116746   3.490   1.371   9.166  0.8189 -0.3738  0.0393
  151SAPE  H11R16747   3.525   1.271   9.136 -1.6527 -0.8451 -1.4332
  151SAPE  C21216748   3.365   1.412   9.154  0.5199 -0.7194 -0.3752
  151SAPE  H12R16749   3.308   1.351   9.082 -0.5835 -0.0915 -0.0461
  151SAPE  C21316750   3.316   1.546   9.201 -0.0202  0.4347 -0.1252
  151SAPE  H13R16751   3.351   1.634   9.143 -1.3485  0.9102 -0.2083
  151SAPE  H13S16752   3.350   1.560   9.306 -0.3744  0.6888 -0.0430
  151SAPE  C21416753   3.157   1.556   9.191  0.2333  0.7977  0.5454
  151SAPE  H14R16754   3.111   1.513   9.282  0.2836  0.5374  0.4471
  151SAPE  C21516755   3.081   1.597   9.085  0.2283  0.6838  0.3300
  151SAPE  H15R16756   2.971   1.597   9.085  0.2263  0.9577  0.4430
  151SAPE  C21616757   3.132   1.651   8.957 -0.0025  0.6837 -0.4061
  151SAPE  H16R16758   3.241   1.672   8.953 -0.6113  3.9148 -1.3864
  151SAPE  H16S16759   3.073   1.743   8.938  0.4309  1.0092 -0.1845
  151SAPE  C21716760   3.116   1.562   8.828  0.4033 -0.1663  0.7209
  151SAPE  H17R16761   3.008   1.541   8.809  0.3260 -0.7920  1.7802
  151SAPE  H17S16762   3.166   1.463   8.842  0.0277 -0.2793  1.2845
  151SAPE  C21816763   3.176   1.622   8.703  0.2734 -0.7266 -0.0425
  151SAPE  H18R16764   3.274   1.667   8.729 -1.3137  2.0386  1.3610
  151SAPE  H18S16765   3.109   1.706   8.677 -0.6789 -1.0690  1.2281
  151SAPE  C21916766   3.197   1.532   8.579  0.3473 -0.4723 -0.3254
  151SAPE  H19R16767   3.275   1.455   8.599  0.1129 -0.1040  2.1606
  151SAPE  H19S16768   3.230   1.595   8.494 -1.3673 -0.0000 -0.6659
  151SAPE  C22016769   3.063   1.468   8.535 -0.1987 -0.0733  0.0804
  151SAPE  H20R16770   2.990   1.552   8.533 -2.2587 -1.8031 -0.2083
  151SAPE  H20S16771   3.035   1.387   8.605  2.6876 -0.1226  1.2125
  151SAPE  H20T16772   3.067   1.418   8.435  1.1864  0.3244 -0.0750
  151SAPE   C3316773   4.384   1.863   9.737  0.6141 -0.3548  0.6099
  151SAPE   H3X16774   4.357   1.755   9.729 -0.6867 -0.0686  0.9243
  151SAPE   H3Y16775   4.464   1.868   9.813  0.6034 -1.8809  0.7455
  151SAPE   C3416776   4.443   1.907   9.603  0.4302  0.7610 -0.3497
  151SAPE   H4X16777   4.541   1.858   9.589  0.1164  0.6079 -2.1461
  151SAPE   H4Y16778   4.459   2.017   9.598  1.3871  0.6631  0.4167
  151SAPE   C3516779   4.371   1.870   9.473 -0.0875 -0.6053 -0.3500
  151SAPE   H5X16780   4.273   1.921   9.459  2.6302  4.4464 -2.1370
  151SAPE   H5Y16781   4.354   1.760   9.480  0.9121 -0.6898  0.7497
  151SAPE   C3616782   4.448   1.886   9.342 -0.0020  0.3533 -0.2346
  151SAPE   H6X16783   4.557   1.877   9.361 -0.2768 -0.9842  0.8475
  151SAPE   H6Y16784   4.435   1.993   9.315  0.4290  1.5473  3.8821
  151SAPE   C3716785   4.402   1.797   9.230 -0.4208 -0.2856 -0.0508
  151SAPE   H7X16786   4.292   1.782   9.233 -0.3005 -1.4957 -1.1932
  151SAPE   H7Y16787   4.453   1.698   9.238  0.9603  0.5814  2.1375
  151SAPE   C3816788   4.441   1.854   9.089 -0.1772  0.2745 -0.0675
  151SAPE   H8X16789   4.547   1.889   9.089 -0.0085 -0.2009 -1.1806
  151SAPE   H8Y16790   4.377   1.944   9.083 -1.1047 -0.4425 -1.1900
  151SAPE   C3916791   4.418   1.754   8.970 -0.1993 -0.5767 -1.2532
  151SAPE   H9X16792   4.310   1.733   8.955 -0.9114  0.7735  1.5177
  151SAPE   H9Y16793   4.475   1.663   9.001 -1.2156 -1.0268 -0.6947
  151SAPE  C31016794   4.481   1.806   8.839  0.2826  0.2058  0.3566
  151SAPE  H10X16795   4.583   1.840   8.865  1.2298 -3.1150  1.3116
  151SAPE  H10Y16796   4.443   1.906   8.812 -0.6955  0.6382  3.0994
  151SAPE  C31116797   4.470   1.711   8.719  0.5207  0.5669 -0.4391
  151SAPE  H11X16798   4.373   1.655   8.718  1.4079 -1.0464  0.9000
  151SAPE  H11Y16799   4.546   1.631   8.733 -0.4336 -0.8568 -3.0948
  151SAPE  C31216800   4.483   1.787   8.585  0.6067  0.1577  0.0003
  151SAPE  H12X16801   4.592   1.809   8.590  1.1799 -2.0625 -1.8147
  151SAPE  H12Y16802   4.418   1.876   8.575  0.2125 -0.3150 -1.7279
  151SAPE  C31316803   4.449   1.692   8.466  0.4263 -0.8908 -0.4047
  151SAPE  H13X16804   4.484   1.589   8.492  1.3551 -0.6559 -0.6910
  151SAPE  H13Y16805   4.509   1.709   8.374 -1.2015 -1.1188 -1.5377
  151SAPE  C31416806   4.299   1.676   8.429 -0.6373 -0.1690 -0.0454
  151SAPE  H14X16807   4.257   1.773   8.395 -0.2926  0.4082  1.1573
  151SAPE  H14Y16808   4.244   1.638   8.518 -0.6213  1.2325  0.5893
  151SAPE  C31516809   4.282   1.584   8.297  0.4248 -0.3038  0.4660
  151SAPE  H15X16810   4.310   1.477   8.311 -0.4250 -0.6668 -0.5041
  151SAPE  H15Y16811   4.343   1.625   8.214  0.0541 -1.1500 -0.2364
  151SAPE  C31616812   4.139   1.586   8.249  0.3814 -0.3619  0.8346
  151SAPE  H16X16813   4.127   1.694   8.225 -1.4342 -0.9151 -0.9264
  151SAPE  H16Y16814   4.083   1.566   8.343  1.3411 -3.4942  0.7963
  151SAPE  C31716815   4.112   1.496   8.131  0.4496  0.7673 -0.0053
  151SAPE  H17X16816   4.101   1.389   8.158 -0.4907  1.1126  0.9922
  151SAPE  H17Y16817   4.198   1.505   8.061  0.5441 -2.1119 -0.3127
  151SAPE  C31816818   3.993   1.533   8.045  0.3874 -0.1749 -0.8967
  151SAPE  H18X16819   4.006   1.638   8.011  2.8980  0.1861  0.9731
  151SAPE  H18Y16820   3.895   1.522   8.096  1.1263  0.7183  0.7797
  151SAPE  H18Z16821   3.984   1.475   7.951 -2.8747 -1.9699  0.4503
  152SAPE     N16822   5.291   0.177  10.730 -0.5151  0.2886  0.2412
  152SAPE   HN116823   5.367   0.108  10.747 -0.2101  0.4464 -0.4651
  152SAPE   HN216824   5.319   0.271  10.763  1.9419 -0.6325  0.8789
  152SAPE   HN316825   5.205   0.148  10.781 -0.8402 -0.2834 -0.6174
  152SAPE   C1216826   5.276   0.187  10.578  0.1858  0.2489 -0.0640
  152SAPE  H12A16827   5.189   0.253  10.558 -0.8521 -1.3998 -1.0611
  152SAPE  H12B16828   5.259   0.084  10.539  1.6354 -0.2611  0.6263
  152SAPE   C1116829   5.407   0.249  10.506 -0.2596  0.1664 -0.8704
  152SAPE  H11A16830   5.394   0.243  10.396  0.6013  3.0794 -1.1766
  152SAPE  H11B16831   5.495   0.182  10.523 -1.6760 -1.7431 -0.8552
  152SAPE     P16832   5.369   0.503  10.507 -0.0429  0.4960 -0.0479
  152SAPE   O1316833   5.228   0.484  10.528 -0.1465 -0.6220 -0.7920
  152SAPE   O1416834   5.435   0.616  10.583  0.2171  0.7479  0.0717
  152SAPE   O1216835   5.450   0.380  10.549  0.1920  0.3865 -0.1001
  152SAPE   O1116836   5.407   0.520  10.343  0.1765 -0.3105 -0.0639
  152SAPE    C116837   5.546   0.515  10.321 -0.0307  0.6042 -0.6233
  152SAPE    HA16838   5.596   0.593  10.382 -0.1851  0.6685 -0.5802
  152SAPE    HB16839   5.585   0.419  10.362  0.0946  0.9840  0.1530
  152SAPE    C216840   5.580   0.551  10.175 -0.0543  0.8595 -0.2245
  152SAPE    HS16841   5.687   0.524  10.166 -0.2298 -0.1961  0.7186
  152SAPE   O2116842   5.543   0.685  10.144 -0.4994 -0.4630  0.0414
  152SAPE   C2116843   5.635   0.750  10.066  0.3563  0.6972 -0.5436
  152SAPE   O2216844   5.717   0.696   9.998 -0.1555 -0.2845 -0.2707
  152SAPE   C2216845   5.616   0.902  10.081  0.1670  0.5308  0.1101
  152SAPE   H2R16846   5.508   0.928  10.090  0.5947  2.6122 -0.3933
  152SAPE   H2S16847   5.681   0.926  10.167  0.0306  3.6275 -0.5652
  152SAPE    C316848   5.502   0.451  10.077 -0.3875 -0.3499  0.4642
  152SAPE    HX16849   5.396   0.443  10.110 -1.9628  1.3660 -3.9007
  152SAPE    HY16850   5.541   0.348  10.094 -1.4799 -1.0451 -1.1827
  152SAPE   O3116851   5.492   0.492   9.941  0.1192 -0.0880 -0.5623
  152SAPE   C3116852   5.588   0.452   9.860 -0.7822 -0.3374  0.3505
  152SAPE   O3216853   5.674   0.371   9.892  0.0047 -0.7739  0.2969
  152SAPE   C3216854   5.574   0.500   9.717 -0.0826  0.2209 -0.1466
  152SAPE   H2X16855   5.588   0.610   9.716 -0.8252  0.3365  0.5718
  152SAPE   H2Y16856   5.471   0.468   9.690  0.2340 -3.3972  2.6182
  152SAPE   C2316857   5.682   0.985   9.967  0.1113 -0.4582 -0.7791
  152SAPE   H3R16858   5.785   0.946   9.952  0.0308 -1.3986  0.9568
  152SAPE   H3S16859   5.692   1.088  10.006 -0.5532 -1.0621  1.0327
  152SAPE   C2416860   5.610   0.992   9.832  0.2206 -0.5631  0.0706
  152SAPE   H4R16861   5.573   0.892   9.803  0.5630 -0.2516 -1.4770
  152SAPE   H4S16862   5.679   1.015   9.749 -0.7877  2.6243  0.0268
  152SAPE   C2516863   5.495   1.090   9.833  0.0261 -0.3772 -0.7342
  152SAPE   H5R16864   5.464   1.129   9.930 -2.0317 -0.3364 -1.3802
  152SAPE   C2616865   5.433   1.143   9.725  0.5871 -0.3918 -0.2084
  152SAPE   H6R16866   5.348   1.208   9.749 -1.1115 -1.9822 -1.6726
  152SAPE   C2716867   5.457   1.131   9.581 -0.2059 -0.2536 -0.2933
  152SAPE   H7R16868   5.361   1.116   9.527 -0.9042 -0.2334  0.9227
  152SAPE   H7S16869   5.522   1.047   9.551 -0.0610  1.0168 -3.7636
  152SAPE   C2816870   5.517   1.251   9.524 -0.0682 -0.0667 -0.2367
  152SAPE   H8R16871   5.531   1.335   9.594  1.4920 -0.7366  0.2817
  152SAPE   C2916872   5.561   1.267   9.398  0.3212 -0.5037  0.2428
  152SAPE   H9R16873   5.600   1.363   9.360 -0.0519 -1.4198 -2.6285
  152SAPE  C21016874   5.558   1.160   9.287 -0.1938  0.0286 -0.1876
  152SAPE  H10R16875   5.621   1.078   9.326  1.0314  0.5086 -1.1278
  152SAPE  H10S16876   5.621   1.194   9.203 -1.9095  0.2122 -1.4241
  152SAPE  C21116877   5.433   1.104   9.222  0.1867 -0.1514  0.8650
  152SAPE  H11R16878   5.415   0.999   9.247 -1.3512  0.1020  0.8455
  152SAPE  C21216879   5.361   1.159   9.115 -0.5430  0.4304 -1.0888
  152SAPE  H12R16880   5.292   1.091   9.063 -0.2615 -0.2285 -0.6067
  152SAPE  C21316881   5.387   1.294   9.058  0.0536  0.0414  0.1554
  152SAPE  H13R16882   5.468   1.351   9.108 -0.5670  0.1222  1.0922
  152SAPE  H13S16883   5.300   1.361   9.080 -0.5850  0.2688 -2.8786
  152SAPE  C21416884   5.411   1.287   8.910  0.1223 -0.9467  0.6915
  152SAPE  H14R16885   5.514   1.296   8.872 -0.4857 -2.4465 -1.4394
  152SAPE  C21516886   5.315   1.261   8.816 -0.6653  0.3819 -0.0498
  152SAPE  H15R16887   5.339   1.238   8.711  0.2152 -1.7872  0.6038
  152SAPE  C21616888   5.172   1.241   8.830  0.6337 -0.2429  0.9327
  152SAPE  H16R16889   5.113   1.328   8.795  0.9968 -0.2967  0.1714
  152SAPE  H16S16890   5.142   1.228   8.936 -0.3486  3.0676  1.0951
  152SAPE  C21716891   5.124   1.114   8.765  0.5161  0.0614  0.3039
  152SAPE  H17R16892   5.179   1.022   8.793 -1.8026 -1.6248 -0.5026
  152SAPE  H17S16893   5.133   1.119   8.654  2.0625  0.9950  0.4551
  152SAPE  C21816894   4.978   1.094   8.799  0.8103  0.3176 -0.2390
  152SAPE  H18R16895   4.935   1.196   8.791  1.2660  0.7409  2.3479
  152SAPE  H18S16896   4.974   1.054   8.903  0.0978 -0.4020 -0.5374
  152SAPE  C21916897   4.898   0.994   8.716 -0.2055 -0.5434 -0.0546
  152SAPE  H19R16898   4.924   0.888   8.737  0.5166 -0.3673 -0.0425
  152SAPE  H19S16899   4.900   1.014   8.607  0.2116 -1.6997 -0.2679
  152SAPE  C22016900   4.748   1.008   8.761  0.1413  0.9251  0.0610
  152SAPE  H20R16901   4.679   0.963   8.686 -1.0668  0.1180  1.6263
  152SAPE  H20S16902   4.725   1.116   8.753  0.5305  0.8128 -4.1288
  152SAPE  H20T16903   4.737   0.965   8.863 -3.0926  1.2932 -0.0861
  152SAPE   C3316904   5.672   0.435   9.620 -0.4732  0.1978 -0.3861
  152SAPE   H3X16905   5.674   0.325   9.629 -2.7469 -0.0114 -1.8655
  152SAPE   H3Y16906   5.777   0.470   9.633 -0.4157  0.8078 -2.3234
  152SAPE   C3416907   5.651   0.490   9.477  0.0942  0.0260  0.1797
  152SAPE   H4X16908   5.655   0.600   9.483 -1.3793  0.0480  0.9035
  152SAPE   H4Y16909   5.562   0.437   9.435  2.2503 -2.2265 -1.7804
  152SAPE   C3516910   5.770   0.427   9.396  0.7843  0.8444 -0.5282
  152SAPE   H5X16911   5.752   0.322   9.363 -1.5698  0.7772  0.8072
  152SAPE   H5Y16912   5.863   0.437   9.455  0.2459  0.3797  0.4133
  152SAPE   C3616913   5.803   0.509   9.264  0.8373 -0.1761  0.3370
  152SAPE   H6X16914   5.898   0.470   9.223 -1.0712 -1.9814 -2.5447
  152SAPE   H6Y16915   5.820   0.615   9.291  0.5616 -0.1624  0.4642
  152SAPE   C3716916   5.682   0.493   9.172 -0.1937  0.2430  0.2805
  152SAPE   H7X16917   5.586   0.535   9.209  0.0842  2.3269 -1.2721
  152SAPE   H7Y16918   5.673   0.385   9.149 -0.2141 -0.0055  1.4012
  152SAPE   C3816919   5.705   0.576   9.044  0.0200  0.5828 -0.0201
  152SAPE   H8X16920   5.735   0.680   9.067 -0.1711  0.6397 -0.0250
  152SAPE   H8Y16921   5.613   0.572   8.981 -0.0106 -2.0410  0.1099
  152SAPE   C3916922   5.819   0.512   8.961  0.4471  0.6903 -0.9781
  152SAPE   H9X16923   5.800   0.407   8.929 -2.0106  0.8994 -0.3036
  152SAPE   H9Y16924   5.916   0.539   9.007  0.8082 -0.6656 -0.9322
  152SAPE  C31016925   5.817   0.583   8.823  0.1453  0.5577  0.2171
  152SAPE  H10X16926   5.834   0.692   8.835  1.5872  0.3511  0.1592
  152SAPE  H10Y16927   5.719   0.581   8.771 -0.6941 -0.5078  1.7885
  152SAPE  C31116928   5.921   0.527   8.720 -0.1820  0.6181 -0.2431
  152SAPE  H11X16929   5.906   0.417   8.711 -0.2012  0.5796  0.2539
  152SAPE  H11Y16930   6.014   0.555   8.774 -0.8593  1.8453  0.3020
  152SAPE  C31216931   5.905   0.576   8.581 -0.0972  0.0365  0.6686
  152SAPE  H12X16932   5.798   0.563   8.554 -0.2675  0.5470  1.1025
  152SAPE  H12Y16933   5.968   0.523   8.506  2.3278  3.0274  0.5300
  152SAPE  C31316934   5.929   0.728   8.557 -0.1682  0.6521  0.2749
  152SAPE  H13X16935   6.033   0.749   8.590  0.9866 -0.2953 -2.6063
  152SAPE  H13Y16936   5.859   0.788   8.619  0.8438  2.1758 -0.0168
  152SAPE  C31416937   5.925   0.760   8.410  0.7803  1.0315 -0.0092
  152SAPE  H14X16938   5.825   0.745   8.364  1.1351  0.3465 -0.5751
  152SAPE  H14Y16939   6.001   0.707   8.348 -0.0650 -0.7846  0.4928
  152SAPE  C31516940   5.962   0.911   8.391  0.0892  0.2579  0.9389
  152SAPE  H15X16941   6.060   0.930   8.440  2.2218  1.4136 -3.5612
  152SAPE  H15Y16942   5.894   0.971   8.456  1.3204  1.3437  1.2481
  152SAPE  C31616943   5.968   0.968   8.240 -0.6929 -0.2810  0.2448
  152SAPE  H16X16944   5.990   1.077   8.243 -0.1590 -0.2245 -3.1614
  152SAPE  H16Y16945   5.864   0.952   8.203 -1.0769  0.7263  0.8699
  152SAPE  C31716946   6.074   0.903   8.151 -0.7952 -0.2499 -0.0570
  152SAPE  H17X16947   6.084   0.963   8.057  1.8977 -1.0906 -0.3402
  152SAPE  H17Y16948   6.048   0.801   8.115 -1.2180  1.1055 -3.8681
  152SAPE  C31816949   6.213   0.885   8.222 -0.5432  0.1326  0.0492
  152SAPE  H18X16950   6.286   0.837   8.152 -2.0129  0.2283 -1.5872
  152SAPE  H18Y16951   6.200   0.829   8.317 -1.1967 -1.4996 -0.9785
  152SAPE  H18Z16952   6.253   0.984   8.252 -2.8363  1.2317 -0.4222
  153SAPE     N16953   5.144   1.833  10.382 -0.1246 -0.2000 -0.0002
  153SAPE   HN116954   5.193   1.830  10.474 -1.3504 -1.6728  0.6235
  153SAPE   HN216955   5.045   1.808  10.402 -0.5968  2.0883  0.6755
  153SAPE   HN316956   5.188   1.760  10.323 -0.3163  0.8026 -1.4205
  153SAPE   C1216957   5.146   1.964  10.308  0.0246  0.0860  0.6562
  153SAPE  H12A16958   5.074   2.028  10.362 -0.2090  1.0373 -0.7672
  153SAPE  H12B16959   5.109   1.956  10.204  1.3205  2.2477 -0.0122
  153SAPE   C1116960   5.285   2.031  10.313 -0.0933  0.1588  0.1134
  153SAPE  H11A16961   5.278   2.123  10.252 -2.2308 -0.7569 -1.0811
  153SAPE  H11B16962   5.361   1.967  10.264 -0.4430  0.3430 -0.6688
  153SAPE     P16963   5.456   2.001  10.508  0.3674  0.2052  0.2810
  153SAPE   O1316964   5.510   2.082  10.614  0.2703  0.1503  0.4044
  153SAPE   O1416965   5.413   1.863  10.533  0.4626 -0.5081 -0.2631
  153SAPE   O1216966   5.326   2.070  10.448  0.6628  0.1601 -0.3280
  153SAPE   O1116967   5.565   1.991  10.393 -0.8532 -0.1610  0.0553
  153SAPE    C116968   5.683   2.070  10.376 -0.5588 -0.4108 -0.4470
  153SAPE    HA16969   5.682   2.149  10.454  1.5161  1.3639 -2.1420
  153SAPE    HB16970   5.776   2.011  10.391 -0.1544  0.4316  0.3916
  153SAPE    C216971   5.691   2.130  10.235  0.3375  0.0782 -0.2105
  153SAPE    HS16972   5.786   2.185  10.220  0.1532  0.6638  0.7917
  153SAPE   O2116973   5.580   2.219  10.215  0.4418  0.0137 -0.0363
  153SAPE   C2116974   5.576   2.339  10.271  0.2032 -0.2212 -0.2426
  153SAPE   O2216975   5.658   2.381  10.355 -0.0519 -0.1595  0.6346
  153SAPE   C2216976   5.469   2.432  10.207 -0.1780  0.5064  0.2719
  153SAPE   H2R16977   5.401   2.474  10.285 -1.4136 -2.3016  0.7734
  153SAPE   H2S16978   5.534   2.517  10.176  0.9694 -0.6819 -0.5874
  153SAPE    C316979   5.697   2.021  10.127 -0.4945 -0.2608 -0.1459
  153SAPE    HX16980   5.602   1.963  10.130  0.4894 -1.8862  0.6125
  153SAPE    HY16981   5.768   1.941  10.158  2.0063  0.7426 -2.9824
  153SAPE   O3116982   5.737   2.063   9.996  0.3310 -0.0584  0.5003
  153SAPE   C3116983   5.640   2.065   9.904 -0.2227 -0.8419  0.8066
  153SAPE   O3216984   5.521   2.048   9.922  0.1046  0.2664  0.0739
  153SAPE   C3216985   5.698   2.097   9.758 -0.0735 -0.1456  0.7490
  153SAPE   H2X16986   5.797   2.046   9.747 -0.2151 -0.3597  0.4650
  153SAPE   H2Y16987   5.722   2.205   9.765 -1.3480  0.0695  2.0983
  153SAPE   C2316988   5.371   2.372  10.100  0.4988 -0.0490 -0.1726
  153SAPE   H3R16989   5.299   2.297  10.139  0.6057 -0.0652 -0.0048
  153SAPE   H3S16990   5.427   2.318  10.020 -1.5379 -0.9130 -1.0442
  153SAPE   C2416991   5.290   2.477  10.021 -0.0555 -0.7904  0.2212
  153SAPE   H4R16992   5.216   2.515  10.094  0.1632 -1.2031  0.6559
  153SAPE   H4S16993   5.233   2.414   9.948 -0.5432 -1.1633  0.9215
  153SAPE   C2516994   5.358   2.591   9.941  0.5997  0.0800  0.5548
  153SAPE   H5R16995   5.383   2.678  10.004 -1.5784  1.4352 -0.3947
  153SAPE   C2616996   5.383   2.591   9.810 -0.0624  0.3458  0.3427
  153SAPE   H6R16997   5.422   2.680   9.759 -1.1373  1.8849  2.1349
  153SAPE   C2716998   5.358   2.475   9.723 -0.1553  0.2662 -0.6626
  153SAPE   H7R16999   5.258   2.487   9.677 -0.8775 -0.0503  0.8038
  153SAPE   H7S17000   5.361   2.384   9.785 -0.5846  0.8587  0.2416
  153SAPE   C2817001   5.476   2.452   9.632 -0.1442  0.1177 -0.1645
  153SAPE   H8R17002   5.564   2.433   9.694 -0.7632 -1.3325  0.2863
  153SAPE   C2917003   5.489   2.464   9.497 -0.2121  0.2666 -0.3062
  153SAPE   H9R17004   5.585   2.443   9.448  0.0507 -1.7098  0.9811
  153SAPE  C21017005   5.374   2.496   9.413  0.2377 -0.5249 -0.1595
  153SAPE  H10R17006   5.279   2.462   9.458  0.4908  0.5157  1.1998
  153SAPE  H10S17007   5.381   2.435   9.320 -1.4004 -0.3318 -0.4309
  153SAPE  C21117008   5.396   2.640   9.364  0.7706 -0.2677  0.2161
  153SAPE  H11R17009   5.391   2.719   9.440  2.4902 -0.0897  0.1744
  153SAPE  C21217010   5.399   2.677   9.233 -0.4543 -0.0978  0.3582
  153SAPE  H12R17011   5.405   2.783   9.207 -2.6701 -0.2417 -0.8311
  153SAPE  C21317012   5.392   2.585   9.110 -0.9210  0.1332  0.3454
  153SAPE  H13R17013   5.342   2.490   9.139  2.3605 -1.3817  1.2777
  153SAPE  H13S17014   5.497   2.566   9.077 -1.0672  3.6943 -2.5144
  153SAPE  C21417015   5.312   2.647   8.992 -0.0876 -0.4633  0.6568
  153SAPE  H14R17016   5.355   2.746   8.971  0.7736 -1.4207 -2.4009
  153SAPE  C21517017   5.208   2.595   8.927 -0.3229 -0.7417  0.1483
  153SAPE  H15R17018   5.174   2.655   8.842  1.5612 -0.0934 -0.1679
  153SAPE  C21617019   5.134   2.469   8.961  0.1478 -0.4751 -0.6748
  153SAPE  H16R17020   5.026   2.492   8.946 -0.1905 -0.5504  1.5060
  153SAPE  H16S17021   5.146   2.434   9.065  0.7608 -2.0356 -1.2566
  153SAPE  C21717022   5.175   2.349   8.877  0.0297  0.0690  0.2949
  153SAPE  H17R17023   5.116   2.260   8.909  0.7224 -0.3339  0.4581
  153SAPE  H17S17024   5.283   2.328   8.892  1.2635  4.5640 -1.3137
  153SAPE  C21817025   5.153   2.375   8.720 -0.8815 -0.3683 -0.4618
  153SAPE  H18R17026   5.245   2.429   8.690 -2.1264  1.6696 -0.6971
  153SAPE  H18S17027   5.066   2.442   8.703 -0.1955  0.7361  0.3243
  153SAPE  C21917028   5.140   2.241   8.644 -0.3668  0.3187  0.0145
  153SAPE  H19R17029   5.128   2.262   8.535  0.0988 -1.2353 -0.3542
  153SAPE  H19S17030   5.047   2.193   8.679 -1.9112  0.1028 -4.0470
  153SAPE  C22017031   5.261   2.141   8.655 -0.0501 -0.5631  0.0302
  153SAPE  H20R17032   5.247   2.063   8.577 -0.2334 -0.2216 -0.2834
  153SAPE  H20S17033   5.272   2.107   8.760 -0.3896 -3.0483 -0.7108
  153SAPE  H20T17034   5.346   2.200   8.615  0.5647 -0.6903  1.1434
  153SAPE   C3317035   5.611   2.056   9.640  0.0730 -0.7210 -0.2947
  153SAPE   H3X17036   5.509   2.098   9.636 -0.4096 -1.9084 -0.8563
  153SAPE   H3Y17037   5.599   1.945   9.639 -0.7822 -0.6258 -1.5332
  153SAPE   C3417038   5.668   2.102   9.508  0.5299 -0.2616  0.3271
  153SAPE   H4X17039   5.748   2.033   9.474  0.8193 -0.9446  2.3247
  153SAPE   H4Y17040   5.719   2.200   9.507  0.3927 -0.1882  0.6502
  153SAPE   C3517041   5.566   2.105   9.387  0.3144  0.1029  0.7542
  153SAPE   H5X17042   5.486   2.178   9.412  0.4760  0.6487 -0.2784
  153SAPE   H5Y17043   5.514   2.009   9.370  1.5815 -0.4139 -0.2951
  153SAPE   C3617044   5.631   2.159   9.260 -0.4533  0.4953 -0.1194
  153SAPE   H6X17045   5.703   2.084   9.220 -1.0705  1.2202 -2.7324
  153SAPE   H6Y17046   5.697   2.246   9.283  0.8838 -0.5366  0.0341
  153SAPE   C3717047   5.526   2.199   9.150  0.0359  0.2209  0.5929
  153SAPE   H7X17048   5.569   2.264   9.071  0.1016 -1.3601 -0.7057
  153SAPE   H7Y17049   5.441   2.251   9.199  0.9713  1.9809  0.3835
  153SAPE   C3817050   5.470   2.086   9.065  0.2385  0.1242  0.1828
  153SAPE   H8X17051   5.417   2.128   8.977  1.2241  0.7625 -0.1083
  153SAPE   H8Y17052   5.389   2.025   9.112  0.8063 -0.3699  0.5272
  153SAPE   C3917053   5.578   1.992   9.003  0.4339 -0.4203 -0.1342
  153SAPE   H9X17054   5.619   1.927   9.084  3.6533  0.6350 -0.8202
  153SAPE   H9Y17055   5.658   2.065   8.974  0.4689 -0.5792 -0.4373
  153SAPE  C31017056   5.539   1.923   8.873  0.2100  0.0858  0.0234
  153SAPE  H10X17057   5.535   2.010   8.804  2.5930 -0.1876 -0.5144
  153SAPE  H10Y17058   5.438   1.880   8.885  0.1410  0.2162 -0.0761
  153SAPE  C31117059   5.641   1.817   8.832 -0.2972  0.1357 -0.3071
  153SAPE  H11X17060   5.636   1.726   8.896  1.0206 -0.2611 -0.7379
  153SAPE  H11Y17061   5.742   1.860   8.850  0.3491 -1.1659 -0.7568
  153SAPE  C31217062   5.633   1.779   8.681 -0.3429 -0.1541 -0.1611
  153SAPE  H12X17063   5.723   1.732   8.636  0.6400  0.3683  1.2104
  153SAPE  H12Y17064   5.628   1.878   8.630  0.5100  0.4491  0.8880
  153SAPE  C31317065   5.518   1.683   8.642  0.1921 -0.0672 -0.3932
  153SAPE  H13X17066   5.426   1.712   8.697  0.3058  1.2315 -0.8732
  153SAPE  H13Y17067   5.558   1.584   8.671  0.7801 -0.1193 -1.3418
  153SAPE  C31417068   5.491   1.672   8.489 -0.4837  0.0887  0.0550
  153SAPE  H14X17069   5.588   1.659   8.437  0.3179  1.2514  1.2342
  153SAPE  H14Y17070   5.453   1.769   8.451  0.2440  0.7825  1.0802
  153SAPE  C31517071   5.402   1.559   8.455  0.3260  0.0597 -0.3579
  153SAPE  H15X17072   5.440   1.473   8.515 -3.0265 -0.8369  0.6188
  153SAPE  H15Y17073   5.401   1.536   8.346 -2.7573  2.4339 -0.9258
  153SAPE  C31617074   5.246   1.581   8.490 -0.0452  1.0686 -0.5716
  153SAPE  H16X17075   5.242   1.597   8.600 -2.9311 -1.6899 -0.1766
  153SAPE  H16Y17076   5.188   1.490   8.462  1.0182  0.2203 -0.0423
  153SAPE  C31717077   5.192   1.702   8.418  0.0138 -0.5108  0.0907
  153SAPE  H17X17078   5.245   1.798   8.434  0.6818 -0.5199 -1.9676
  153SAPE  H17Y17079   5.092   1.711   8.465 -0.4095 -2.4215 -0.3815
  153SAPE  C31817080   5.187   1.682   8.268  0.2122 -0.4443  0.0507
  153SAPE  H18X17081   5.282   1.661   8.214 -1.1404  0.8468 -2.9354
  153SAPE  H18Y17082   5.131   1.766   8.222  0.9577  0.4171  0.7320
  153SAPE  H18Z17083   5.126   1.594   8.237  1.6121 -1.2343 -0.4661
  154SAPE     N17084   6.373   1.851  10.968  0.1056 -0.0274 -0.3303
  154SAPE   HN117085   6.313   1.812  11.043  0.9206  0.3435  0.5291
  154SAPE   HN217086   6.386   1.953  10.985  0.9060 -0.3817  1.3065
  154SAPE   HN317087   6.331   1.835  10.875  1.5867  3.5052 -1.7081
  154SAPE   C1217088   6.508   1.787  10.976  0.0816  0.1171 -0.0455
  154SAPE  H12A17089   6.514   1.710  11.055  2.1078 -0.3907 -0.6762
  154SAPE  H12B17090   6.577   1.871  10.999  0.2717  0.2310 -1.0129
  154SAPE   C1117091   6.545   1.727  10.841 -0.5151  0.0285 -0.1073
  154SAPE  H11A17092   6.651   1.697  10.826 -0.7081 -0.6551 -0.1313
  154SAPE  H11B17093   6.542   1.811  10.769  2.0068 -0.7765 -1.2069
  154SAPE     P17094   6.462   1.512  10.704 -0.1434  0.2622 -0.0007
  154SAPE   O1317095   6.558   1.420  10.766  0.1013 -0.3802 -0.0431
  154SAPE   O1417096   6.331   1.448  10.687  0.0401 -0.0147 -0.1550
  154SAPE   O1217097   6.440   1.638  10.799  0.0368 -0.0810 -0.5660
  154SAPE   O1117098   6.514   1.575  10.565 -0.2114 -0.1762 -0.5131
  154SAPE    C117099   6.420   1.640  10.486  0.2228  0.4656 -0.3071
  154SAPE    HA17100   6.343   1.566  10.451 -0.3968  0.6990  0.5592
  154SAPE    HB17101   6.359   1.705  10.552  0.5645  1.2725 -0.7862
  154SAPE    C217102   6.489   1.729  10.380 -0.6334  0.0866 -0.1491
  154SAPE    HS17103   6.404   1.777  10.326 -1.0146 -0.3553  0.0564
  154SAPE   O2117104   6.576   1.641  10.294 -0.3207  1.0266 -0.0114
  154SAPE   C2117105   6.504   1.570  10.214  0.5263  0.3006  0.0081
  154SAPE   O2217106   6.383   1.568  10.211  0.9544 -0.4742 -0.7230
  154SAPE   C2217107   6.593   1.499  10.114  0.0237  0.7205 -0.4239
  154SAPE   H2R17108   6.692   1.550  10.114 -0.7982  2.3267 -0.2592
  154SAPE   H2S17109   6.623   1.404  10.163 -2.3186  0.7358  1.0836
  154SAPE    C317110   6.570   1.849  10.439 -0.5814  0.5973 -0.0509
  154SAPE    HX17111   6.668   1.808  10.473 -0.1169 -0.3687 -2.4711
  154SAPE    HY17112   6.514   1.889  10.526 -1.4485  0.0982 -0.3775
  154SAPE   O3117113   6.601   1.948  10.350  0.4688  0.5063  0.2939
  154SAPE   C3117114   6.507   2.037  10.324  0.5603  0.5025 -0.3855
  154SAPE   O3217115   6.397   2.048  10.373  0.1698 -0.1467 -0.1564
  154SAPE   C3217116   6.556   2.128  10.217  0.0567 -0.3508  0.8681
  154SAPE   H2X17117   6.536   2.072  10.124  1.5606 -0.1434  0.3986
  154SAPE   H2Y17118   6.663   2.152  10.237 -0.3736  2.2030  0.2788
  154SAPE   C2317119   6.525   1.488   9.975  0.2864  0.3788  0.2934
  154SAPE   H3R17120   6.493   1.588   9.938 -2.9218 -1.1033 -1.2141
  154SAPE   H3S17121   6.436   1.421   9.975  1.2568 -0.9540 -0.8556
  154SAPE   C2417122   6.621   1.438   9.858  0.1876 -0.0916  0.2543
  154SAPE   H4R17123   6.696   1.519   9.842 -4.7460  4.5214 -0.8650
  154SAPE   H4S17124   6.555   1.425   9.770 -1.7765  2.9977  1.1869
  154SAPE   C2517125   6.682   1.299   9.902  0.4576  0.6911 -0.6108
  154SAPE   H5R17126   6.755   1.314   9.983  1.2487  3.8343 -1.8156
  154SAPE   C2617127   6.636   1.183   9.852  0.3803 -0.9081 -0.4191
  154SAPE   H6R17128   6.680   1.092   9.895 -1.6210 -0.1490  3.5085
  154SAPE   C2717129   6.522   1.155   9.753 -0.2234 -0.6378 -0.2631
  154SAPE   H7R17130   6.510   1.245   9.689 -2.0621 -0.3985  0.3853
  154SAPE   H7S17131   6.427   1.148   9.810 -1.1322 -0.0975 -1.6720
  154SAPE   C2817132   6.534   1.027   9.683  0.6921  0.1348 -0.0835
  154SAPE   H8R17133   6.594   0.949   9.732  2.1378  0.5399 -1.1521
  154SAPE   C2917134   6.480   1.003   9.557 -0.3515 -0.0433  0.0892
  154SAPE   H9R17135   6.493   0.910   9.501  0.4986  0.2429 -0.1880
  154SAPE  C21017136   6.399   1.100   9.474  0.0909  0.0270 -0.4074
  154SAPE  H10R17137   6.476   1.165   9.427 -0.0304  0.9875  0.6903
  154SAPE  H10S17138   6.334   1.164   9.538 -1.1257 -0.5814 -1.0258
  154SAPE  C21117139   6.305   1.044   9.365 -0.0723 -0.0111 -0.6557
  154SAPE  H11R17140   6.201   1.042   9.400  0.3158  0.5224  0.5443
  154SAPE  C21217141   6.336   1.003   9.237  0.6390  0.2320 -0.1732
  154SAPE  H12R17142   6.268   0.959   9.162  0.6633 -2.3075  1.2277
  154SAPE  C21317143   6.477   1.006   9.188 -0.2325  0.0938 -0.7767
  154SAPE  H13R17144   6.526   1.089   9.244  1.0084 -2.0795  1.4438
  154SAPE  H13S17145   6.482   1.047   9.084  0.9501  0.3932 -0.6055
  154SAPE  C21417146   6.561   0.886   9.208 -0.0528  0.4149  0.0476
  154SAPE  H14R17147   6.586   0.880   9.315 -1.7335 -2.8655  0.3401
  154SAPE  C21517148   6.617   0.796   9.117 -0.3878 -0.0798 -0.0143
  154SAPE  H15R17149   6.671   0.708   9.152 -0.2528 -1.2487 -2.9963
  154SAPE  C21617150   6.591   0.807   8.970  0.3897 -0.5477 -1.0110
  154SAPE  H16R17151   6.500   0.868   8.950  1.4081  1.3395  0.0232
  154SAPE  H16S17152   6.559   0.712   8.923 -2.7696  0.6625 -1.4508
  154SAPE  C21717153   6.718   0.867   8.911 -0.1503  1.3084 -0.1461
  154SAPE  H17R17154   6.801   0.792   8.911 -0.5776  0.8319  0.5887
  154SAPE  H17S17155   6.746   0.964   8.958  1.5024 -0.2336  2.1920
  154SAPE  C21817156   6.704   0.899   8.763  0.8550 -0.1902 -0.4365
  154SAPE  H18R17157   6.608   0.952   8.748 -0.0903 -1.7447  0.0319
  154SAPE  H18S17158   6.721   0.813   8.694  2.1301 -0.1849 -0.1481
  154SAPE  C21917159   6.815   1.009   8.730  0.2435  0.0657  0.1243
  154SAPE  H19R17160   6.775   1.104   8.772 -1.4964  1.4580 -4.3419
  154SAPE  H19S17161   6.801   1.011   8.620 -0.5044 -0.2755  0.2085
  154SAPE  C22017162   6.966   0.990   8.756 -0.1773  0.1789  0.1837
  154SAPE  H20R17163   7.023   1.078   8.719  2.1709 -1.6775 -0.7492
  154SAPE  H20S17164   7.003   0.896   8.710 -0.3945 -0.2134  0.8203
  154SAPE  H20T17165   6.986   0.973   8.864  2.5193  3.0384  0.2381
  154SAPE   C3317166   6.483   2.263  10.217 -0.3833 -0.1319 -0.0778
  154SAPE   H3X17167   6.503   2.317  10.312  2.9000 -1.1166 -0.1455
  154SAPE   H3Y17168   6.374   2.238  10.217 -0.5631  0.5356  2.3461
  154SAPE   C3417169   6.516   2.345  10.092 -0.5518 -0.6988  0.4138
  154SAPE   H4X17170   6.623   2.372  10.080 -0.5847 -0.2674  1.0516
  154SAPE   H4Y17171   6.464   2.443  10.098  2.1877  0.9978 -2.1985
  154SAPE   C3517172   6.460   2.278   9.963 -0.2691 -0.3358 -0.0903
  154SAPE   H5X17173   6.351   2.263   9.977 -0.2038 -1.9817 -1.1312
  154SAPE   H5Y17174   6.503   2.178   9.940  2.5277  0.8409 -0.0618
  154SAPE   C3617175   6.474   2.365   9.845 -1.1413  0.7255  0.0776
  154SAPE   H6X17176   6.584   2.384   9.840 -1.0755 -0.1044 -1.9230
  154SAPE   H6Y17177   6.424   2.464   9.848 -3.5696 -0.4609 -0.1173
  154SAPE   C3717178   6.443   2.300   9.710 -0.1469 -0.1569  0.0139
  154SAPE   H7X17179   6.336   2.272   9.703  0.2593 -2.1034  1.2098
  154SAPE   H7Y17180   6.497   2.204   9.703  0.3325  0.1768 -0.8414
  154SAPE   C3817181   6.484   2.384   9.594  0.0606 -0.1773  0.3101
  154SAPE   H8X17182   6.595   2.393   9.594 -0.0457  1.2631  1.2913
  154SAPE   H8Y17183   6.437   2.484   9.608  2.4651  1.4619 -2.6768
  154SAPE   C3917184   6.449   2.319   9.458 -0.4034  0.4120  0.3003
  154SAPE   H9X17185   6.338   2.310   9.453 -0.5092  2.1429 -0.8589
  154SAPE   H9Y17186   6.495   2.219   9.447  3.1044  1.7967  1.6178
  154SAPE  C31017187   6.488   2.416   9.347  0.1287  0.1107  0.1440
  154SAPE  H10X17188   6.599   2.421   9.349  0.1592 -0.4482  0.1474
  154SAPE  H10Y17189   6.444   2.516   9.363 -1.0188 -0.8172  3.0465
  154SAPE  C31117190   6.445   2.369   9.204 -0.6439  0.5984 -0.5273
  154SAPE  H11X17191   6.336   2.363   9.223 -0.5722 -2.2133 -0.8051
  154SAPE  H11Y17192   6.475   2.268   9.170  1.9812  0.5383  1.7765
  154SAPE  C31217193   6.488   2.469   9.094 -0.0808  0.3384 -0.4510
  154SAPE  H12X17194   6.590   2.506   9.118  0.4819 -0.2386 -1.8363
  154SAPE  H12Y17195   6.411   2.548   9.107 -1.9891 -1.5209 -0.2088
  154SAPE  C31317196   6.484   2.416   8.946  0.0160  0.6360 -0.6199
  154SAPE  H13X17197   6.384   2.370   8.928 -0.0204  0.4958 -0.0871
  154SAPE  H13Y17198   6.555   2.330   8.942 -0.3381  0.3040  0.0406
  154SAPE  C31417199   6.533   2.522   8.846  0.1583  0.1634  0.6776
  154SAPE  H14X17200   6.627   2.569   8.884 -0.0991 -0.7380  2.4938
  154SAPE  H14Y17201   6.456   2.601   8.836 -0.4119 -0.1577  2.3324
  154SAPE  C31517202   6.568   2.466   8.708  0.0656 -0.0180 -0.2115
  154SAPE  H15X17203   6.655   2.398   8.717 -1.2386 -1.6484  0.2208
  154SAPE  H15Y17204   6.597   2.549   8.640 -0.2918 -0.2646 -0.6670
  154SAPE  C31617205   6.457   2.385   8.642 -0.4363 -0.1614  0.5822
  154SAPE  H16X17206   6.437   2.293   8.702 -2.6552 -0.0502  0.0357
  154SAPE  H16Y17207   6.501   2.342   8.549 -0.3365 -2.0326  1.4522
  154SAPE  C31717208   6.332   2.457   8.613  0.2426 -0.2848  0.3098
  154SAPE  H17X17209   6.346   2.553   8.560  0.5535 -1.0559 -1.0344
  154SAPE  H17Y17210   6.283   2.475   8.711  0.4427 -1.7896  0.7103
  154SAPE  C31817211   6.238   2.362   8.533  0.3239  0.2393  0.6358
  154SAPE  H18X17212   6.210   2.268   8.584  0.1740 -2.4522 -4.0740
  154SAPE  H18Y17213   6.279   2.342   8.431 -0.6330  2.7181 -0.2722
  154SAPE  H18Z17214   6.144   2.420   8.526 -0.6795 -1.5572 -1.6579
  155SAPE     N17215   6.737   2.791  10.812 -0.4371 -0.1403  0.2484
  155SAPE   HN117216   6.750   2.739  10.723  3.4967 -0.7837  1.0962
  155SAPE   HN217217   6.713   2.728  10.891 -1.4668 -1.2103 -0.8961
  155SAPE   HN317218   6.659   2.858  10.800 -0.2592  0.7123  3.4441
  155SAPE   C1217219   6.864   2.867  10.828  0.5303  0.0675  0.0355
  155SAPE  H12A17220   6.947   2.792  10.834  1.4965  1.1626  0.6151
  155SAPE  H12B17221   6.855   2.932  10.918 -1.9010 -1.0737  0.6375
  155SAPE   C1117222   6.895   2.943  10.696  0.6382 -0.2266  0.3508
  155SAPE  H11A17223   6.889   2.858  10.625 -1.1987  0.3532 -0.2206
  155SAPE  H11B17224   7.001   2.974  10.706  0.5767  0.7321 -1.8789
  155SAPE     P17225   6.849   3.190  10.660  0.2498  0.3285 -0.2991
  155SAPE   O1317226   6.824   3.257  10.786 -0.1743 -0.2305  0.0113
  155SAPE   O1417227   6.986   3.193  10.608  0.2565  0.7481 -0.1131
  155SAPE   O1217228   6.802   3.042  10.675  0.0726 -0.5153 -0.0488
  155SAPE   O1117229   6.752   3.256  10.549 -0.3083 -1.0718  0.3732
  155SAPE    C117230   6.621   3.196  10.522  0.6655 -0.7231 -0.1506
  155SAPE    HA17231   6.579   3.147  10.613  1.7461  0.0021  0.7484
  155SAPE    HB17232   6.542   3.268  10.491 -0.6548 -1.0917  2.2287
  155SAPE    C217233   6.641   3.086  10.412  0.1102 -0.8334 -0.2974
  155SAPE    HS17234   6.698   3.000  10.452  0.9121 -0.8321 -1.4186
  155SAPE   O2117235   6.716   3.137  10.306 -0.1668 -0.5919 -0.1079
  155SAPE   C2117236   6.825   3.069  10.261  0.2281 -0.6018 -0.6239
  155SAPE   O2217237   6.869   2.963  10.307  0.3431 -0.5295  0.8787
  155SAPE   C2217238   6.893   3.135  10.140  0.2808 -0.4478  0.8272
  155SAPE   H2R17239   6.926   3.059  10.066  0.0755  2.1232 -1.9600
  155SAPE   H2S17240   6.817   3.198  10.089  1.3740 -0.2833 -0.6060
  155SAPE    C317241   6.505   3.036  10.363 -0.4579 -0.2156 -0.3784
  155SAPE    HX17242   6.438   3.119  10.334 -0.0529  0.3508  0.2878
  155SAPE    HY17243   6.446   3.008  10.453  0.4865  0.6224  0.5149
  155SAPE   O3117244   6.511   2.940  10.250 -0.1370 -0.1487 -0.8143
  155SAPE   C3117245   6.519   2.816  10.292  0.6230 -0.1033 -0.8841
  155SAPE   O3217246   6.530   2.781  10.405 -0.0820  0.3735 -0.2846
  155SAPE   C3217247   6.499   2.733  10.164 -0.6038 -0.5408  0.2096
  155SAPE   H2X17248   6.398   2.687  10.178 -0.4691 -0.2393  2.3052
  155SAPE   H2Y17249   6.574   2.652  10.173  0.7156  0.6237 -0.0753
  155SAPE   C2317250   7.005   3.227  10.187  0.4505 -0.4403 -0.2246
  155SAPE   H3R17251   7.076   3.167  10.249  0.5573  0.4837  0.5589
  155SAPE   H3S17252   6.963   3.298  10.262  0.1636 -1.7069  0.8444
  155SAPE   C2417253   7.076   3.303  10.075  0.6935 -0.1821  0.2626
  155SAPE   H4R17254   6.999   3.372  10.034  1.2419 -0.1009 -0.6391
  155SAPE   H4S17255   7.108   3.230   9.998 -0.9785  1.4498 -2.0462
  155SAPE   C2517256   7.203   3.387  10.101  0.8905  0.0295  0.3973
  155SAPE   H5R17257   7.225   3.399  10.208  1.9294  0.5532  0.1340
  155SAPE   C2617258   7.292   3.436  10.011 -0.4635 -0.1863  0.0409
  155SAPE   H6R17259   7.376   3.504  10.033  1.1402 -0.4312 -4.7720
  155SAPE   C2717260   7.281   3.411   9.860 -0.4166 -0.2101 -0.1899
  155SAPE   H7R17261   7.284   3.512   9.814 -0.7579  0.0073  0.2599
  155SAPE   H7S17262   7.185   3.361   9.834 -0.1795  0.2318 -1.9327
  155SAPE   C2817263   7.392   3.319   9.812 -0.4567 -0.5781  0.0721
  155SAPE   H8R17264   7.462   3.284   9.890 -1.3498 -0.7294  0.8059
  155SAPE   C2917265   7.407   3.280   9.680  0.2882 -0.5360  0.2016
  155SAPE   H9R17266   7.494   3.217   9.659  0.2127 -0.4248 -0.4477
  155SAPE  C21017267   7.313   3.316   9.566 -0.1739 -0.1395  0.1771
  155SAPE  H10R17268   7.308   3.427   9.573  1.0592 -0.1680  2.0830
  155SAPE  H10S17269   7.216   3.269   9.594  0.1247 -1.1497 -0.4446
  155SAPE  C21117270   7.361   3.255   9.441  0.6227 -0.1830 -0.6166
  155SAPE  H11R17271   7.374   3.150   9.469  1.9283  0.1451  0.0377
  155SAPE  C21217272   7.387   3.291   9.314  0.3999  0.1827  0.4295
  155SAPE  H12R17273   7.431   3.214   9.251  2.2771  0.9022  0.8406
  155SAPE  C21317274   7.372   3.423   9.251  0.1682  0.0166 -0.4664
  155SAPE  H13R17275   7.466   3.481   9.241 -0.1985  0.9937  1.5970
  155SAPE  H13S17276   7.321   3.494   9.319 -1.5664 -0.7103 -0.9817
  155SAPE  C21417277   7.290   3.436   9.120 -0.3896 -0.5554  0.4570
  155SAPE  H14R17278   7.182   3.418   9.131 -0.8756 -0.4148 -3.3871
  155SAPE  C21517279   7.332   3.483   9.002  0.6419 -0.0998  0.1305
  155SAPE  H15R17280   7.262   3.498   8.918 -1.7844  1.1637  2.3275
  155SAPE  C21617281   7.470   3.523   8.970  0.6385  0.1590  0.6737
  155SAPE  H16R17282   7.531   3.430   8.974  0.6916  0.0078 -2.2685
  155SAPE  H16S17283   7.504   3.602   9.040  0.4755  3.6804 -3.0220
  155SAPE  C21717284   7.476   3.593   8.832  0.0237  0.4445  0.4946
  155SAPE  H17R17285   7.407   3.680   8.832  0.4604  0.7967 -0.8488
  155SAPE  H17S17286   7.446   3.524   8.750 -0.0067  3.2938 -1.9761
  155SAPE  C21817287   7.612   3.657   8.789 -0.3516  0.7935  0.2062
  155SAPE  H18R17288   7.632   3.755   8.837 -0.8394  1.3650 -0.7602
  155SAPE  H18S17289   7.609   3.688   8.683 -0.6829  0.0892  0.0104
  155SAPE  C21917290   7.729   3.557   8.823 -0.2234 -0.3645  0.1844
  155SAPE  H19R17291   7.753   3.535   8.929 -0.2887 -0.2469  0.2216
  155SAPE  H19S17292   7.816   3.618   8.789 -0.9474 -0.2642 -1.5681
  155SAPE  C22017293   7.715   3.418   8.756  0.5300 -0.2388 -0.0423
  155SAPE  H20R17294   7.710   3.447   8.648 -0.5103 -0.8222 -0.1530
  155SAPE  H20S17295   7.628   3.354   8.782  1.2116 -0.5497  1.4996
  155SAPE  H20T17296   7.801   3.348   8.751  0.1706 -0.5521 -2.4806
  155SAPE   C3317297   6.510   2.814  10.026  0.1977 -0.1076  0.0162
  155SAPE   H3X17298   6.445   2.902  10.009 -0.3897 -0.4783  0.3126
  155SAPE   H3Y17299   6.473   2.747   9.945 -0.2964  0.8905 -0.6007
  155SAPE   C3417300   6.655   2.857   9.991 -0.9444 -0.3496 -0.0341
  155SAPE   H4X17301   6.727   2.774   9.983  1.3982  1.5974  0.3633
  155SAPE   H4Y17302   6.690   2.930  10.067 -0.2410  0.4260 -1.0970
  155SAPE   C3517303   6.664   2.935   9.859  0.3236 -0.2413  0.4138
  155SAPE   H5X17304   6.743   3.013   9.870  0.1339 -0.0765  0.6240
  155SAPE   H5Y17305   6.568   2.990   9.850 -0.7808 -2.1591  0.3603
  155SAPE   C3617306   6.691   2.852   9.731 -0.0897 -0.1698 -0.0739
  155SAPE   H6X17307   6.614   2.772   9.726 -0.7562  0.5708 -2.8905
  155SAPE   H6Y17308   6.786   2.797   9.742  0.6349  1.1804  0.5770
  155SAPE   C3717309   6.689   2.929   9.599  0.3518 -0.2600 -0.8503
  155SAPE   H7X17310   6.771   3.002   9.611  0.9883 -0.8136 -1.7423
  155SAPE   H7Y17311   6.589   2.971   9.574  0.1920 -0.2071 -0.1211
  155SAPE   C3817312   6.727   2.841   9.483 -0.4259 -0.3726  0.7719
  155SAPE   H8X17313   6.663   2.751   9.472  0.4552 -0.8151 -0.9646
  155SAPE   H8Y17314   6.829   2.799   9.490  1.0721  2.5599 -2.3890
  155SAPE   C3917315   6.707   2.909   9.345  0.5928 -0.3397  0.3046
  155SAPE   H9X17316   6.753   3.009   9.358 -1.3361  0.6051  0.0138
  155SAPE   H9Y17317   6.599   2.929   9.335  0.5202 -0.6258  0.4845
  155SAPE  C31017318   6.750   2.824   9.227 -1.0928 -0.2980  0.1597
  155SAPE  H10X17319   6.696   2.729   9.209  1.2309 -1.7218  0.4585
  155SAPE  H10Y17320   6.858   2.799   9.233 -0.7912  0.3851 -1.7730
  155SAPE  C31117321   6.737   2.905   9.094  0.0073  0.6682  0.7977
  155SAPE  H11X17322   6.800   2.856   9.017 -3.0360 -1.2478 -0.5547
  155SAPE  H11Y17323   6.772   3.009   9.113 -0.6818  1.2466 -1.0680
  155SAPE  C31217324   6.595   2.918   9.038 -0.0645  0.1575 -0.3804
  155SAPE  H12X17325   6.537   2.963   9.121  0.7823 -0.6104  0.6525
  155SAPE  H12Y17326   6.560   2.813   9.022 -0.3559  0.6665 -3.2666
  155SAPE  C31317327   6.590   3.004   8.914  0.5410 -0.2968  0.1442
  155SAPE  H13X17328   6.646   3.101   8.914 -1.6925  1.0362  2.0320
  155SAPE  H13Y17329   6.483   3.017   8.887  0.1782 -0.4397  1.4890
  155SAPE  C31417330   6.654   2.929   8.796  0.2853  0.3085 -0.2668
  155SAPE  H14X17331   6.604   2.831   8.787  1.7666 -0.5890  1.1540
  155SAPE  H14Y17332   6.764   2.915   8.809  0.5800  2.3256 -0.2790
  155SAPE  C31517333   6.642   2.992   8.654 -0.3263 -0.1346 -0.0581
  155SAPE  H15X17334   6.704   2.916   8.602 -0.7863 -0.7363  0.2579
  155SAPE  H15Y17335   6.688   3.093   8.654  0.3879 -0.4523  1.5973
  155SAPE  C31617336   6.498   2.989   8.594 -0.3205  0.2443  0.4841
  155SAPE  H16X17337   6.420   3.016   8.668 -0.8479 -0.8007  0.3136
  155SAPE  H16Y17338   6.469   2.883   8.578  2.0194 -0.2785 -0.4951
  155SAPE  C31717339   6.503   3.057   8.456  0.6275 -0.2703  0.5715
  155SAPE  H17X17340   6.566   3.008   8.379 -0.0360 -0.6461  0.2634
  155SAPE  H17Y17341   6.546   3.159   8.468 -0.7749  0.4050  0.0523
  155SAPE  C31817342   6.358   3.084   8.407  0.2515  0.6496  0.6557
  155SAPE  H18X17343   6.319   2.983   8.384 -0.4138  1.3967 -1.6383
  155SAPE  H18Y17344   6.347   3.154   8.321 -2.7319  0.9477  1.2222
  155SAPE  H18Z17345   6.305   3.128   8.494 -0.5327 -1.7462  1.4180
  156SAPE     N17346   4.401   1.003  10.788 -0.3087 -0.1825  0.1620
  156SAPE   HN117347   4.303   1.003  10.753 -0.2730 -0.1113  0.0625
  156SAPE   HN217348   4.422   0.908  10.826 -1.1170 -0.3518  0.1929
  156SAPE   HN317349   4.404   1.076  10.863 -2.1596  0.5298 -0.4384
  156SAPE   C1217350   4.490   1.040  10.675 -1.0962  0.6930 -0.3421
  156SAPE  H12A17351   4.433   1.109  10.609 -1.8379  0.8933  0.4850
  156SAPE  H12B17352   4.509   0.945  10.623 -2.8718 -0.0309  0.2769
  156SAPE   C1117353   4.623   1.105  10.727 -0.0032 -0.1512  0.1118
  156SAPE  H11A17354   4.673   1.034  10.795  1.8654 -0.6153 -1.6880
  156SAPE  H11B17355   4.575   1.187  10.784 -1.9064 -0.8662 -0.4100
  156SAPE     P17356   4.808   1.058  10.553 -0.4676  0.1871  0.1098
  156SAPE   O1317357   4.901   1.136  10.467  0.7165  0.0737  0.5243
  156SAPE   O1417358   4.873   0.970  10.658  0.4861  0.3355 -0.5095
  156SAPE   O1217359   4.711   1.160  10.625  0.3422 -0.1914 -0.1065
  156SAPE   O1117360   4.705   0.975  10.466  0.2723 -0.3119  0.2052
  156SAPE    C117361   4.648   1.033  10.350  0.0728  0.0275  0.5526
  156SAPE    HA17362   4.556   0.973  10.333  2.1414 -2.7990 -1.0561
  156SAPE    HB17363   4.621   1.140  10.362  1.4298  0.3320  1.0016
  156SAPE    C217364   4.746   1.014  10.231  0.6817 -0.1761  0.3994
  156SAPE    HS17365   4.820   1.096  10.245  0.0555  0.1995  1.6104
  156SAPE   O2117366   4.688   1.025  10.102 -0.0308 -0.2617  0.5598
  156SAPE   C2117367   4.657   1.153  10.064 -0.7198  0.6045 -0.1639
  156SAPE   O2217368   4.672   1.251  10.132  0.3013  0.6677  0.2834
  156SAPE   C2217369   4.588   1.149   9.932 -0.7827 -0.5081  0.3009
  156SAPE   H2R17370   4.603   1.046   9.891  2.1880  1.6948 -4.5736
  156SAPE   H2S17371   4.480   1.158   9.954 -1.2467 -2.0837 -1.1949
  156SAPE    C317372   4.823   0.875  10.227 -0.1915 -0.2215  0.0298
  156SAPE    HX17373   4.754   0.791  10.202  1.8237 -1.6804 -0.7983
  156SAPE    HY17374   4.868   0.857  10.327  0.7545  0.5430 -0.2546
  156SAPE   O3117375   4.923   0.874  10.127 -0.1982 -0.5473  0.3006
  156SAPE   C3117376   4.996   0.768  10.120 -0.0381  0.0171  0.2517
  156SAPE   O3217377   4.971   0.667  10.182 -0.1162 -0.0781 -0.7704
  156SAPE   C3217378   5.125   0.794  10.030 -0.2216  0.0628  0.2309
  156SAPE   H2X17379   5.195   0.711  10.055  2.1861  2.1339  0.4908
  156SAPE   H2Y17380   5.172   0.889  10.063  0.6283 -0.8407  1.6951
  156SAPE   C2317381   4.612   1.270   9.833  0.8690  0.4608 -0.1572
  156SAPE   H3R17382   4.720   1.273   9.805  1.3684  2.7555  1.8081
  156SAPE   H3S17383   4.572   1.366   9.870  0.3511  0.7219 -1.3639
  156SAPE   C2417384   4.544   1.232   9.696 -0.4112 -0.5983 -0.0500
  156SAPE   H4R17385   4.555   1.122   9.685  1.3771 -0.2828 -1.6482
  156SAPE   H4S17386   4.590   1.286   9.611  0.4264  0.0033  0.7737
  156SAPE   C2517387   4.398   1.264   9.677  0.3910 -0.4028 -0.2606
  156SAPE   H5R17388   4.343   1.234   9.767  3.3322 -0.2841  1.6662
  156SAPE   C2617389   4.335   1.324   9.575 -0.3578  0.7206 -0.1064
  156SAPE   H6R17390   4.227   1.344   9.577 -0.0283  2.5704  0.0118
  156SAPE   C2717391   4.401   1.367   9.450 -0.3391 -0.8166 -0.3587
  156SAPE   H7R17392   4.478   1.292   9.421 -0.8174 -0.4209 -2.7073
  156SAPE   H7S17393   4.460   1.459   9.468 -1.4036  0.1130 -1.6021
  156SAPE   C2817394   4.317   1.412   9.333 -0.9097 -0.0392  0.6941
  156SAPE   H8R17395   4.223   1.468   9.348 -0.4464  1.0584 -0.4391
  156SAPE   C2917396   4.348   1.394   9.201 -0.7120 -0.3034 -0.9076
  156SAPE   H9R17397   4.271   1.419   9.126 -2.0418  2.9216  1.4445
  156SAPE  C21017398   4.477   1.331   9.152 -0.3411 -0.1784 -0.5572
  156SAPE  H10R17399   4.534   1.286   9.236 -0.9813 -1.3921 -0.7598
  156SAPE  H10S17400   4.543   1.413   9.116  0.3511 -0.5861 -0.2161
  156SAPE  C21117401   4.441   1.216   9.062 -0.1374 -0.9786 -0.7548
  156SAPE  H11R17402   4.422   1.123   9.118 -0.1816  0.5846  1.9204
  156SAPE  C21217403   4.467   1.210   8.924 -0.0736 -0.2188 -0.8678
  156SAPE  H12R17404   4.434   1.117   8.874 -0.0612  0.5638 -2.3548
  156SAPE  C21317405   4.522   1.315   8.833  0.0370  0.1520 -0.5488
  156SAPE  H13R17406   4.633   1.308   8.838  0.2349  1.1956 -2.8643
  156SAPE  H13S17407   4.491   1.416   8.867 -0.8290  0.1605 -1.3541
  156SAPE  C21417408   4.472   1.308   8.689 -0.0121 -0.5125  0.9994
  156SAPE  H14R17409   4.539   1.257   8.619 -2.1908  0.6217 -2.0482
  156SAPE  C21517410   4.342   1.331   8.646  0.0051 -0.0408  0.1732
  156SAPE  H15R17411   4.314   1.319   8.541 -2.1788  0.5628  0.6649
  156SAPE  C21617412   4.236   1.374   8.737  0.2526  0.6642  0.2853
  156SAPE  H16R17413   4.190   1.472   8.712 -2.4038 -0.5166  0.4087
  156SAPE  H16S17414   4.278   1.378   8.840  3.8376 -0.9160 -1.0229
  156SAPE  C21717415   4.107   1.284   8.737  0.2933 -0.1390 -0.3338
  156SAPE  H17R17416   4.040   1.336   8.808 -1.8634 -0.8603 -1.7671
  156SAPE  H17S17417   4.133   1.188   8.787 -1.8465 -1.0995 -1.0121
  156SAPE  C21817418   4.029   1.274   8.606 -0.0333 -0.1292 -0.0824
  156SAPE  H18R17419   3.938   1.212   8.619  0.9629 -1.7560 -0.7110
  156SAPE  H18S17420   4.101   1.231   8.534 -0.0055 -2.0570  1.0748
  156SAPE  C21917421   3.975   1.406   8.544  0.1221 -0.2786 -0.3804
  156SAPE  H19R17422   4.069   1.453   8.509 -0.3341  1.2193  0.3718
  156SAPE  H19S17423   3.920   1.463   8.621 -0.0594 -2.3905  1.0875
  156SAPE  C22017424   3.868   1.383   8.441  0.4271 -0.1600  0.3034
  156SAPE  H20R17425   3.771   1.350   8.483  0.0724 -0.4512 -0.7322
  156SAPE  H20S17426   3.909   1.304   8.374 -0.3570 -0.8962  0.6887
  156SAPE  H20T17427   3.842   1.468   8.375  1.5623  0.8243  1.0927
  156SAPE   C3317428   5.087   0.776   9.880 -0.4116 -0.1054 -0.1156
  156SAPE   H3X17429   5.014   0.853   9.846 -0.6002  0.0187  0.5809
  156SAPE   H3Y17430   5.034   0.681   9.858 -0.9800 -0.0324  0.9229
  156SAPE   C3417431   5.220   0.776   9.797  1.2019 -0.1756  0.5640
  156SAPE   H4X17432   5.294   0.710   9.848  2.4228  1.4691  0.9658
  156SAPE   H4Y17433   5.261   0.879   9.787  1.2313 -0.3082 -0.7089
  156SAPE   C3517434   5.205   0.695   9.665  0.2446 -0.1016  0.2749
  156SAPE   H5X17435   5.102   0.707   9.627  0.0746  0.4466  0.8892
  156SAPE   H5Y17436   5.203   0.585   9.678 -2.2897 -0.2714 -1.4420
  156SAPE   C3617437   5.295   0.740   9.564 -0.1458 -0.7487 -0.4038
  156SAPE   H6X17438   5.396   0.769   9.600 -0.2804  0.4294 -0.9692
  156SAPE   H6Y17439   5.245   0.834   9.534  0.3615 -0.6633 -1.0106
  156SAPE   C3717440   5.312   0.657   9.434 -0.2833  0.2477 -0.1882
  156SAPE   H7X17441   5.350   0.558   9.464 -0.1141  0.1075 -0.8646
  156SAPE   H7Y17442   5.394   0.699   9.372  0.5189  0.7736  1.1768
  156SAPE   C3817443   5.180   0.646   9.357  0.2885  0.4772  0.4566
  156SAPE   H8X17444   5.140   0.744   9.323  0.0417  1.4650  3.4460
  156SAPE   H8Y17445   5.101   0.605   9.423 -0.8334 -0.2148 -1.2941
  156SAPE   C3917446   5.207   0.570   9.227  0.2428  0.1271  0.1845
  156SAPE   H9X17447   5.306   0.520   9.237  0.6327  0.9663  0.5342
  156SAPE   H9Y17448   5.211   0.642   9.143 -0.2200  2.8589  2.4398
  156SAPE  C31017449   5.093   0.471   9.210  0.1116 -0.4006 -0.2113
  156SAPE  H10X17450   4.994   0.520   9.214  0.0987 -0.4024 -0.4685
  156SAPE  H10Y17451   5.095   0.413   9.305 -0.6263  1.0480  0.7029
  156SAPE  C31117452   5.101   0.380   9.083  0.7769 -0.6638 -0.4525
  156SAPE  H11X17453   5.202   0.333   9.086  2.0027  1.9385  4.7475
  156SAPE  H11Y17454   5.079   0.448   8.998 -1.3853 -0.7935 -0.0186
  156SAPE  C31217455   4.996   0.272   9.062 -0.8008  0.0092  0.5098
  156SAPE  H12X17456   4.892   0.310   9.061 -1.1626 -0.9510 -1.2760
  156SAPE  H12Y17457   5.005   0.196   9.142  1.0838 -0.3278  0.0010
  156SAPE  C31317458   5.007   0.186   8.936  0.7806 -0.1129 -1.2420
  156SAPE  H13X17459   5.000   0.246   8.842  1.6133  0.4320 -0.9612
  156SAPE  H13Y17460   4.916   0.123   8.947  1.3001 -0.7396 -0.4964
  156SAPE  C31417461   5.116   0.078   8.944  0.2343  0.6364 -0.4119
  156SAPE  H14X17462   5.129   0.037   9.046  1.6611 -1.4657 -1.4072
  156SAPE  H14Y17463   5.212   0.128   8.919 -0.2695  1.5830 -0.4992
  156SAPE  C31517464   5.096  -0.037   8.843 -0.0735  0.6339 -0.2339
  156SAPE  H15X17465   5.034  -0.118   8.886 -0.9784 -0.0456 -2.7653
  156SAPE  H15Y17466   5.195  -0.075   8.810 -0.8544 -0.8065 -0.9425
  156SAPE  C31617467   5.028  -0.001   8.710  0.2039  0.1439  0.5535
  156SAPE  H16X17468   5.067   0.097   8.674 -1.6081  0.1910 -1.3658
  156SAPE  H16Y17469   4.918   0.008   8.722  0.1528 -0.3325  0.4494
  156SAPE  C31717470   5.045  -0.111   8.612 -0.1785  0.9187  0.8995
  156SAPE  H17X17471   5.043  -0.204   8.673 -1.6857 -0.2736 -0.8975
  156SAPE  H17Y17472   5.147  -0.115   8.570  0.1570  1.1941  1.6768
  156SAPE  C31817473   4.941  -0.136   8.504 -0.0556 -0.2370 -0.2540
  156SAPE  H18X17474   4.943  -0.052   8.431  0.6498  1.5283  1.7565
  156SAPE  H18Y17475   4.843  -0.149   8.555  0.4465 -1.7818  0.3312
  156SAPE  H18Z17476   4.953  -0.228   8.443 -0.7349  0.7353 -1.8960
  157SAPE     N17477   3.800   0.847  10.704  0.0104 -0.5602 -0.1915
  157SAPE   HN117478   3.831   0.887  10.614  2.0555 -3.9213 -1.0759
  157SAPE   HN217479   3.870   0.775  10.732 -2.5434 -3.2818 -0.5364
  157SAPE   HN317480   3.716   0.788  10.688 -1.6046  2.0839 -1.8503
  157SAPE   C1217481   3.783   0.963  10.803 -0.3240  0.6930  0.1458
  157SAPE  H12A17482   3.877   1.018  10.825 -0.1821  1.6344 -2.5893
  157SAPE  H12B17483   3.742   0.921  10.897 -2.0766  1.2396 -0.3673
  157SAPE   C1117484   3.677   1.064  10.744 -0.1121  0.0052 -0.2736
  157SAPE  H11A17485   3.713   1.099  10.645 -0.3634 -0.7418 -0.6253
  157SAPE  H11B17486   3.668   1.156  10.806 -0.4920 -1.0054  1.1840
  157SAPE     P17487   3.431   1.057  10.654 -0.2240  0.0688 -0.5353
  157SAPE   O1317488   3.317   1.032  10.739 -0.1928  0.6978  0.4176
  157SAPE   O1417489   3.457   1.193  10.607 -0.2678 -0.0549 -0.2164
  157SAPE   O1217490   3.551   0.996  10.731 -0.3560 -0.1165  0.4729
  157SAPE   O1117491   3.418   0.973  10.526  0.1363  0.7528  0.2621
  157SAPE    C117492   3.529   0.965  10.433 -0.4931  0.4261  0.1523
  157SAPE    HA17493   3.577   1.064  10.422  1.3428 -0.2951  1.5684
  157SAPE    HB17494   3.607   0.891  10.459 -0.2219  0.7466  0.2527
  157SAPE    C217495   3.491   0.930  10.280  0.0473 -0.4383  0.1075
  157SAPE    HS17496   3.546   0.997  10.211 -0.6697 -1.7397 -1.7734
  157SAPE   O2117497   3.348   0.938  10.255 -0.1112  0.7686 -0.3697
  157SAPE   C2117498   3.295   1.057  10.270 -0.3752  0.3196  0.3555
  157SAPE   O2217499   3.354   1.162  10.250 -0.7855  0.3743 -0.2483
  157SAPE   C2217500   3.149   1.047  10.283 -0.3143  1.2698  0.1298
  157SAPE   H2R17501   3.108   0.948  10.254  1.2821  1.0847 -1.5703
  157SAPE   H2S17502   3.134   1.050  10.393  1.9041  1.3113  0.4561
  157SAPE    C317503   3.539   0.783  10.239 -0.3098 -0.4276 -0.2932
  157SAPE    HX17504   3.509   0.713  10.319  0.6444 -0.7971 -0.2539
  157SAPE    HY17505   3.649   0.788  10.254 -0.4145  0.9394  0.0802
  157SAPE   O3117506   3.493   0.745  10.103  0.0050  0.5484 -0.1649
  157SAPE   C3117507   3.382   0.678  10.102 -0.5986  0.2055  0.1603
  157SAPE   O3217508   3.315   0.629  10.193  0.1276  0.3988  0.6850
  157SAPE   C3217509   3.326   0.696   9.954 -0.2377  0.1434 -0.0473
  157SAPE   H2X17510   3.418   0.696   9.892 -0.1340  1.6522  0.0916
  157SAPE   H2Y17511   3.276   0.795   9.947 -0.2155  0.1163 -0.6099
  157SAPE   C2317512   3.067   1.149  10.203 -0.0200 -0.4026  0.2646
  157SAPE   H3R17513   3.113   1.166  10.103 -0.6677  2.0172  0.3399
  157SAPE   H3S17514   3.062   1.251  10.247 -1.0628  0.2477 -1.3109
  157SAPE   C2417515   2.920   1.112  10.157 -0.7121  0.2950 -0.4795
  157SAPE   H4R17516   2.918   1.016  10.102 -1.0803 -0.7980  1.3931
  157SAPE   H4S17517   2.878   1.178  10.078  0.2787  0.9797 -0.4419
  157SAPE   C2517518   2.815   1.093  10.266  0.5887 -0.1481  0.1003
  157SAPE   H5R17519   2.827   1.026  10.352  1.5560  0.5883  0.5544
  157SAPE   C2617520   2.699   1.151  10.255 -0.2633  0.2950  0.4764
  157SAPE   H6R17521   2.625   1.115  10.328 -0.2984 -0.7640 -0.0841
  157SAPE   C2717522   2.652   1.239  10.148  0.0511  0.2942  1.0889
  157SAPE   H7R17523   2.542   1.250  10.160 -0.3354 -3.5871  1.6397
  157SAPE   H7S17524   2.661   1.186  10.051  1.2784  3.3017 -0.5254
  157SAPE   C2817525   2.710   1.377  10.153 -0.6671 -0.5061 -0.0622
  157SAPE   H8R17526   2.772   1.406  10.239 -0.9101 -2.9064  0.9812
  157SAPE   C2917527   2.701   1.471  10.052  0.3962 -0.8740  0.0617
  157SAPE   H9R17528   2.759   1.562  10.073 -0.7189 -0.7326  2.7440
  157SAPE  C21017529   2.633   1.456   9.920  0.6104 -0.4200 -0.8283
  157SAPE  H10R17530   2.619   1.557   9.875  0.5982 -1.2799 -2.8249
  157SAPE  H10S17531   2.530   1.420   9.938  0.5947 -0.8002 -1.6392
  157SAPE  C21117532   2.693   1.355   9.824  0.4034  0.0446  0.2304
  157SAPE  H11R17533   2.778   1.298   9.864 -0.1972  0.2205  1.8368
  157SAPE  C21217534   2.662   1.336   9.693  0.3973 -0.6963 -0.2526
  157SAPE  H12R17535   2.700   1.251   9.635  1.6134 -0.9445  0.8840
  157SAPE  C21317536   2.548   1.412   9.627 -0.2686  0.2715  0.0437
  157SAPE  H13R17537   2.593   1.493   9.565 -0.8628  1.1318  0.7101
  157SAPE  H13S17538   2.477   1.458   9.699  0.0046  1.1225 -0.2220
  157SAPE  C21417539   2.467   1.317   9.548  0.0708 -0.4214  0.3762
  157SAPE  H14R17540   2.376   1.286   9.602 -0.1172 -0.8502 -0.1944
  157SAPE  C21517541   2.481   1.277   9.424  0.0455 -0.1050 -0.3486
  157SAPE  H15R17542   2.399   1.213   9.389 -1.3574  0.3388  2.0253
  157SAPE  C21617543   2.594   1.309   9.328  0.0929  0.2797 -0.3608
  157SAPE  H16R17544   2.643   1.218   9.287  3.1508  1.6458  0.1950
  157SAPE  H16S17545   2.663   1.374   9.385 -1.1900  0.6840  0.7817
  157SAPE  C21717546   2.531   1.388   9.208  0.6380 -0.1380 -0.6231
  157SAPE  H17R17547   2.457   1.465   9.238 -0.2431 -0.9910 -0.5698
  157SAPE  H17S17548   2.479   1.316   9.141  2.5061 -1.9279 -0.1843
  157SAPE  C21817549   2.638   1.463   9.136  0.0961 -0.4516  0.9382
  157SAPE  H18R17550   2.724   1.396   9.113  1.1226  1.0442  0.3057
  157SAPE  H18S17551   2.673   1.544   9.204  0.3549 -0.1008  0.3855
  157SAPE  C21917552   2.587   1.533   9.005  0.1005 -0.4108 -0.6581
  157SAPE  H19R17553   2.510   1.608   9.035  0.9502 -0.0040  0.5308
  157SAPE  H19S17554   2.542   1.441   8.961 -0.9453 -0.9661  1.5114
  157SAPE  C22017555   2.692   1.595   8.926 -0.4246  0.0413  0.6605
  157SAPE  H20R17556   2.786   1.540   8.944 -0.4897 -1.0713 -2.1763
  157SAPE  H20S17557   2.711   1.705   8.932 -0.1353 -0.1117  2.7307
  157SAPE  H20T17558   2.669   1.573   8.819  0.6976 -0.0006  0.4279
  157SAPE   C3317559   3.223   0.599   9.913 -0.3590  0.0353  0.0167
  157SAPE   H3X17560   3.131   0.598   9.974  0.0771  1.1050  0.6984
  157SAPE   H3Y17561   3.258   0.493   9.911  3.3699  1.1426  2.1448
  157SAPE   C3417562   3.168   0.636   9.768 -0.1004 -0.1796  0.5742
  157SAPE   H4X17563   3.256   0.639   9.699 -2.0311 -0.4695 -1.9685
  157SAPE   H4Y17564   3.137   0.742   9.778  0.9178  0.1311  0.5814
  157SAPE   C3517565   3.053   0.540   9.744 -0.2528 -0.3806 -0.1154
  157SAPE   H5X17566   2.979   0.538   9.827 -0.1739  1.2149  0.0007
  157SAPE   H5Y17567   3.091   0.436   9.730  0.3170 -0.3040  0.8290
  157SAPE   C3617568   2.964   0.567   9.619  0.4824  0.1535  0.6730
  157SAPE   H6X17569   2.918   0.668   9.629  0.2944  0.1382 -0.0428
  157SAPE   H6Y17570   2.882   0.492   9.621  0.5966  0.0383  1.2402
  157SAPE   C3717571   3.037   0.563   9.482  0.2001  0.3317  0.3562
  157SAPE   H7X17572   3.063   0.456   9.468  2.3210  0.8348  0.2606
  157SAPE   H7Y17573   3.122   0.634   9.486  0.4110 -0.0123  2.8107
  157SAPE   C3817574   2.934   0.584   9.365  0.4236  0.8552 -0.2619
  157SAPE   H8X17575   2.905   0.691   9.368  2.3477  1.3638  0.8095
  157SAPE   H8Y17576   2.840   0.534   9.397 -0.0138 -0.2151 -3.0424
  157SAPE   C3917577   2.977   0.530   9.225 -0.0888 -1.0179 -0.6046
  157SAPE   H9X17578   2.981   0.419   9.222  1.2485 -1.0004  0.1729
  157SAPE   H9Y17579   3.077   0.572   9.204 -0.2701 -0.4175 -0.2797
  157SAPE  C31017580   2.891   0.586   9.108 -0.0492  0.5478  0.5592
  157SAPE  H10X17581   2.844   0.683   9.136 -2.7543 -0.2288 -1.1085
  157SAPE  H10Y17582   2.817   0.509   9.075  0.7002  0.0845 -0.0677
  157SAPE  C31117583   2.990   0.619   8.995  0.1449  0.3424  1.0280
  157SAPE  H11X17584   3.063   0.542   8.960  1.9292  1.6102  1.8771
  157SAPE  H11Y17585   3.051   0.703   9.033  1.6415 -0.3939  0.3168
  157SAPE  C31217586   2.923   0.681   8.873  0.0013  0.7497 -0.1633
  157SAPE  H12X17587   2.865   0.772   8.901  0.1540  1.8300 -3.1811
  157SAPE  H12Y17588   2.851   0.601   8.846  0.7541 -0.6920  1.9618
  157SAPE  C31317589   3.027   0.720   8.770 -0.9118  0.2242 -0.7544
  157SAPE  H13X17590   3.086   0.628   8.748  1.6620  1.3346  1.1207
  157SAPE  H13Y17591   3.102   0.791   8.813 -0.9263  0.0766 -0.4800
  157SAPE  C31417592   2.989   0.771   8.634 -0.2154  0.4139 -0.1296
  157SAPE  H14X17593   3.073   0.771   8.561 -0.1131  2.1411 -0.0195
  157SAPE  H14Y17594   2.958   0.877   8.637 -3.3915 -0.4109 -1.4257
  157SAPE  C31517595   2.867   0.700   8.576 -0.0672  0.5272 -0.1354
  157SAPE  H15X17596   2.783   0.732   8.641 -1.3026  0.2372 -1.5634
  157SAPE  H15Y17597   2.873   0.590   8.594  0.9255  0.6819  0.5569
  157SAPE  C31617598   2.833   0.737   8.434  0.6680  0.3565  0.3251
  157SAPE  H16X17599   2.873   0.838   8.413  0.8159  0.3448  0.5456
  157SAPE  H16Y17600   2.724   0.731   8.417  0.0678  2.7241  2.8720
  157SAPE  C31717601   2.897   0.639   8.330 -0.1842  0.4107 -0.1336
  157SAPE  H17X17602   2.904   0.536   8.372 -2.1973  0.6589  0.8508
  157SAPE  H17Y17603   3.000   0.670   8.300  0.6095  0.1762  2.2518
  157SAPE  C31817604   2.819   0.647   8.197  0.1194 -0.1032  0.0913
  157SAPE  H18X17605   2.853   0.567   8.128 -0.2216 -0.2504  0.0913
  157SAPE  H18Y17606   2.821   0.742   8.140  0.9816  0.1472  0.5356
  157SAPE  H18Z17607   2.711   0.641   8.223 -0.0237  2.6894  0.2273
  158SAPE     N17608   5.903   1.285  10.570  0.4449 -0.5895  0.5858
  158SAPE   HN117609   5.976   1.300  10.497 -1.4444 -0.4905 -1.3719
  158SAPE   HN217610   5.874   1.376  10.609  0.6694  0.5117 -1.7176
  158SAPE   HN317611   5.932   1.224  10.649  0.7481 -0.7961  0.3153
  158SAPE   C1217612   5.780   1.207  10.517  0.6490  0.5602  0.5245
  158SAPE  H12A17613   5.817   1.107  10.484 -1.2927 -0.0503  0.1229
  158SAPE  H12B17614   5.739   1.268  10.434  1.0387  0.3381  0.1649
  158SAPE   C1117615   5.671   1.196  10.627  0.0145  0.6417  0.9389
  158SAPE  H11A17616   5.726   1.165  10.718 -0.0363 -3.6439 -0.3788
  158SAPE  H11B17617   5.617   1.100  10.606  0.8448  0.3913 -0.0876
  158SAPE     P17618   5.455   1.321  10.550  0.0102 -0.2475  0.0636
  158SAPE   O1317619   5.375   1.201  10.542  0.8460  0.7495  0.2633
  158SAPE   O1417620   5.382   1.437  10.606 -0.1316 -0.6117  0.7594
  158SAPE   O1217621   5.579   1.302  10.647 -0.2424 -0.0765  0.1643
  158SAPE   O1117622   5.525   1.355  10.410 -0.0866 -0.2438  0.5430
  158SAPE    C117623   5.605   1.473  10.383 -0.2512 -0.2973 -0.1897
  158SAPE    HA17624   5.662   1.512  10.470 -0.2645  1.9442 -1.1592
  158SAPE    HB17625   5.678   1.436  10.308 -0.9188 -0.2486 -0.8769
  158SAPE    C217626   5.516   1.581  10.319  0.6765 -0.1145  0.1390
  158SAPE    HS17627   5.450   1.616  10.401  0.0265 -2.8670  0.8403
  158SAPE   O2117628   5.446   1.512  10.219 -0.0011 -0.1709  0.1072
  158SAPE   C2117629   5.313   1.540  10.209 -0.2122  0.3502 -0.6866
  158SAPE   O2217630   5.261   1.627  10.274  0.3718 -0.0823 -0.9310
  158SAPE   C2217631   5.250   1.446  10.110  0.4475 -0.4282  0.3873
  158SAPE   H2R17632   5.145   1.479  10.090  0.8169 -0.5895 -1.8902
  158SAPE   H2S17633   5.295   1.465  10.010 -1.2296  0.2037 -0.2791
  158SAPE    C317634   5.587   1.707  10.264 -0.7808 -0.2252  0.2906
  158SAPE    HX17635   5.634   1.754  10.353 -1.1206  0.0820  0.3086
  158SAPE    HY17636   5.526   1.788  10.218 -1.3793  0.0353  1.5241
  158SAPE   O3117637   5.684   1.658  10.168  0.0466  0.4733  0.1297
  158SAPE   C3117638   5.634   1.647  10.048  0.3472  0.0981 -0.2855
  158SAPE   O3217639   5.530   1.691  10.003  0.1483  0.2993  0.6136
  158SAPE   C3217640   5.741   1.576   9.970  0.5586  0.4130  0.6875
  158SAPE   H2X17641   5.760   1.473  10.007  0.7457  1.0281  2.3568
  158SAPE   H2Y17642   5.831   1.642   9.977  1.1691 -0.1948 -1.1200
  158SAPE   C2317643   5.258   1.303  10.158 -0.2862  0.2060  0.7857
  158SAPE   H3R17644   5.210   1.287  10.257 -2.5158  0.2698 -0.2449
  158SAPE   H3S17645   5.363   1.267  10.160 -0.5852 -0.9396 -2.0363
  158SAPE   C2417646   5.170   1.197  10.076 -0.5189  0.7123 -0.3142
  158SAPE   H4R17647   5.168   1.108  10.142  3.4322 -0.8526 -2.1219
  158SAPE   H4S17648   5.230   1.167   9.988  0.5049 -0.1997  0.6729
  158SAPE   C2517649   5.034   1.239  10.061 -0.1894 -0.7346 -0.5059
  158SAPE   H5R17650   4.986   1.280  10.151 -0.2631 -2.3388  0.1916
  158SAPE   C2617651   4.951   1.226   9.953  0.0788  0.5377 -0.1416
  158SAPE   H6R17652   4.854   1.279   9.950 -0.2365 -0.0513 -0.3360
  158SAPE   C2717653   4.988   1.153   9.823 -0.4478 -0.8136  0.2627
  158SAPE   H7R17654   4.898   1.120   9.767  0.7398 -0.2416 -2.0556
  158SAPE   H7S17655   5.051   1.066   9.851  2.3137  1.0556  0.0214
  158SAPE   C2817656   5.072   1.237   9.728 -0.3574  0.3611 -0.0827
  158SAPE   H8R17657   5.128   1.319   9.774  0.5132  0.8898 -2.0059
  158SAPE   C2917658   5.073   1.222   9.595  0.5020  0.4235  0.3041
  158SAPE   H9R17659   5.128   1.296   9.534 -2.3626  1.1432 -1.4604
  158SAPE  C21017660   4.995   1.114   9.517 -0.0243 -0.7098 -0.6057
  158SAPE  H10R17661   4.887   1.142   9.513  0.2083  0.1592 -0.7159
  158SAPE  H10S17662   5.006   1.015   9.567 -1.6554 -0.2252  0.7531
  158SAPE  C21117663   5.058   1.107   9.380  0.1509  0.4066 -0.1344
  158SAPE  H11R17664   5.167   1.092   9.378  0.3967  1.7315  1.7512
  158SAPE  C21217665   4.996   1.130   9.268  0.6083 -0.4897  0.1741
  158SAPE  H12R17666   5.056   1.131   9.176  1.9930  0.8797  1.0570
  158SAPE  C21317667   4.845   1.163   9.247 -0.8224 -0.4223 -1.2674
  158SAPE  H13R17668   4.816   1.224   9.335  4.1920  0.2884  0.0715
  158SAPE  H13S17669   4.785   1.070   9.254  1.1231 -1.6102  0.4180
  158SAPE  C21417670   4.801   1.232   9.124 -0.1864  0.6288 -0.0010
  158SAPE  H14R17671   4.714   1.190   9.070  0.5130  1.2812 -1.6799
  158SAPE  C21517672   4.838   1.359   9.094 -0.4120 -0.5420 -0.0724
  158SAPE  H15R17673   4.806   1.425   9.012 -0.7126  0.9976  1.2594
  158SAPE  C21617674   4.935   1.439   9.183 -0.2767 -0.0367 -0.2645
  158SAPE  H16R17675   5.036   1.436   9.137  0.6747  0.3402  1.7318
  158SAPE  H16S17676   4.955   1.396   9.284 -0.6008  1.1838  0.3359
  158SAPE  C21717677   4.898   1.590   9.184  0.8963  0.6028 -0.7651
  158SAPE  H17R17678   4.896   1.608   9.075 -0.9475 -2.6861 -1.3303
  158SAPE  H17S17679   4.980   1.644   9.237  1.5205 -1.9452  0.9402
  158SAPE  C21817680   4.762   1.615   9.256 -0.5243 -0.0853  0.5958
  158SAPE  H18R17681   4.681   1.565   9.198  0.9778  0.4290 -2.0034
  158SAPE  H18S17682   4.755   1.726   9.245  2.4132 -0.0516 -1.4040
  158SAPE  C21917683   4.756   1.573   9.399  0.1049  0.5857 -0.5818
  158SAPE  H19R17684   4.795   1.469   9.405 -0.7302  0.3193  0.2814
  158SAPE  H19S17685   4.648   1.582   9.423  0.1558 -0.9650  0.3228
  158SAPE  C22017686   4.846   1.651   9.496  1.4253  0.7998  0.2634
  158SAPE  H20R17687   4.952   1.656   9.463  0.7306  2.0441 -1.9094
  158SAPE  H20S17688   4.859   1.582   9.582 -1.4733  2.6249  2.2733
  158SAPE  H20T17689   4.810   1.748   9.536 -3.8693 -0.1715 -1.7574
  158SAPE   C3317690   5.706   1.565   9.819 -0.0981 -0.4044 -0.9996
  158SAPE   H3X17691   5.602   1.528   9.811 -0.9021  0.7695  3.1477
  158SAPE   H3Y17692   5.781   1.491   9.782  0.7511  0.1387 -0.3878
  158SAPE   C3417693   5.742   1.679   9.730  0.0870 -0.5080 -0.8957
  158SAPE   H4X17694   5.832   1.737   9.760 -0.5735  0.0868 -0.0461
  158SAPE   H4Y17695   5.653   1.744   9.714 -0.2816 -0.6334  0.5496
  158SAPE   C3517696   5.785   1.631   9.595  0.2968 -0.1045 -0.1431
  158SAPE   H5X17697   5.709   1.570   9.543  0.3196 -0.9086  0.7536
  158SAPE   H5Y17698   5.880   1.574   9.601  1.4123  1.7196  0.1187
  158SAPE   C3617699   5.806   1.752   9.509  0.2748 -0.3529  0.3827
  158SAPE   H6X17700   5.891   1.818   9.538 -0.1468  1.4286 -2.1856
  158SAPE   H6Y17701   5.704   1.796   9.502  0.7518  0.9051  1.3049
  158SAPE   C3717702   5.840   1.716   9.363 -0.1890  0.6756 -0.1152
  158SAPE   H7X17703   5.833   1.815   9.314  3.0111 -0.6814 -3.5835
  158SAPE   H7Y17704   5.764   1.643   9.326 -0.3086  1.6779 -1.9258
  158SAPE   C3817705   5.977   1.651   9.339  0.3895 -0.2965 -0.2009
  158SAPE   H8X17706   5.981   1.546   9.375 -0.2789 -0.0033  0.7860
  158SAPE   H8Y17707   6.054   1.701   9.402  0.5988  1.4833 -1.8199
  158SAPE   C3917708   6.018   1.657   9.187 -0.0605  0.1763 -0.2165
  158SAPE   H9X17709   6.123   1.621   9.193  0.6721  2.2260 -0.2393
  158SAPE   H9Y17710   6.022   1.760   9.145 -0.9591 -0.6846 -2.4687
  158SAPE  C31017711   5.929   1.576   9.102 -0.5153  0.0222 -0.2240
  158SAPE  H10X17712   5.823   1.607   9.107 -1.0529 -1.9706  1.2908
  158SAPE  H10Y17713   5.932   1.472   9.140  2.6657 -1.0621 -3.1196
  158SAPE  C31117714   5.983   1.559   8.960  0.0209 -0.2938  0.3145
  158SAPE  H11X17715   6.071   1.492   8.971 -0.3062 -0.9414 -0.9846
  158SAPE  H11Y17716   6.025   1.656   8.927 -3.8931  1.5936  0.6889
  158SAPE  C31217717   5.894   1.499   8.856 -0.1463  0.1536 -0.4298
  158SAPE  H12X17718   5.797   1.553   8.850 -0.4521 -0.1474  1.6875
  158SAPE  H12Y17719   5.873   1.394   8.887 -1.7618  0.3293 -0.8437
  158SAPE  C31317720   5.956   1.489   8.714  0.2948 -0.1784  0.1518
  158SAPE  H13X17721   6.062   1.458   8.723  0.4690  0.4968  0.4951
  158SAPE  H13Y17722   5.963   1.595   8.682 -0.1020  0.4424  2.0490
  158SAPE  C31417723   5.886   1.406   8.603 -0.8715  0.4956 -0.3695
  158SAPE  H14X17724   5.960   1.390   8.521 -2.2481  0.3369 -1.5834
  158SAPE  H14Y17725   5.800   1.473   8.587 -0.4828  0.4253 -3.0394
  158SAPE  C31517726   5.852   1.267   8.647 -0.3638 -0.0052  0.6190
  158SAPE  H15X17727   5.786   1.276   8.736 -0.5182  1.7256  0.3555
  158SAPE  H15Y17728   5.947   1.220   8.679  0.6009  2.1133  0.9231
  158SAPE  C31617729   5.769   1.194   8.541 -0.0860 -0.4924  0.4054
  158SAPE  H16X17730   5.749   1.093   8.581  1.1769 -0.7422  0.4085
  158SAPE  H16Y17731   5.831   1.186   8.449 -0.7398  0.8104 -0.1756
  158SAPE  C31717732   5.632   1.264   8.507 -0.8967 -0.0189 -0.1587
  158SAPE  H17X17733   5.652   1.346   8.435 -0.7116  0.2778  0.2312
  158SAPE  H17Y17734   5.599   1.307   8.604 -1.9201 -1.5468  0.2032
  158SAPE  C31817735   5.531   1.166   8.446 -0.6568 -0.1913  0.5159
  158SAPE  H18X17736   5.435   1.222   8.442 -0.3175  0.3262 -0.6892
  158SAPE  H18Y17737   5.519   1.077   8.511  0.5665 -0.4005  0.4718
  158SAPE  H18Z17738   5.558   1.125   8.346 -2.9066  1.4825 -0.8116
  159SAPE     N17739   3.655   5.922   6.431  0.5873  0.2756 -0.4424
  159SAPE   HN117740   3.750   5.949   6.398  0.4759  0.9917 -0.1719
  159SAPE   HN217741   3.628   5.829   6.391 -0.9098  0.7369 -0.5301
  159SAPE   HN317742   3.596   5.996   6.389 -0.9854  0.7360  2.4786
  159SAPE   C1217743   3.666   5.931   6.578  0.7236 -0.5679 -0.1491
  159SAPE  H12A17744   3.568   5.913   6.627  0.6647  0.3323  0.0567
  159SAPE  H12B17745   3.710   6.026   6.614 -0.5423  0.2618 -0.7636
  159SAPE   C1117746   3.752   5.813   6.626 -0.0856  0.0304  0.1627
  159SAPE  H11A17747   3.703   5.716   6.608 -0.5382  0.2700  0.0955
  159SAPE  H11B17748   3.743   5.824   6.736 -0.8716 -1.7368  0.2746
  159SAPE     P17749   3.949   5.731   6.488  0.4322  0.5970  0.3262
  159SAPE   O1317750   3.870   5.747   6.365  0.2441  0.9124 -0.4221
  159SAPE   O1417751   4.096   5.756   6.481  0.2989  0.0083  0.0946
  159SAPE   O1217752   3.896   5.829   6.601  0.2181  0.7812  0.3608
  159SAPE   O1117753   3.919   5.591   6.540  0.1397  0.1487  0.4436
  159SAPE    C117754   4.002   5.508   6.623 -0.3755 -0.8264 -0.0003
  159SAPE    HA17755   3.961   5.405   6.618  0.9207 -1.4047  1.1954
  159SAPE    HB17756   4.111   5.505   6.600 -0.5125  0.0080 -0.7931
  159SAPE    C217757   3.989   5.529   6.775 -0.5671 -0.0442  0.0524
  159SAPE    HS17758   4.026   5.447   6.839  0.7780 -1.3453 -2.3203
  159SAPE   O2117759   3.860   5.574   6.811  0.4301 -0.2294  0.3507
  159SAPE   C2117760   3.788   5.476   6.852  0.6260  0.1943  0.1856
  159SAPE   O2217761   3.813   5.360   6.850  0.2857 -0.2778  0.1893
  159SAPE   C2217762   3.645   5.526   6.875  0.8875  0.2018  0.2409
  159SAPE   H2R17763   3.650   5.622   6.930  0.3851 -0.5118  1.5610
  159SAPE   H2S17764   3.595   5.536   6.776 -1.5629  1.0128  1.5136
  159SAPE    C317765   4.089   5.644   6.810 -0.1473  0.1233  0.7672
  159SAPE    HX17766   4.050   5.746   6.790 -0.6634 -0.1852  0.1969
  159SAPE    HY17767   4.185   5.638   6.753 -0.1546  0.5808  0.7063
  159SAPE   O3117768   4.128   5.639   6.952 -0.3638 -0.2617  0.5173
  159SAPE   C3117769   4.231   5.548   6.976 -0.2316  0.9993  0.6312
  159SAPE   O3217770   4.281   5.479   6.892 -0.9648  0.0031 -0.3623
  159SAPE   C3217771   4.266   5.546   7.120 -0.4427  0.4450 -0.6648
  159SAPE   H2X17772   4.290   5.654   7.131  0.1483  0.3006 -0.4902
  159SAPE   H2Y17773   4.362   5.491   7.131 -1.3202 -0.8693  0.6081
  159SAPE   C2317774   3.572   5.437   6.969  0.6130  0.3214 -0.0343
  159SAPE   H3R17775   3.586   5.329   6.945 -1.2628  0.2766 -0.9611
  159SAPE   H3S17776   3.464   5.453   6.951  1.2282  1.4397 -2.8879
  159SAPE   C2417777   3.618   5.454   7.114 -0.3958  0.9592 -0.0890
  159SAPE   H4R17778   3.611   5.562   7.139  0.6257  0.6197  1.7865
  159SAPE   H4S17779   3.727   5.432   7.116 -0.0257  2.7504  0.6368
  159SAPE   C2517780   3.546   5.376   7.216  0.1332  0.2275 -0.7549
  159SAPE   H5R17781   3.464   5.318   7.173  1.0766 -0.3913 -1.7543
  159SAPE   C2617782   3.566   5.383   7.349 -0.1099  0.0251  0.0313
  159SAPE   H6R17783   3.508   5.331   7.427 -1.8984  0.0977 -1.2132
  159SAPE   C2717784   3.670   5.477   7.417  0.1786 -0.2414  0.0334
  159SAPE   H7R17785   3.610   5.542   7.485  0.5743 -0.2684  0.4113
  159SAPE   H7S17786   3.709   5.550   7.342 -0.7349 -0.4948 -0.6970
  159SAPE   C2817787   3.772   5.408   7.497 -0.6574  0.2001 -0.6539
  159SAPE   H8R17788   3.798   5.310   7.455 -0.1988 -0.5454  1.3184
  159SAPE   C2917789   3.822   5.439   7.619  0.2478 -0.2309 -0.3103
  159SAPE   H9R17790   3.897   5.381   7.675  0.8936  0.9191  0.0380
  159SAPE  C21017791   3.782   5.565   7.692  0.1684 -0.8366  0.6477
  159SAPE  H10R17792   3.735   5.646   7.633 -0.3256 -2.2096 -0.8584
  159SAPE  H10S17793   3.874   5.616   7.729  0.5414 -0.6832 -0.4820
  159SAPE  C21117794   3.701   5.512   7.806  0.6058 -0.7320  0.7788
  159SAPE  H11R17795   3.607   5.462   7.780  1.4899 -2.2258  0.4156
  159SAPE  C21217796   3.724   5.494   7.941 -0.3913  0.2131 -0.1722
  159SAPE  H12R17797   3.640   5.467   8.007 -0.5837  1.5960  0.1593
  159SAPE  C21317798   3.848   5.528   8.018  0.2688  0.8682 -0.0946
  159SAPE  H13R17799   3.926   5.558   7.945 -1.2839  4.1408 -0.4937
  159SAPE  H13S17800   3.889   5.435   8.065  2.1159  0.4125 -2.5372
  159SAPE  C21417801   3.833   5.642   8.120  0.3144  0.8355  0.4470
  159SAPE  H14R17802   3.856   5.742   8.079 -1.0062  1.0498  0.1960
  159SAPE  C21517803   3.828   5.635   8.254 -0.1977  1.0698 -0.4180
  159SAPE  H15R17804   3.826   5.734   8.301  0.9847  1.2632 -0.7664
  159SAPE  C21617805   3.819   5.523   8.355 -0.1567  0.7500  0.2851
  159SAPE  H16R17806   3.802   5.562   8.458  1.1543 -1.3424  1.3447
  159SAPE  H16S17807   3.908   5.457   8.351  0.1610  1.1333  0.8553
  159SAPE  C21717808   3.688   5.448   8.317 -0.3823  0.2392  0.3074
  159SAPE  H17R17809   3.677   5.362   8.387 -2.5749  0.0355 -0.2471
  159SAPE  H17S17810   3.695   5.408   8.214 -3.0384  2.2309 -0.7018
  159SAPE  C21817811   3.560   5.522   8.352 -0.2477 -0.3423  0.5797
  159SAPE  H18R17812   3.474   5.471   8.302 -0.1916  1.5321 -1.5062
  159SAPE  H18S17813   3.559   5.628   8.318  0.2811 -0.9608 -1.3980
  159SAPE  C21917814   3.524   5.536   8.494 -0.0720  0.2827  0.2025
  159SAPE  H19R17815   3.494   5.641   8.510 -4.0051 -0.6222 -0.7738
  159SAPE  H19S17816   3.607   5.522   8.567  0.1099 -3.2214 -0.5627
  159SAPE  C22017817   3.409   5.449   8.534  0.0065  0.5557 -0.1032
  159SAPE  H20R17818   3.319   5.507   8.505  1.4094  2.3491 -0.9528
  159SAPE  H20S17819   3.419   5.439   8.644 -0.4860 -1.1766 -0.2085
  159SAPE  H20T17820   3.416   5.343   8.500  3.5930  0.1080  1.7932
  159SAPE   C3317821   4.155   5.504   7.222 -0.0131 -0.1585 -0.4436
  159SAPE   H3X17822   4.102   5.420   7.173  1.4685 -0.7122 -1.1188
  159SAPE   H3Y17823   4.086   5.591   7.220  0.1548 -0.0506 -2.2710
  159SAPE   C3417824   4.200   5.458   7.361  0.1863 -0.5420 -0.6624
  159SAPE   H4X17825   4.292   5.396   7.354  1.2075  0.8955 -0.1698
  159SAPE   H4Y17826   4.117   5.406   7.413  0.6260  0.9949  1.6264
  159SAPE   C3517827   4.227   5.574   7.457 -0.9286 -0.4107  0.3502
  159SAPE   H5X17828   4.138   5.640   7.462 -1.5165 -1.3887  4.8514
  159SAPE   H5Y17829   4.304   5.640   7.411  1.4334 -3.6737 -0.5544
  159SAPE   C3617830   4.299   5.542   7.590 -0.5248 -0.2172 -0.6000
  159SAPE   H6X17831   4.387   5.603   7.618 -1.9563  1.9716 -0.7749
  159SAPE   H6Y17832   4.331   5.438   7.568  2.2389  0.6582 -0.9514
  159SAPE   C3717833   4.213   5.532   7.718  0.4305  0.9498  0.5926
  159SAPE   H7X17834   4.115   5.482   7.700  0.8227  0.7632 -1.1024
  159SAPE   H7Y17835   4.193   5.630   7.764 -2.4779  0.8807 -0.3990
  159SAPE   C3817836   4.285   5.445   7.828 -0.1415  0.1757  0.9087
  159SAPE   H8X17837   4.386   5.486   7.850  1.2022 -1.9394 -1.0420
  159SAPE   H8Y17838   4.316   5.348   7.783 -1.9321  0.5158 -1.1344
  159SAPE   C3917839   4.209   5.429   7.957 -0.9160 -0.5499  0.8579
  159SAPE   H9X17840   4.107   5.391   7.936 -0.7581 -0.4439 -0.1173
  159SAPE   H9Y17841   4.189   5.526   8.007  0.2869  1.1796 -1.9012
  159SAPE  C31017842   4.274   5.333   8.057 -0.6840  0.5380 -0.1908
  159SAPE  H10X17843   4.381   5.360   8.071 -0.5080 -0.8592  1.2769
  159SAPE  H10Y17844   4.283   5.229   8.019 -0.2974 -1.2768  4.5410
  159SAPE  C31117845   4.204   5.314   8.189  0.3100  0.1493 -0.0877
  159SAPE  H11X17846   4.100   5.294   8.157  0.0448  2.4772 -0.7890
  159SAPE  H11Y17847   4.205   5.413   8.239  0.9294  0.5121 -0.8161
  159SAPE  C31217848   4.264   5.206   8.286  0.1195 -0.1518  0.2412
  159SAPE  H12X17849   4.202   5.220   8.377  2.2103  1.8361  1.4044
  159SAPE  H12Y17850   4.372   5.228   8.299 -0.3300  1.2369  1.8374
  159SAPE  C31317851   4.257   5.055   8.238  0.2416 -0.4143  0.7518
  159SAPE  H13X17852   4.334   5.031   8.162  1.6889  1.5662  1.5541
  159SAPE  H13Y17853   4.156   5.045   8.191 -0.1450 -0.0327  1.4919
  159SAPE  C31417854   4.278   4.948   8.348 -0.1031 -0.2886 -0.5557
  159SAPE  H14X17855   4.207   4.975   8.429 -0.6553  1.0810 -1.4716
  159SAPE  H14Y17856   4.377   4.945   8.399 -0.0532  0.8850 -0.5727
  159SAPE  C31517857   4.259   4.801   8.312  0.3759  0.4242  0.9269
  159SAPE  H15X17858   4.333   4.762   8.239  0.0570 -0.2149  0.9401
  159SAPE  H15Y17859   4.159   4.800   8.263  0.8065  3.0985 -0.1016
  159SAPE  C31617860   4.267   4.715   8.442  0.6706 -0.4758 -0.2740
  159SAPE  H16X17861   4.249   4.777   8.533 -3.9262 -2.8600  0.6038
  159SAPE  H16Y17862   4.371   4.677   8.447  1.1355  0.8217  0.2357
  159SAPE  C31717863   4.164   4.599   8.452 -0.3019 -0.3587  0.6021
  159SAPE  H17X17864   4.143   4.537   8.362 -1.7130 -0.0245  0.6860
  159SAPE  H17Y17865   4.067   4.647   8.480 -0.1855  0.6362 -0.6342
  159SAPE  C31817866   4.209   4.496   8.554 -0.3210 -0.0389 -0.0951
  159SAPE  H18X17867   4.123   4.429   8.575  0.9080 -1.0223  1.9168
  159SAPE  H18Y17868   4.247   4.540   8.649  2.1059 -1.9181 -0.1408
  159SAPE  H18Z17869   4.289   4.440   8.500 -1.5248 -1.6841 -0.2148
  160SAPE     N17870   2.938   6.064   6.690 -0.5808 -0.1828 -0.3540
  160SAPE   HN117871   2.980   6.079   6.597  0.3820 -1.0827 -0.0747
  160SAPE   HN217872   3.019   6.079   6.754 -0.9019 -0.8245  0.2104
  160SAPE   HN317873   2.907   5.966   6.700  0.6937 -0.5623 -0.0775
  160SAPE   C1217874   2.844   6.179   6.717  0.6687 -0.4977 -0.0754
  160SAPE  H12A17875   2.798   6.172   6.818  0.3990 -0.3862 -0.1898
  160SAPE  H12B17876   2.769   6.178   6.635  1.5613 -1.8285 -0.8957
  160SAPE   C1117877   2.920   6.321   6.717 -0.3851 -0.0586  0.6223
  160SAPE  H11A17878   2.997   6.314   6.797 -0.0430  1.0249  0.3943
  160SAPE  H11B17879   2.845   6.402   6.736  2.8694  3.3024 -0.2442
  160SAPE     P17880   3.046   6.492   6.553 -0.1619  0.0809 -0.0507
  160SAPE   O1317881   3.182   6.487   6.608 -0.4547  0.4332  0.6522
  160SAPE   O1417882   3.031   6.516   6.408  0.0601  0.1604  0.2576
  160SAPE   O1217883   2.980   6.351   6.593  0.6555 -0.0837 -0.1084
  160SAPE   O1117884   2.963   6.598   6.637  0.7703  0.0805 -0.4027
  160SAPE    C117885   2.961   6.735   6.603 -0.7681 -0.4067 -0.5138
  160SAPE    HA17886   2.969   6.739   6.493  2.1810  0.1706 -0.3056
  160SAPE    HB17887   2.860   6.774   6.629 -0.3063  1.1321 -0.9401
  160SAPE    C217888   3.078   6.821   6.659 -0.4258  0.3832 -0.4428
  160SAPE    HS17889   3.180   6.780   6.643 -0.1440  0.1828  1.6951
  160SAPE   O2117890   3.056   6.833   6.795 -0.0689 -0.2565 -0.0879
  160SAPE   C2117891   3.154   6.817   6.882 -0.2635  0.1828  0.0325
  160SAPE   O2217892   3.266   6.786   6.847 -0.3639  0.0085  0.3581
  160SAPE   C2217893   3.107   6.858   7.022  0.0431 -0.2116 -0.2517
  160SAPE   H2R17894   3.049   6.948   6.996  0.3996 -0.4460 -1.8971
  160SAPE   H2S17895   3.046   6.777   7.068 -0.7642  0.4370 -0.1899
  160SAPE    C317896   3.089   6.959   6.590  0.2400  0.0829 -0.6775
  160SAPE    HX17897   2.993   7.015   6.590 -0.2195 -0.6914 -1.5036
  160SAPE    HY17898   3.093   6.947   6.480 -1.5332 -1.0674 -0.6412
  160SAPE   O3117899   3.213   7.028   6.638  0.2345  0.7076  0.7397
  160SAPE   C3117900   3.196   7.128   6.727  0.0853 -0.6301  0.0802
  160SAPE   O3217901   3.089   7.155   6.786  0.1453 -0.3453  0.9402
  160SAPE   C3217902   3.320   7.209   6.730  0.0293 -0.1197  0.1370
  160SAPE   H2X17903   3.302   7.318   6.721  1.1545  0.1444  0.9490
  160SAPE   H2Y17904   3.375   7.188   6.636  1.4733 -0.2192  0.9949
  160SAPE   C2317905   3.220   6.882   7.122 -0.5694 -0.5220 -0.3868
  160SAPE   H3R17906   3.283   6.971   7.099  1.2180 -2.1053 -1.8232
  160SAPE   H3S17907   3.294   6.800   7.114 -0.8268 -0.5400 -3.4913
  160SAPE   C2417908   3.164   6.895   7.269  0.0081 -0.0837  1.0026
  160SAPE   H4R17909   3.264   6.896   7.318  0.4530  0.0850  0.1113
  160SAPE   H4S17910   3.106   6.803   7.291  0.4889 -0.1351  2.0778
  160SAPE   C2517911   3.069   7.009   7.277 -0.3930 -0.2818  0.5140
  160SAPE   H5R17912   2.995   7.000   7.195  1.1911 -1.0805 -0.8708
  160SAPE   C2617913   3.081   7.104   7.372 -0.0261 -0.3467  0.4573
  160SAPE   H6R17914   3.006   7.185   7.375 -1.2239 -1.4688  2.9965
  160SAPE   C2717915   3.184   7.123   7.488  0.2975 -0.5938  0.4912
  160SAPE   H7R17916   3.167   7.228   7.519  2.8228  0.6987 -2.2828
  160SAPE   H7S17917   3.289   7.124   7.451  0.9025 -1.7646  2.1050
  160SAPE   C2817918   3.160   7.013   7.596  0.2098 -0.3945 -0.2273
  160SAPE   H8R17919   3.123   6.914   7.566 -0.8456  0.0566 -0.4511
  160SAPE   C2917920   3.190   7.024   7.727  0.1997  0.4254  0.1168
  160SAPE   H9R17921   3.165   6.943   7.797 -2.0521 -0.2011 -1.3932
  160SAPE  C21017922   3.239   7.149   7.797 -0.5081  0.8861 -0.0236
  160SAPE  H10R17923   3.298   7.211   7.726  0.9924  0.4011  0.7748
  160SAPE  H10S17924   3.320   7.118   7.867  0.6168  2.2460 -0.6858
  160SAPE  C21117925   3.133   7.230   7.866  0.5169  0.5191 -0.1442
  160SAPE  H11R17926   3.052   7.267   7.801 -0.3463  2.0837  1.7392
  160SAPE  C21217927   3.128   7.261   7.998  0.2422  0.3026  0.7306
  160SAPE  H12R17928   3.044   7.322   8.036 -1.5001 -2.0478  0.7092
  160SAPE  C21317929   3.218   7.208   8.107  0.2504  0.5184  0.6530
  160SAPE  H13R17930   3.266   7.114   8.074 -0.2636  0.7076 -0.6314
  160SAPE  H13S17931   3.155   7.184   8.195 -1.2479 -1.0420 -0.8227
  160SAPE  C21417932   3.329   7.304   8.155 -0.7781  0.6948 -0.0078
  160SAPE  H14R17933   3.386   7.338   8.068  1.1402 -1.1112  0.4980
  160SAPE  C21517934   3.355   7.352   8.282 -0.4216  0.1514  0.0876
  160SAPE  H15R17935   3.445   7.415   8.294 -2.0508  3.3588 -3.2999
  160SAPE  C21617936   3.294   7.321   8.416  0.8161  0.4444 -1.1450
  160SAPE  H16R17937   3.255   7.217   8.413 -0.5458  0.9263 -0.4948
  160SAPE  H16S17938   3.212   7.390   8.446 -0.7851 -1.4367 -1.0633
  160SAPE  C21717939   3.399   7.318   8.534  0.0974 -0.3081 -0.4709
  160SAPE  H17R17940   3.502   7.302   8.496 -0.7745 -0.8785 -2.6625
  160SAPE  H17S17941   3.386   7.234   8.606 -3.2355 -0.4059 -1.0858
  160SAPE  C21817942   3.397   7.441   8.623 -0.1566 -0.2662  0.0277
  160SAPE  H18R17943   3.295   7.485   8.623 -0.2824 -0.5588  0.5713
  160SAPE  H18S17944   3.474   7.509   8.580 -0.8362 -0.3065 -1.2869
  160SAPE  C21917945   3.431   7.419   8.767  0.1491 -0.0133 -0.9277
  160SAPE  H19R17946   3.379   7.336   8.818  0.5749  0.8266  0.9096
  160SAPE  H19S17947   3.397   7.510   8.821  1.3424 -0.8818  1.3713
  160SAPE  C22017948   3.577   7.393   8.796  0.3363 -0.3788  0.2820
  160SAPE  H20R17949   3.620   7.304   8.746  2.8402  0.8867  0.0773
  160SAPE  H20S17950   3.589   7.372   8.905  0.6828 -0.5725  0.2093
  160SAPE  H20T17951   3.651   7.474   8.776  1.0304 -1.2135 -0.5862
  160SAPE   C3317952   3.406   7.179   6.857 -0.2668  0.3128  0.2269
  160SAPE   H3X17953   3.510   7.210   6.832 -0.0205 -0.9667 -0.3905
  160SAPE   H3Y17954   3.401   7.071   6.883  0.7723 -0.7756 -3.6695
  160SAPE   C3417955   3.353   7.259   6.970 -0.0558  0.4111 -0.1220
  160SAPE   H4X17956   3.244   7.250   6.989 -0.0618 -0.2171 -0.4216
  160SAPE   H4Y17957   3.364   7.366   6.944 -0.5619  0.7127  0.8584
  160SAPE   C3517958   3.431   7.231   7.111 -0.2922 -0.4734  0.8833
  160SAPE   H5X17959   3.533   7.255   7.076 -0.2972  0.1130  1.2804
  160SAPE   H5Y17960   3.423   7.123   7.135 -0.1540 -0.4941  0.8364
  160SAPE   C3617961   3.404   7.343   7.210  0.1904  0.0296 -0.1319
  160SAPE   H6X17962   3.295   7.345   7.231  0.3005 -0.6108  0.5348
  160SAPE   H6Y17963   3.429   7.439   7.161 -0.0015  0.2996  0.3006
  160SAPE   C3717964   3.496   7.324   7.326  0.0669 -0.5115 -0.1231
  160SAPE   H7X17965   3.600   7.342   7.292  0.2002  0.9261  0.9842
  160SAPE   H7Y17966   3.493   7.221   7.366  1.4728  0.0392  1.4893
  160SAPE   C3817967   3.467   7.410   7.449  0.3515  0.2034  0.1041
  160SAPE   H8X17968   3.366   7.382   7.484  1.9005  0.3083  5.0598
  160SAPE   H8Y17969   3.459   7.515   7.414  0.1187 -0.1649 -0.9635
  160SAPE   C3917970   3.562   7.405   7.566 -0.2605 -0.2710  0.2888
  160SAPE   H9X17971   3.664   7.449   7.558 -1.0831  1.5672 -0.2114
  160SAPE   H9Y17972   3.580   7.299   7.596 -0.1587  0.2198  2.0190
  160SAPE  C31017973   3.496   7.469   7.696 -0.2396 -0.0735  0.4032
  160SAPE  H10X17974   3.386   7.452   7.704 -0.2984  0.3868  0.5988
  160SAPE  H10Y17975   3.504   7.577   7.671  0.2939  0.2466  1.8872
  160SAPE  C31117976   3.560   7.451   7.832 -0.2938  0.0900 -0.4021
  160SAPE  H11X17977   3.584   7.343   7.846 -0.0772  0.1541 -0.2630
  160SAPE  H11Y17978   3.486   7.480   7.910  0.5885  0.9097  0.1501
  160SAPE  C31217979   3.679   7.540   7.864 -0.5558 -0.4739 -0.2567
  160SAPE  H12X17980   3.644   7.645   7.854 -0.8606 -0.1983  3.1390
  160SAPE  H12Y17981   3.758   7.524   7.788 -2.4454 -1.3370 -2.0741
  160SAPE  C31317982   3.735   7.517   8.006 -0.3629  0.2908  0.5261
  160SAPE  H13X17983   3.821   7.584   8.027  0.1762 -0.1296 -0.2902
  160SAPE  H13Y17984   3.761   7.409   8.012  2.5533  0.9940  1.5761
  160SAPE  C31417985   3.642   7.547   8.125  0.0812 -0.1961 -0.4517
  160SAPE  H14X17986   3.699   7.532   8.219 -0.5751 -0.5422 -0.1073
  160SAPE  H14Y17987   3.558   7.474   8.119 -0.5980  0.5802 -0.5039
  160SAPE  C31517988   3.577   7.684   8.124  0.6194  0.0861 -1.0085
  160SAPE  H15X17989   3.511   7.679   8.035 -2.0821  1.2318  0.8601
  160SAPE  H15Y17990   3.658   7.761   8.125  2.9485 -2.2732 -0.5531
  160SAPE  C31617991   3.492   7.702   8.256  1.0939 -0.2428  0.2249
  160SAPE  H16X17992   3.559   7.703   8.345 -1.2399  2.7117  2.0719
  160SAPE  H16Y17993   3.425   7.614   8.264  0.2125  0.4238  0.2975
  160SAPE  C31717994   3.412   7.836   8.253 -0.5925  0.7902  0.1366
  160SAPE  H17X17995   3.359   7.836   8.155 -2.5196 -1.3396  1.1244
  160SAPE  H17Y17996   3.474   7.928   8.259  0.7088 -0.0360 -0.4683
  160SAPE  C31817997   3.313   7.843   8.374  0.2589 -0.1768 -0.4042
  160SAPE  H18X17998   3.229   7.770   8.367  0.2280 -0.2596  0.7392
  160SAPE  H18Y17999   3.271   7.944   8.395  2.1447  0.7264 -0.8777
  160SAPE  H18Z18000   3.367   7.802   8.462 -3.2740 -0.7338  1.6065
  161SAPE     N18001   5.009   5.093   6.218  0.3037  0.0470  0.9758
  161SAPE   HN118002   5.066   5.076   6.303 -0.2073  0.7456  1.4647
  161SAPE   HN218003   5.044   5.175   6.164  0.6055  1.3594  3.0953
  161SAPE   HN318004   4.913   5.125   6.242  0.2092  2.0515 -1.7548
  161SAPE   C1218005   4.995   4.964   6.141 -0.2404 -0.1103 -0.4104
  161SAPE  H12A18006   5.065   4.969   6.055 -1.6305  2.0033 -1.4693
  161SAPE  H12B18007   4.896   4.963   6.089  0.4931  1.2763 -1.8709
  161SAPE   C1118008   5.008   4.848   6.232  0.6953 -0.5626  0.9822
  161SAPE  H11A18009   4.996   4.763   6.162  0.0357 -0.5364  1.0618
  161SAPE  H11B18010   4.928   4.857   6.309 -0.5543  0.1071 -0.3618
  161SAPE     P18011   5.220   4.733   6.319 -0.3105  0.6572 -0.1965
  161SAPE   O1318012   5.177   4.617   6.239  0.5724 -0.1040  0.5424
  161SAPE   O1418013   5.360   4.778   6.315  0.2760 -0.1637  1.1354
  161SAPE   O1218014   5.135   4.859   6.284 -0.2589 -0.0027  0.2309
  161SAPE   O1118015   5.176   4.708   6.472 -0.1226  0.0410 -0.0936
  161SAPE    C118016   5.141   4.827   6.547  0.2438 -0.9174 -0.2535
  161SAPE    HA18017   5.219   4.907   6.547  0.2572 -0.9309 -0.8282
  161SAPE    HB18018   5.046   4.867   6.506  0.1687 -0.2143  0.5806
  161SAPE    C218019   5.094   4.780   6.691  0.1381  0.4752  0.0751
  161SAPE    HS18020   4.984   4.768   6.687  0.2081  0.0297 -0.7148
  161SAPE   O2118021   5.134   4.881   6.788  0.0749 -0.2952 -0.4401
  161SAPE   C2118022   5.100   4.998   6.758 -0.0355 -0.9142 -0.8806
  161SAPE   O2218023   5.014   5.038   6.677 -0.1493  0.2672  0.3032
  161SAPE   C2218024   5.174   5.092   6.849 -0.2974 -0.3700 -0.0734
  161SAPE   H2R18025   5.188   5.048   6.950 -1.1409 -1.2009 -0.3035
  161SAPE   H2S18026   5.274   5.124   6.815 -0.2618  0.3387  0.6892
  161SAPE    C318027   5.146   4.636   6.739 -0.0468  0.2240 -1.0654
  161SAPE    HX18028   5.254   4.654   6.724  0.4688 -0.8215  1.2120
  161SAPE    HY18029   5.122   4.554   6.669  2.5706 -1.5502  0.0466
  161SAPE   O3118030   5.106   4.600   6.877 -0.7503  0.1267  0.5989
  161SAPE   C3118031   5.191   4.520   6.937 -0.0534  0.7907 -0.1934
  161SAPE   O3218032   5.290   4.469   6.888  0.3484 -0.0114  0.2023
  161SAPE   C3218033   5.144   4.501   7.087 -0.5287 -0.3054  0.1510
  161SAPE   H2X18034   5.062   4.427   7.096 -0.0466 -0.6781  1.6067
  161SAPE   H2Y18035   5.105   4.600   7.120  0.6905  0.5276 -0.8138
  161SAPE   C2318036   5.096   5.227   6.873 -0.0039  0.1668 -0.1085
  161SAPE   H3R18037   5.079   5.278   6.776 -0.0915  0.2910 -0.0283
  161SAPE   H3S18038   5.152   5.290   6.946 -0.0535  0.4415 -0.3064
  161SAPE   C2418039   4.953   5.214   6.935 -0.7331  0.7272  0.6116
  161SAPE   H4R18040   4.885   5.175   6.855  1.1911  1.2800 -1.3352
  161SAPE   H4S18041   4.915   5.315   6.959 -0.0803  1.7037 -2.2246
  161SAPE   C2518042   4.939   5.115   7.045  0.0130 -0.6064 -0.0166
  161SAPE   H5R18043   4.929   5.010   7.016 -1.1575 -1.5771  3.5705
  161SAPE   C2618044   4.955   5.135   7.180 -0.3516 -0.3511 -0.4604
  161SAPE   H6R18045   4.944   5.060   7.260  2.4187 -0.8359 -0.5159
  161SAPE   C2718046   4.992   5.269   7.242  0.1600 -0.4903 -0.2248
  161SAPE   H7R18047   5.001   5.354   7.171  0.9097  1.6020  2.3028
  161SAPE   H7S18048   5.096   5.266   7.281  0.5424 -1.8261 -1.2958
  161SAPE   C2818049   4.892   5.315   7.357 -0.4815 -0.3526  1.5566
  161SAPE   H8R18050   4.796   5.349   7.315  0.1631 -0.6722 -0.2065
  161SAPE   C2918051   4.910   5.322   7.487  0.2343  0.2853  0.2357
  161SAPE   H9R18052   4.826   5.355   7.550  0.7969 -0.0715  1.1890
  161SAPE  C21018053   5.041   5.286   7.557 -0.0657 -0.1191 -0.1612
  161SAPE  H10R18054   5.122   5.268   7.483  0.5377 -0.2156  0.5223
  161SAPE  H10S18055   5.023   5.186   7.603  0.6627  0.0833  0.5539
  161SAPE  C21118056   5.090   5.400   7.647  0.6402  0.2607 -0.3495
  161SAPE  H11R18057   5.117   5.488   7.587 -1.9161  0.5137 -1.1581
  161SAPE  C21218058   5.091   5.411   7.781 -0.7377 -0.5473 -0.3257
  161SAPE  H12R18059   5.120   5.508   7.824  2.5241 -2.0230  0.9155
  161SAPE  C21318060   5.044   5.303   7.875 -0.5656 -0.6742  0.6162
  161SAPE  H13R18061   5.054   5.204   7.825 -2.4685 -0.1794 -0.7752
  161SAPE  H13S18062   4.935   5.308   7.895 -0.8071 -2.9914 -0.0191
  161SAPE  C21418063   5.130   5.290   8.003 -0.5333 -0.1696  0.6230
  161SAPE  H14R18064   5.230   5.248   7.988 -0.5034  0.3271 -0.6639
  161SAPE  C21518065   5.109   5.324   8.130  0.4263  0.5569  0.4633
  161SAPE  H15R18066   5.191   5.297   8.198 -0.1290 -0.5352  0.6984
  161SAPE  C21618067   4.981   5.387   8.186  0.4139 -0.2833  0.3133
  161SAPE  H16R18068   4.950   5.322   8.270  2.1713 -0.4302  0.8630
  161SAPE  H16S18069   4.898   5.389   8.112  1.6192  0.5422 -1.0411
  161SAPE  C21718070   4.993   5.524   8.250  0.1264 -0.2419  0.1034
  161SAPE  H17R18071   4.894   5.544   8.296  0.4768 -2.4186  1.9095
  161SAPE  H17S18072   5.022   5.601   8.176  1.8071 -2.4830 -1.6611
  161SAPE  C21818073   5.099   5.532   8.356 -0.8623  0.5963  0.3700
  161SAPE  H18R18074   5.204   5.532   8.319 -0.2459  1.9382  2.0622
  161SAPE  H18S18075   5.082   5.447   8.424  0.1979 -1.2521 -1.6200
  161SAPE  C21918076   5.088   5.657   8.444  0.1834 -0.3037  0.5644
  161SAPE  H19R18077   5.144   5.648   8.539 -0.9325  1.9452  1.4770
  161SAPE  H19S18078   4.981   5.674   8.470 -0.6760 -2.3813 -1.4389
  161SAPE  C22018079   5.131   5.784   8.373 -0.0889  0.9438 -0.7112
  161SAPE  H20R18080   5.096   5.873   8.430  1.2237  0.1163  1.4352
  161SAPE  H20S18081   5.076   5.796   8.277 -0.4281  0.8113 -0.5344
  161SAPE  H20T18082   5.239   5.784   8.348  0.1925 -1.1503  0.4229
  161SAPE   C3318083   5.265   4.460   7.173  0.0734 -0.2094  0.1582
  161SAPE   H3X18084   5.362   4.508   7.150 -0.9676  1.4313 -0.8784
  161SAPE   H3Y18085   5.290   4.352   7.159  0.0534 -0.4563  1.8197
  161SAPE   C3418086   5.219   4.481   7.321 -0.3939  0.0686 -0.3343
  161SAPE   H4X18087   5.136   4.414   7.353 -0.6727  0.2915 -0.5848
  161SAPE   H4Y18088   5.199   4.589   7.335 -0.4590  0.1196 -0.8053
  161SAPE   C3518089   5.327   4.442   7.428  0.0006  0.3037  0.2618
  161SAPE   H5X18090   5.413   4.509   7.407  0.4562  0.5953  2.9365
  161SAPE   H5Y18091   5.352   4.336   7.404  1.2947  0.4016  1.1340
  161SAPE   C3618092   5.270   4.461   7.566 -0.4658 -0.2700 -0.8325
  161SAPE   H6X18093   5.207   4.375   7.598  0.5989 -1.2364 -1.3334
  161SAPE   H6Y18094   5.216   4.559   7.568 -3.6289 -1.9529  0.9213
  161SAPE   C3718095   5.392   4.472   7.660  0.5268  0.0491  0.2391
  161SAPE   H7X18096   5.458   4.557   7.631  1.3964 -1.0881 -1.1736
  161SAPE   H7Y18097   5.454   4.381   7.641  0.0431 -0.4760  1.1593
  161SAPE   C3818098   5.358   4.466   7.815 -0.2438 -0.0672 -0.1825
  161SAPE   H8X18099   5.312   4.561   7.849 -0.5343 -0.7147  1.2804
  161SAPE   H8Y18100   5.454   4.473   7.872  0.7876 -2.1620 -1.5743
  161SAPE   C3918101   5.279   4.337   7.852 -0.2313 -0.1818  0.0172
  161SAPE   H9X18102   5.313   4.255   7.784  0.8721  1.0680 -0.9633
  161SAPE   H9Y18103   5.173   4.350   7.821 -0.2983 -0.2259  0.2304
  161SAPE  C31018104   5.302   4.299   7.997 -0.1236  0.5831 -0.2755
  161SAPE  H10X18105   5.292   4.384   8.068 -1.4787 -2.2071  3.0086
  161SAPE  H10Y18106   5.407   4.265   8.011 -0.1218  0.5209 -0.4522
  161SAPE  C31118107   5.223   4.171   8.036  0.0916 -0.4417  0.9320
  161SAPE  H11X18108   5.231   4.103   7.949 -0.6767  2.3317 -1.4141
  161SAPE  H11Y18109   5.114   4.190   8.040 -0.1892 -2.2012  1.7863
  161SAPE  C31218110   5.265   4.094   8.161 -0.0627 -0.0379  0.1442
  161SAPE  H12X18111   5.264   4.163   8.248 -0.8485  1.1110 -0.7630
  161SAPE  H12Y18112   5.375   4.088   8.145 -0.2308  1.9586 -1.9257
  161SAPE  C31318113   5.196   3.965   8.192  0.3025 -0.2237 -0.0591
  161SAPE  H13X18114   5.237   3.896   8.115  0.7449 -0.3695  0.3095
  161SAPE  H13Y18115   5.089   3.960   8.163 -0.9357 -3.2105  4.5370
  161SAPE  C31418116   5.207   3.908   8.335  0.8612 -0.9504 -0.2579
  161SAPE  H14X18117   5.314   3.897   8.364  0.9186 -0.1415 -0.1670
  161SAPE  H14Y18118   5.179   3.800   8.330  2.6117 -1.4042 -0.6670
  161SAPE  C31518119   5.131   3.988   8.438  0.7577 -0.6391  0.4643
  161SAPE  H15X18120   5.029   4.011   8.400  0.3914 -1.2514  1.0613
  161SAPE  H15Y18121   5.191   4.082   8.437  0.0262 -0.1808 -1.5691
  161SAPE  C31618122   5.132   3.918   8.570  0.4853 -0.2849  0.2751
  161SAPE  H16X18123   5.239   3.894   8.587  0.6191  1.1804  1.6456
  161SAPE  H16Y18124   5.062   3.832   8.563  2.0748 -1.6382  0.4929
  161SAPE  C31718125   5.110   4.007   8.694  0.8020  1.1998  0.3812
  161SAPE  H17X18126   5.153   3.943   8.774 -0.6417 -2.2968 -1.5145
  161SAPE  H17Y18127   5.000   4.019   8.702  0.2774 -0.9545 -2.5410
  161SAPE  C31818128   5.187   4.137   8.712  0.2605  0.6726  0.1827
  161SAPE  H18X18129   5.151   4.196   8.799  1.4778  2.8561 -0.7324
  161SAPE  H18Y18130   5.182   4.199   8.619  1.7296 -1.7153 -1.5467
  161SAPE  H18Z18131   5.296   4.123   8.731 -0.1012  0.5496  2.1877
  162SAPE     N18132   3.544   0.407   6.145 -0.0824 -0.9051 -0.0866
  162SAPE   HN118133   3.565   0.356   6.057  0.1714 -1.5310  0.3313
  162SAPE   HN218134   3.633   0.403   6.198  0.5574  1.1488 -0.9574
  162SAPE   HN318135   3.465   0.355   6.189 -0.3577 -0.2970  0.1484
  162SAPE   C1218136   3.495   0.546   6.110  0.2620 -0.5921 -0.0706
  162SAPE  H12A18137   3.481   0.594   6.209  0.7772 -3.2904  1.3477
  162SAPE  H12B18138   3.398   0.531   6.058 -0.7693 -2.2729  2.2749
  162SAPE   C1118139   3.603   0.628   6.028 -0.0853 -0.1048  0.4786
  162SAPE  H11A18140   3.551   0.727   6.024 -1.8029 -1.0058 -0.1577
  162SAPE  H11B18141   3.612   0.586   5.926 -1.7398 -1.1102  0.7256
  162SAPE     P18142   3.827   0.740   6.058 -0.1382  0.2105  0.0648
  162SAPE   O1318143   3.963   0.676   6.043 -0.0958 -0.6525 -0.3203
  162SAPE   O1418144   3.792   0.820   5.939  0.2270  0.1560  1.0723
  162SAPE   O1218145   3.726   0.627   6.098  0.0385  0.0741  0.1254
  162SAPE   O1118146   3.830   0.841   6.178 -0.0183  0.2560 -0.6029
  162SAPE    C118147   3.754   0.824   6.294  0.1878  0.0889  0.6347
  162SAPE    HA18148   3.667   0.762   6.264  1.3041 -1.5907  0.8087
  162SAPE    HB18149   3.814   0.759   6.361  0.8080  0.6867  0.6570
  162SAPE    C218150   3.722   0.956   6.366  0.0084 -0.1178  0.6954
  162SAPE    HS18151   3.665   1.025   6.301  0.4826 -0.3684  0.0172
  162SAPE   O2118152   3.855   1.015   6.402  0.4868 -0.0562  0.2246
  162SAPE   C2118153   3.842   1.145   6.439 -0.5712  0.0651 -0.5229
  162SAPE   O2218154   3.749   1.219   6.414  0.4498 -0.3396 -0.0357
  162SAPE   C2218155   3.969   1.188   6.522  1.3499 -0.4507  0.1346
  162SAPE   H2R18156   4.009   1.090   6.557 -0.2044 -1.8017 -1.7388
  162SAPE   H2S18157   4.043   1.238   6.455  0.7173 -2.0066 -1.7562
  162SAPE    C318158   3.627   0.926   6.487  0.1217  0.0421 -0.0752
  162SAPE    HX18159   3.535   0.889   6.437 -0.1469  0.7629 -0.1250
  162SAPE    HY18160   3.596   1.023   6.533  0.8745  0.3519 -0.2228
  162SAPE   O3118161   3.681   0.839   6.592 -0.4165 -0.3147  0.8586
  162SAPE   C3118162   3.639   0.716   6.588  0.2081 -0.3256 -0.3617
  162SAPE   O3218163   3.548   0.680   6.520  0.9618 -0.0950 -0.0392
  162SAPE   C3218164   3.730   0.623   6.673 -0.0534  0.5442 -0.5892
  162SAPE   H2X18165   3.835   0.660   6.671  1.0284 -2.4062  0.1028
  162SAPE   H2Y18166   3.738   0.526   6.621  2.8434 -0.0234  0.7966
  162SAPE   C2318167   3.931   1.276   6.649  0.5277 -0.4781 -0.4078
  162SAPE   H3R18168   3.877   1.366   6.614 -1.6044 -1.2719  0.7346
  162SAPE   H3S18169   4.018   1.302   6.713  1.2575  1.2363 -2.0321
  162SAPE   C2418170   3.829   1.203   6.746  0.5268 -0.2653 -0.7917
  162SAPE   H4R18171   3.746   1.182   6.676 -1.0899  1.9946  0.3835
  162SAPE   H4S18172   3.803   1.280   6.822  1.6228  0.3659 -1.0334
  162SAPE   C2518173   3.888   1.080   6.811  0.2720 -0.0491  0.2457
  162SAPE   H5R18174   3.905   1.000   6.738  0.0825  0.4879 -0.3903
  162SAPE   C2618175   3.920   1.067   6.939  0.7870 -0.1061  0.4153
  162SAPE   H6R18176   3.959   0.968   6.965  0.9987 -0.2088 -0.3037
  162SAPE   C2718177   3.926   1.168   7.051 -0.5597  0.0095  0.3899
  162SAPE   H7R18178   3.884   1.135   7.148  1.4296 -0.5149  1.0966
  162SAPE   H7S18179   3.862   1.254   7.022 -1.2825 -1.7038 -3.4292
  162SAPE   C2818180   4.072   1.214   7.067 -0.0310 -0.5109  0.9453
  162SAPE   H8R18181   4.139   1.209   6.980 -1.3177  1.8841 -0.2332
  162SAPE   C2918182   4.124   1.235   7.182 -0.5881  0.0954  0.4098
  162SAPE   H9R18183   4.225   1.277   7.178 -0.7370  0.2941 -2.1283
  162SAPE  C21018184   4.065   1.238   7.321  0.5544  0.0869  0.4732
  162SAPE  H10R18185   4.101   1.150   7.378  0.0208 -0.5554 -0.1864
  162SAPE  H10S18186   3.955   1.224   7.333  1.3128 -4.4394  3.2951
  162SAPE  C21118187   4.091   1.371   7.389 -0.6502 -1.1559  0.2209
  162SAPE  H11R18188   4.065   1.458   7.327 -3.3036 -2.2712 -0.2867
  162SAPE  C21218189   4.160   1.394   7.501 -0.9561  0.3111  0.2358
  162SAPE  H12R18190   4.174   1.499   7.533 -2.9902 -0.2765  3.3375
  162SAPE  C21318191   4.213   1.297   7.601 -0.2370 -0.0481  0.4011
  162SAPE  H13R18192   4.317   1.268   7.577 -0.1603  2.2694 -2.2894
  162SAPE  H13S18193   4.150   1.205   7.605 -2.6110  1.5856  1.6490
  162SAPE  C21418194   4.212   1.351   7.741  0.4595  0.9878  0.6791
  162SAPE  H14R18195   4.115   1.385   7.780  0.7241  0.4272  1.8493
  162SAPE  C21518196   4.315   1.344   7.830 -0.3514  0.5369 -0.6330
  162SAPE  H15R18197   4.296   1.365   7.936  2.8343  1.5009 -0.1831
  162SAPE  C21618198   4.455   1.298   7.793  0.3055  0.0236  0.4064
  162SAPE  H16R18199   4.490   1.372   7.718 -0.1788  1.7655  1.8755
  162SAPE  H16S18200   4.446   1.196   7.750 -0.7308  0.3535 -0.1884
  162SAPE  C21718201   4.536   1.295   7.922 -0.2905 -0.1678 -0.4606
  162SAPE  H17R18202   4.627   1.237   7.894  0.2222 -0.0267  0.8775
  162SAPE  H17S18203   4.490   1.243   8.008  1.9273  0.9490  1.4730
  162SAPE  C21818204   4.581   1.425   7.978 -0.4087  0.0570  0.3579
  162SAPE  H18R18205   4.500   1.499   7.995 -0.0795  0.1844  1.4236
  162SAPE  H18S18206   4.642   1.457   7.891 -0.5353  0.0937  0.2833
  162SAPE  C21918207   4.674   1.413   8.104 -0.4321 -0.2867 -0.5737
  162SAPE  H19R18208   4.678   1.519   8.138 -2.6027 -0.4132  0.1070
  162SAPE  H19S18209   4.773   1.369   8.079  0.2738 -0.0432  1.6885
  162SAPE  C22018210   4.612   1.345   8.223  0.6779 -0.4008  0.0153
  162SAPE  H20R18211   4.511   1.385   8.246  0.2144 -0.3720 -1.9244
  162SAPE  H20S18212   4.667   1.365   8.317  1.2892  0.6589 -0.5556
  162SAPE  H20T18213   4.595   1.237   8.205 -3.3508  0.3040 -0.7498
  162SAPE   C3318214   3.695   0.614   6.822  0.3717 -1.1109  0.0565
  162SAPE   H3X18215   3.725   0.516   6.865 -1.9697 -0.5337  3.1514
  162SAPE   H3Y18216   3.586   0.624   6.842  0.4958  1.0061 -0.2755
  162SAPE   C3418217   3.774   0.713   6.915  0.1816  0.6459  0.3529
  162SAPE   H4X18218   3.749   0.817   6.884 -2.0029  0.7418  2.2910
  162SAPE   H4Y18219   3.879   0.690   6.889  0.7449  1.1309  2.1147
  162SAPE   C3518220   3.747   0.692   7.070 -0.8341 -0.0068 -0.9764
  162SAPE   H5X18221   3.742   0.584   7.097  0.7450  0.0432 -0.4002
  162SAPE   H5Y18222   3.645   0.728   7.095 -0.9807 -0.8726 -0.2851
  162SAPE   C3618223   3.849   0.774   7.150  0.2476  0.5182  0.6324
  162SAPE   H6X18224   3.856   0.870   7.095 -2.0886 -0.1213 -0.8886
  162SAPE   H6Y18225   3.947   0.721   7.147  0.5528  1.1196 -0.0443
  162SAPE   C3718226   3.796   0.794   7.294 -0.3563 -0.8542 -0.1337
  162SAPE   H7X18227   3.794   0.697   7.349  0.1125 -0.5148  0.4887
  162SAPE   H7Y18228   3.694   0.836   7.288  0.3301  0.6798 -1.1835
  162SAPE   C3818229   3.889   0.894   7.364 -0.3500  0.0362  0.2214
  162SAPE   H8X18230   3.874   0.989   7.310 -0.1816  0.7190  1.3539
  162SAPE   H8Y18231   3.990   0.852   7.345  0.9655  2.4698  1.4800
  162SAPE   C3918232   3.850   0.912   7.516 -0.0189  0.1468  0.6681
  162SAPE   H9X18233   3.848   0.815   7.571  0.8417 -0.7317 -0.8042
  162SAPE   H9Y18234   3.746   0.949   7.519 -0.1719 -0.1383 -0.7945
  162SAPE  C31018235   3.942   1.009   7.579  0.2621 -0.0554 -0.1888
  162SAPE  H10X18236   3.916   1.113   7.551 -0.0002  0.6703  2.6048
  162SAPE  H10Y18237   4.045   0.978   7.551 -0.7105 -2.0727 -1.6356
  162SAPE  C31118238   3.928   0.997   7.731 -0.6734  0.0549  0.1587
  162SAPE  H11X18239   3.935   0.891   7.766  2.7822  0.8374  2.0114
  162SAPE  H11Y18240   3.820   1.011   7.754 -0.2959  0.2092  1.8751
  162SAPE  C31218241   4.026   1.072   7.811  0.3450  0.9962 -0.1711
  162SAPE  H12X18242   4.016   1.180   7.784 -2.6716  1.2510  1.7335
  162SAPE  H12Y18243   4.125   1.034   7.777  0.7876  0.8368  1.2570
  162SAPE  C31318244   4.000   1.050   7.958 -0.1398 -0.0543  0.3005
  162SAPE  H13X18245   4.001   0.940   7.973  0.5113  0.0959  1.4096
  162SAPE  H13Y18246   3.899   1.092   7.974 -0.5797 -0.6671 -0.7961
  162SAPE  C31418247   4.106   1.104   8.057 -0.6067 -1.1995  0.7550
  162SAPE  H14X18248   4.108   1.215   8.062 -0.8406 -1.2534  2.1299
  162SAPE  H14Y18249   4.206   1.066   8.026 -1.3436 -0.9312 -2.1441
  162SAPE  C31518250   4.078   1.054   8.196  0.1103 -0.2757 -0.6598
  162SAPE  H15X18251   4.085   0.943   8.195 -0.4479 -0.3084 -0.8933
  162SAPE  H15Y18252   3.972   1.069   8.224  0.6786 -1.2946  2.1681
  162SAPE  C31618253   4.182   1.096   8.302 -0.0454 -0.4799 -0.7841
  162SAPE  H16X18254   4.142   1.061   8.400 -0.8671 -0.1297 -0.9869
  162SAPE  H16Y18255   4.203   1.205   8.302  1.5665 -0.7786 -0.6513
  162SAPE  C31718256   4.325   1.025   8.287 -0.1853 -0.3812  0.1606
  162SAPE  H17X18257   4.361   1.036   8.182 -3.8419 -0.6362 -1.1809
  162SAPE  H17Y18258   4.299   0.920   8.311 -2.5531 -0.0900 -1.0313
  162SAPE  C31818259   4.425   1.085   8.387 -0.4451 -0.8312  0.0917
  162SAPE  H18X18260   4.387   1.071   8.490 -4.0521 -0.9438 -1.1865
  162SAPE  H18Y18261   4.446   1.194   8.374  1.1808 -1.1295  0.1003
  162SAPE  H18Z18262   4.524   1.035   8.393  1.5333  3.0329  1.3972
  163SAPE     N18263   2.855   5.775   6.224 -1.0142  0.7874  0.2783
  163SAPE   HN118264   2.881   5.693   6.166 -1.6557  0.8499 -0.1063
  163SAPE   HN218265   2.825   5.855   6.166 -0.3225  1.2165  0.5097
  163SAPE   HN318266   2.938   5.800   6.281 -0.2422  0.8711 -0.8723
  163SAPE   C1218267   2.743   5.727   6.318 -0.2044  0.0036 -0.1923
  163SAPE  H12A18268   2.657   5.688   6.259 -1.2817  1.2312  0.5465
  163SAPE  H12B18269   2.716   5.819   6.375 -2.5484 -0.9379  0.2615
  163SAPE   C1118270   2.784   5.628   6.423 -0.6503  0.2776 -0.1226
  163SAPE  H11A18271   2.821   5.536   6.372  2.2186  0.7691  1.0031
  163SAPE  H11B18272   2.694   5.586   6.473 -1.6989 -0.5933 -2.6414
  163SAPE     P18273   2.877   5.675   6.666  0.1612  0.0673 -0.5323
  163SAPE   O1318274   2.945   5.550   6.709 -0.1775  0.5728  0.3539
  163SAPE   O1418275   2.932   5.799   6.718  0.2224 -0.1355 -0.0422
  163SAPE   O1218276   2.882   5.690   6.509  0.1244 -0.1082  0.2208
  163SAPE   O1118277   2.724   5.668   6.710  0.5036  0.2651  0.0881
  163SAPE    C118278   2.636   5.782   6.711 -0.2079  0.7670  0.1252
  163SAPE    HA18279   2.693   5.874   6.689  2.1999 -0.3966  1.3249
  163SAPE    HB18280   2.565   5.774   6.625  2.7717 -1.0234 -2.2869
  163SAPE    C218281   2.564   5.797   6.851  0.2409 -0.7804 -0.4075
  163SAPE    HS18282   2.532   5.903   6.854 -0.8506 -1.1453  2.0675
  163SAPE   O2118283   2.656   5.760   6.953  0.3457  0.1772 -0.6447
  163SAPE   C2118284   2.757   5.845   6.973 -0.5569 -0.1637 -0.3739
  163SAPE   O2218285   2.761   5.962   6.929 -0.6820  0.2163 -0.1431
  163SAPE   C2218286   2.858   5.787   7.071 -0.5088  0.0049 -0.3859
  163SAPE   H2R18287   2.813   5.763   7.170 -0.2408 -0.6317 -0.4154
  163SAPE   H2S18288   2.895   5.687   7.039 -0.0802 -0.2420  0.8511
  163SAPE    C318289   2.441   5.703   6.860  0.1122 -0.2134  0.0544
  163SAPE    HX18290   2.484   5.600   6.855 -2.3180 -1.2202 -1.0911
  163SAPE    HY18291   2.380   5.715   6.768  0.1933 -2.3580 -0.3181
  163SAPE   O3118292   2.366   5.735   6.977 -0.8299 -0.5427 -0.1124
  163SAPE   C3118293   2.266   5.651   7.003 -0.4793  0.5986  0.6791
  163SAPE   O3218294   2.229   5.554   6.933 -0.0209 -0.3338 -0.1177
  163SAPE   C3218295   2.185   5.706   7.121 -0.1866  0.1014  0.1094
  163SAPE   H2X18296   2.082   5.721   7.082 -0.2379 -1.5714 -0.4395
  163SAPE   H2Y18297   2.223   5.802   7.162  1.1380 -1.1380  1.8362
  163SAPE   C2318298   2.974   5.884   7.091 -0.1348  0.5717 -0.6475
  163SAPE   H3R18299   3.030   5.905   6.998  1.2178  0.3365  0.0857
  163SAPE   H3S18300   3.048   5.835   7.159 -1.5694 -0.2065  0.3822
  163SAPE   C2418301   2.952   6.023   7.153  0.1052  0.6596  0.3814
  163SAPE   H4R18302   2.885   6.084   7.088  2.8374  1.0179 -2.2524
  163SAPE   H4S18303   3.050   6.074   7.138  0.2033 -0.1103 -1.7805
  163SAPE   C2518304   2.905   6.006   7.294  0.2871 -0.2664 -0.0976
  163SAPE   H5R18305   2.798   5.980   7.298 -0.0390  1.3295  2.4501
  163SAPE   C2618306   2.969   6.017   7.410 -0.2966  0.5626  0.1419
  163SAPE   H6R18307   2.921   5.986   7.503 -1.8690  1.6316 -0.3032
  163SAPE   C2718308   3.113   6.051   7.428  0.0921 -0.3385 -0.0496
  163SAPE   H7R18309   3.175   6.007   7.347  0.1721  0.8533 -0.6573
  163SAPE   H7S18310   3.160   6.004   7.516 -0.1002  3.8649  2.4443
  163SAPE   C2818311   3.136   6.202   7.424  0.4922  0.2971  0.1751
  163SAPE   H8R18312   3.078   6.257   7.349 -1.3445  1.5813  2.4787
  163SAPE   C2918313   3.213   6.275   7.510  0.0627  0.1152 -0.4593
  163SAPE   H9R18314   3.208   6.385   7.504  1.8670  0.2959  0.9627
  163SAPE  C21018315   3.296   6.226   7.625  0.5758  0.4631  0.5175
  163SAPE  H10R18316   3.368   6.302   7.662 -0.6647  1.3899  1.0723
  163SAPE  H10S18317   3.354   6.140   7.585  1.1091  2.1854 -2.5517
  163SAPE  C21118318   3.224   6.171   7.748 -0.2500 -0.1897  0.2683
  163SAPE  H11R18319   3.122   6.134   7.730 -0.5867  0.9150 -0.1622
  163SAPE  C21218320   3.268   6.170   7.878 -1.2286 -0.1686 -0.5411
  163SAPE  H12R18321   3.201   6.137   7.959 -1.4936 -0.3496 -0.8322
  163SAPE  C21318322   3.402   6.226   7.918 -0.4299 -0.0693  0.0663
  163SAPE  H13R18323   3.473   6.234   7.833 -1.5875 -0.7306 -0.9821
  163SAPE  H13S18324   3.450   6.138   7.965 -0.1085 -0.1004 -0.3122
  163SAPE  C21418325   3.406   6.346   8.007 -0.4440  0.0408  0.6249
  163SAPE  H14R18326   3.307   6.395   8.002 -1.7130 -2.2776  1.7782
  163SAPE  C21518327   3.503   6.409   8.065 -0.4980 -0.1214  0.2736
  163SAPE  H15R18328   3.484   6.494   8.132  0.3134 -2.3388  3.3685
  163SAPE  C21618329   3.648   6.358   8.063  0.5276  0.6100  1.0234
  163SAPE  H16R18330   3.721   6.441   8.049  1.2913 -0.5111 -2.0070
  163SAPE  H16S18331   3.670   6.297   7.972 -1.4163  1.8826 -0.3551
  163SAPE  C21718332   3.684   6.280   8.185 -0.1636  0.4174 -0.0601
  163SAPE  H17R18333   3.663   6.337   8.278  3.9888 -0.1277  1.3281
  163SAPE  H17S18334   3.795   6.268   8.179 -0.0862  1.8919 -1.9984
  163SAPE  C21818335   3.620   6.145   8.206 -0.3054  0.1416  0.2137
  163SAPE  H18R18336   3.620   6.083   8.113 -1.1508 -0.8129  0.8361
  163SAPE  H18S18337   3.510   6.155   8.218 -0.2864  0.3888  0.1939
  163SAPE  C21918338   3.689   6.074   8.318  0.2007 -0.0728  0.0080
  163SAPE  H19R18339   3.798   6.092   8.308  0.4200 -1.8076 -0.8878
  163SAPE  H19S18340   3.669   5.966   8.303  0.4696 -0.0006 -0.8844
  163SAPE  C22018341   3.631   6.108   8.454 -0.1370  0.1378 -0.2452
  163SAPE  H20R18342   3.520   6.105   8.461 -0.1291  3.5753  2.9229
  163SAPE  H20S18343   3.658   6.208   8.492 -1.6100  0.3991  0.1501
  163SAPE  H20T18344   3.665   6.039   8.534  0.1677 -0.4547 -0.8804
  163SAPE   C3318345   2.172   5.601   7.233  0.3790 -0.3669 -0.0201
  163SAPE   H3X18346   2.276   5.569   7.259  0.6067  1.3106  1.1907
  163SAPE   H3Y18347   2.114   5.521   7.182  0.9259  0.6931 -2.3750
  163SAPE   C3418348   2.097   5.642   7.363  0.7229 -0.4223  1.0286
  163SAPE   H4X18349   2.069   5.556   7.428  0.1541 -1.6584 -0.8094
  163SAPE   H4Y18350   1.996   5.679   7.338  0.7732 -0.1319  1.2579
  163SAPE   C3518351   2.176   5.731   7.452 -0.0432  0.1380  0.3395
  163SAPE   H5X18352   2.193   5.828   7.401 -0.5964  0.4600  0.7597
  163SAPE   H5Y18353   2.278   5.686   7.454 -0.7674 -1.6382 -1.5542
  163SAPE   C3618354   2.128   5.743   7.599  0.2943 -0.0954  0.2202
  163SAPE   H6X18355   2.091   5.640   7.621 -1.4174  0.4023 -0.2567
  163SAPE   H6Y18356   2.044   5.814   7.608  0.7470  0.3528  0.9128
  163SAPE   C3718357   2.248   5.783   7.685  0.0176  0.1647  0.3625
  163SAPE   H7X18358   2.294   5.869   7.631 -1.7596  0.4872 -0.6888
  163SAPE   H7Y18359   2.325   5.703   7.687 -1.7059 -1.5231 -0.4367
  163SAPE   C3818360   2.208   5.835   7.826 -0.1712 -0.4216  0.0237
  163SAPE   H8X18361   2.146   5.927   7.819  1.2796  0.6027  0.3294
  163SAPE   H8Y18362   2.297   5.852   7.890  0.0518  2.6219 -1.0418
  163SAPE   C3918363   2.131   5.727   7.907  0.0600  0.6144  0.1392
  163SAPE   H9X18364   2.204   5.645   7.923  0.5757  0.8892 -0.7777
  163SAPE   H9Y18365   2.047   5.679   7.852  1.2123 -1.3867  0.1123
  163SAPE  C31018366   2.099   5.763   8.054 -0.0939 -0.1894 -0.4191
  163SAPE  H10X18367   2.170   5.845   8.076 -1.1949  0.1192  2.2512
  163SAPE  H10Y18368   2.122   5.679   8.123  0.4057 -0.1177 -0.5025
  163SAPE  C31118369   1.951   5.809   8.058 -0.7564  0.1039 -0.3377
  163SAPE  H11X18370   1.883   5.723   8.042 -1.8769  0.5114  1.9561
  163SAPE  H11Y18371   1.936   5.873   7.968 -1.5435 -1.0769 -1.0597
  163SAPE  C31218372   1.907   5.874   8.192  0.3181 -0.0956  0.1992
  163SAPE  H12X18373   1.983   5.952   8.217  0.9197 -0.8061  0.5925
  163SAPE  H12Y18374   1.905   5.793   8.268 -1.6158 -0.1675  0.0940
  163SAPE  C31318375   1.769   5.953   8.184 -0.1354 -0.3634  0.2395
  163SAPE  H13X18376   1.686   5.893   8.140 -1.0868  0.6113  0.6920
  163SAPE  H13Y18377   1.790   6.037   8.114  2.3218  1.1932  2.7276
  163SAPE  C31418378   1.736   6.014   8.315 -0.0582 -0.4566 -0.2858
  163SAPE  H14X18379   1.831   6.049   8.361  0.8635 -2.7999 -0.3301
  163SAPE  H14Y18380   1.707   5.938   8.391  3.3981  0.7246  2.3093
  163SAPE  C31518381   1.629   6.122   8.308 -0.0643 -0.3218 -0.0238
  163SAPE  H15X18382   1.546   6.087   8.242 -0.1336  0.3502 -0.2971
  163SAPE  H15Y18383   1.680   6.214   8.273 -0.2312  1.1313  3.4092
  163SAPE  C31618384   1.567   6.138   8.442  0.3750 -0.1943 -0.3681
  163SAPE  H16X18385   1.654   6.138   8.511 -0.1559  1.1782  0.3183
  163SAPE  H16Y18386   1.508   6.045   8.462 -0.9777  1.0043  1.4017
  163SAPE  C31718387   1.474   6.261   8.452  1.0435  0.1548 -0.2230
  163SAPE  H17X18388   1.414   6.272   8.360  0.2173  1.1141  0.4263
  163SAPE  H17Y18389   1.538   6.351   8.459  1.7933  0.0257 -4.3399
  163SAPE  C31818390   1.384   6.255   8.569 -0.1634 -0.5247 -0.1016
  163SAPE  H18X18391   1.316   6.342   8.582 -0.1983 -0.6935  0.8371
  163SAPE  H18Y18392   1.453   6.246   8.655 -2.4421 -0.6935  1.7493
  163SAPE  H18Z18393   1.327   6.160   8.569  0.1158 -0.7210  1.9362
  164SAPE     N18394   4.862   3.180   6.122  0.6717 -0.4951  0.2061
  164SAPE   HN118395   4.875   3.283   6.127 -3.4270  0.2158 -2.1365
  164SAPE   HN218396   4.945   3.119   6.107  0.3087 -1.1469  0.7972
  164SAPE   HN318397   4.789   3.160   6.051 -0.3910  0.5265  0.9869
  164SAPE   C1218398   4.822   3.146   6.266  0.0814 -0.9140 -0.0061
  164SAPE  H12A18399   4.722   3.190   6.285  0.8227 -0.3162  2.6567
  164SAPE  H12B18400   4.898   3.203   6.324 -0.6502  1.1554 -1.0535
  164SAPE   C1118401   4.828   2.997   6.293  0.5566 -0.1607 -1.2222
  164SAPE  H11A18402   4.760   2.980   6.380  0.4731  1.1583 -1.0169
  164SAPE  H11B18403   4.929   2.973   6.332  0.4216 -0.7217 -1.2165
  164SAPE     P18404   4.804   2.760   6.189  0.1365  0.1740 -0.1531
  164SAPE   O1318405   4.677   2.712   6.242  0.0040 -0.0112  0.3255
  164SAPE   O1418406   4.845   2.696   6.065  0.0138  0.0267  0.1295
  164SAPE   O1218407   4.801   2.916   6.179  0.2808  0.4604  0.4231
  164SAPE   O1118408   4.912   2.733   6.299  0.0138 -0.3130 -0.6560
  164SAPE    C118409   4.937   2.619   6.387  0.5727  0.5061  0.5749
  164SAPE    HA18410   4.863   2.539   6.366  0.7645  0.7227 -1.0253
  164SAPE    HB18411   5.041   2.588   6.362  0.3752  0.6861 -0.5248
  164SAPE    C218412   4.931   2.663   6.534  0.2757  0.5099  0.6929
  164SAPE    HS18413   5.026   2.717   6.557  1.5901 -2.0130  1.2868
  164SAPE   O2118414   4.924   2.549   6.616 -0.0778  0.3601 -0.1628
  164SAPE   C2118415   5.040   2.489   6.639  0.3127 -0.4994  0.1177
  164SAPE   O2218416   5.141   2.504   6.580 -0.9400  0.5216 -0.7039
  164SAPE   C2218417   5.036   2.412   6.773 -0.4395  0.3918  0.8369
  164SAPE   H2R18418   4.970   2.471   6.840  0.4293  0.4933  1.6045
  164SAPE   H2S18419   4.996   2.314   6.740 -0.4124  1.1701 -1.5979
  164SAPE    C318420   4.809   2.756   6.566 -0.0289 -0.0543 -0.5887
  164SAPE    HX18421   4.723   2.720   6.505 -1.7871  2.5436  0.2432
  164SAPE    HY18422   4.827   2.860   6.533 -0.0828 -0.2652 -1.2863
  164SAPE   O3118423   4.780   2.756   6.708 -0.2149 -0.3839 -0.5481
  164SAPE   C3118424   4.858   2.836   6.788  0.3784 -0.3940  0.7025
  164SAPE   O3218425   4.936   2.916   6.737  0.2239  0.0006  0.0459
  164SAPE   C3218426   4.828   2.813   6.932  0.1382 -0.2980 -0.1882
  164SAPE   H2X18427   4.849   2.705   6.949  0.3556 -0.2805 -0.3464
  164SAPE   H2Y18428   4.719   2.831   6.935 -0.3255 -2.8204 -0.4138
  164SAPE   C2318429   5.168   2.395   6.860 -0.3719  0.4247  0.2404
  164SAPE   H3R18430   5.247   2.362   6.790 -1.9756  0.1674 -1.4641
  164SAPE   H3S18431   5.158   2.309   6.929 -0.4923  0.6967  0.5675
  164SAPE   C2418432   5.218   2.519   6.943  0.2218 -0.1419 -0.1348
  164SAPE   H4R18433   5.218   2.610   6.879  2.5271  0.0580  0.0858
  164SAPE   H4S18434   5.322   2.504   6.981  1.1799 -0.1151 -2.5959
  164SAPE   C2518435   5.131   2.560   7.058  0.2951 -0.9056  0.0163
  164SAPE   H5R18436   5.055   2.638   7.040  3.2615  1.6550 -1.7296
  164SAPE   C2618437   5.124   2.508   7.184 -0.7281  0.4070  0.2060
  164SAPE   H6R18438   5.044   2.551   7.247 -1.0298  2.3844 -1.4922
  164SAPE   C2718439   5.209   2.395   7.249 -0.0499 -0.3318  0.2819
  164SAPE   H7R18440   5.241   2.314   7.180  2.1932 -0.5124  1.4504
  164SAPE   H7S18441   5.150   2.355   7.334 -1.8376  3.4669  0.9247
  164SAPE   C2818442   5.332   2.457   7.305 -0.2273 -0.6249  0.3141
  164SAPE   H8R18443   5.370   2.553   7.266  0.2360 -1.7263 -2.0051
  164SAPE   C2918444   5.403   2.401   7.404 -0.6205 -0.7449 -0.5235
  164SAPE   H9R18445   5.498   2.445   7.437 -0.7701 -1.1314  0.4457
  164SAPE  C21018446   5.360   2.283   7.483 -0.5248  0.1876 -0.2529
  164SAPE  H10R18447   5.452   2.231   7.516 -0.3389  1.9589  2.1349
  164SAPE  H10S18448   5.297   2.213   7.424 -0.7187  0.1557 -0.0082
  164SAPE  C21118449   5.283   2.309   7.612  0.1848  0.9663  0.4166
  164SAPE  H11R18450   5.219   2.398   7.610 -1.2970 -0.1176 -0.9435
  164SAPE  C21218451   5.278   2.222   7.714  0.0561 -0.4042  0.0337
  164SAPE  H12R18452   5.228   2.253   7.807 -0.8625 -1.4418 -0.0977
  164SAPE  C21318453   5.341   2.084   7.714  0.4718  0.3225 -0.5195
  164SAPE  H13R18454   5.440   2.090   7.765  0.9313  2.5134 -1.6229
  164SAPE  H13S18455   5.369   2.056   7.610 -0.8498  0.0358 -0.8062
  164SAPE  C21418456   5.261   1.973   7.783  0.0327  0.0570 -0.0649
  164SAPE  H14R18457   5.189   1.919   7.720  0.1840  0.3333 -0.4758
  164SAPE  C21518458   5.265   1.933   7.912  0.0713 -0.3586 -0.0078
  164SAPE  H15R18459   5.208   1.845   7.945 -0.4720 -0.1760 -0.4597
  164SAPE  C21618460   5.350   2.000   8.018  0.5912 -0.4998 -0.0016
  164SAPE  H16R18461   5.294   2.000   8.113 -1.4551  3.3188 -1.1218
  164SAPE  H16S18462   5.365   2.108   7.995  1.2341 -0.7074 -0.6075
  164SAPE  C21718463   5.488   1.939   8.022  0.2202 -0.4411 -0.7805
  164SAPE  H17R18464   5.543   1.966   7.929 -0.5674  4.4213 -0.0094
  164SAPE  H17S18465   5.487   1.830   8.039 -1.0795 -0.5456 -1.3965
  164SAPE  C21818466   5.564   1.991   8.146  0.4499  0.0930 -0.2806
  164SAPE  H18R18467   5.497   1.986   8.235  1.9609  2.1010  1.0197
  164SAPE  H18S18468   5.568   2.099   8.122 -1.8135  0.2960  0.1994
  164SAPE  C21918469   5.700   1.928   8.158 -0.3459 -0.1635  0.1828
  164SAPE  H19R18470   5.760   1.965   8.072  0.9282 -0.1943  1.0558
  164SAPE  H19S18471   5.696   1.818   8.168  0.4529 -0.1256  0.9440
  164SAPE  C22018472   5.771   1.974   8.289  0.4244  0.2428 -0.9953
  164SAPE  H20R18473   5.780   2.085   8.291 -0.1696  0.2887  1.3403
  164SAPE  H20S18474   5.876   1.938   8.293  0.5659  0.8354  1.9006
  164SAPE  H20T18475   5.719   1.935   8.379  0.3828  0.6928 -0.8211
  164SAPE   C3318476   4.901   2.907   7.030 -0.0990 -0.0717  0.2942
  164SAPE   H3X18477   4.857   3.008   7.015  2.5456  1.0423 -0.2424
  164SAPE   H3Y18478   5.010   2.909   7.010 -0.1071  0.8596  0.3147
  164SAPE   C3418479   4.878   2.865   7.174  0.0511  0.5521  0.0343
  164SAPE   H4X18480   4.901   2.757   7.182 -0.1492  0.6374  2.0435
  164SAPE   H4Y18481   4.776   2.888   7.210 -0.9851 -2.3340 -0.9511
  164SAPE   C3518482   4.976   2.922   7.272 -0.1707  0.4525  0.6984
  164SAPE   H5X18483   4.960   3.032   7.274  1.9140  0.8146 -0.5626
  164SAPE   H5Y18484   5.084   2.915   7.248 -0.6871 -0.7020 -1.3776
  164SAPE   C3618485   4.973   2.876   7.424  0.2152  0.3258  1.0993
  164SAPE   H6X18486   4.867   2.857   7.448  0.4339  0.0065  1.8384
  164SAPE   H6Y18487   5.021   2.959   7.480  0.7184  1.8020 -1.4173
  164SAPE   C3718488   5.063   2.751   7.446  0.5946 -0.1433  0.0411
  164SAPE   H7X18489   5.162   2.755   7.395  0.0398  1.6357 -0.9436
  164SAPE   H7Y18490   5.000   2.668   7.405 -0.8494  1.0053 -0.1078
  164SAPE   C3818491   5.087   2.716   7.595 -0.1404  0.0624  0.4958
  164SAPE   H8X18492   5.136   2.805   7.641 -0.5378  0.2009  0.6515
  164SAPE   H8Y18493   5.159   2.633   7.608 -0.8226 -0.6601 -0.3691
  164SAPE   C3918494   4.953   2.683   7.676  1.2893  0.6485 -0.3498
  164SAPE   H9X18495   4.904   2.591   7.638  0.1815  0.7102  0.8927
  164SAPE   H9Y18496   4.885   2.768   7.658  1.0066 -0.0514 -2.6938
  164SAPE  C31018497   4.963   2.662   7.826 -0.3287 -0.3263 -0.6015
  164SAPE  H10X18498   5.045   2.590   7.847  1.6890  1.7405 -1.1619
  164SAPE  H10Y18499   4.866   2.625   7.866  0.6058 -2.2264 -0.0360
  164SAPE  C31118500   5.007   2.794   7.901  0.6196 -0.1078 -0.1974
  164SAPE  H11X18501   4.954   2.877   7.849  0.3613 -0.3792 -0.3695
  164SAPE  H11Y18502   5.115   2.820   7.888  1.1243 -2.3113 -0.6361
  164SAPE  C31218503   4.964   2.795   8.052  0.0106 -1.2056 -0.1753
  164SAPE  H12X18504   5.016   2.716   8.111  0.3335  0.1445  1.3642
  164SAPE  H12Y18505   4.858   2.767   8.033 -0.0439 -0.0797 -1.6368
  164SAPE  C31318506   4.974   2.929   8.128 -0.1526 -0.0973 -0.2510
  164SAPE  H13X18507   4.909   3.007   8.083  0.1554  0.0471 -0.4464
  164SAPE  H13Y18508   5.074   2.977   8.124 -0.7719  1.1133 -1.3561
  164SAPE  C31418509   4.951   2.922   8.281  0.3951 -0.1888 -0.1168
  164SAPE  H14X18510   4.865   2.859   8.311 -0.5504  1.5514  0.8941
  164SAPE  H14Y18511   4.917   3.026   8.299  0.2968  0.0918 -1.8334
  164SAPE  C31518512   5.081   2.875   8.362  0.1176  0.3979  0.5773
  164SAPE  H15X18513   5.173   2.903   8.306  0.5853 -0.3580  0.9669
  164SAPE  H15Y18514   5.074   2.766   8.346  1.0259  0.8702 -3.4175
  164SAPE  C31618515   5.087   2.914   8.516 -0.0022 -0.4327  0.0263
  164SAPE  H16X18516   5.017   2.852   8.577 -0.7003 -1.0177 -1.3323
  164SAPE  H16Y18517   5.039   3.014   8.514 -1.2937 -0.9683  2.1645
  164SAPE  C31718518   5.220   2.912   8.590  0.1890  0.3395  0.0075
  164SAPE  H17X18519   5.214   2.959   8.691 -0.2437 -1.0185  0.6261
  164SAPE  H17Y18520   5.295   2.963   8.526  1.8322 -2.7235 -0.5838
  164SAPE  C31818521   5.264   2.769   8.604 -0.2900 -0.0455 -0.2838
  164SAPE  H18X18522   5.359   2.752   8.661 -0.4940  1.7326  0.6414
  164SAPE  H18Y18523   5.288   2.737   8.501 -0.7551 -0.5858 -0.2258
  164SAPE  H18Z18524   5.177   2.710   8.641 -0.4403  0.5216  0.2882
  165SAPE     N18525   6.136   4.956   5.861 -0.2113  0.0979  0.3467
  165SAPE   HN118526   6.167   4.996   5.770 -0.9419  0.5202  0.2734
  165SAPE   HN218527   6.211   4.966   5.932 -0.3502 -3.2848  1.0614
  165SAPE   HN318528   6.139   4.854   5.837  1.0581  0.7397 -2.4505
  165SAPE   C1218529   5.999   5.015   5.902 -0.0566 -0.1581 -0.2186
  165SAPE  H12A18530   5.925   4.966   5.836  1.7136 -2.2669 -0.6954
  165SAPE  H12B18531   5.998   5.126   5.897  0.3849 -0.2171 -1.6283
  165SAPE   C1118532   5.980   4.975   6.056 -0.8121 -0.3496 -0.0135
  165SAPE  H11A18533   5.971   4.865   6.060  0.2137 -0.3700  2.3284
  165SAPE  H11B18534   5.887   5.023   6.094 -0.1933  0.6675  0.2321
  165SAPE     P18535   6.091   5.142   6.229 -0.0311  0.0491 -0.2527
  165SAPE   O1318536   6.189   5.118   6.336 -0.1751 -0.3396 -0.1065
  165SAPE   O1418537   6.120   5.259   6.150  0.3440  0.3896  0.5728
  165SAPE   O1218538   6.097   5.019   6.133 -0.4745 -0.0032  0.6160
  165SAPE   O1118539   5.945   5.137   6.295  0.0309  0.1247  0.0171
  165SAPE    C118540   5.892   5.263   6.347  0.2215  0.4854 -0.2458
  165SAPE    HA18541   5.895   5.348   6.275  2.6990  2.1178  1.6754
  165SAPE    HB18542   5.789   5.248   6.385  0.4399  0.7499  0.4563
  165SAPE    C218543   5.956   5.294   6.480  0.2146 -0.2095 -0.1673
  165SAPE    HS18544   6.063   5.312   6.456  0.7867  0.1633  2.5777
  165SAPE   O2118545   5.932   5.187   6.565 -0.3001  0.1157 -0.3717
  165SAPE   C2118546   6.009   5.181   6.667  0.6996 -0.5469 -0.4317
  165SAPE   O2218547   6.104   5.256   6.690  0.2224 -0.4858  0.2371
  165SAPE   C2218548   5.967   5.072   6.756  0.1185 -0.1793  0.5127
  165SAPE   H2R18549   5.912   4.999   6.693 -2.6177  0.7061  1.7742
  165SAPE   H2S18550   6.056   5.031   6.808  0.2767  0.6306  0.9002
  165SAPE    C318551   5.906   5.433   6.531 -0.0629 -0.7729 -0.6551
  165SAPE    HX18552   5.904   5.513   6.454  0.9177 -1.2140 -1.1455
  165SAPE    HY18553   5.972   5.487   6.603 -0.7341  0.4649 -0.9560
  165SAPE   O3118554   5.773   5.436   6.587  0.0895 -0.2122 -0.1975
  165SAPE   C3118555   5.753   5.478   6.712  1.2243 -0.5171  0.9067
  165SAPE   O3218556   5.841   5.495   6.796  1.0118 -0.4466  0.8742
  165SAPE   C3218557   5.597   5.503   6.741  0.2121 -0.0007  0.0624
  165SAPE   H2X18558   5.533   5.425   6.695  0.3670  0.6353 -1.2649
  165SAPE   H2Y18559   5.569   5.586   6.672  1.4134 -0.5138 -1.0680
  165SAPE   C2318560   5.863   5.119   6.861  0.5372  0.1926 -0.0589
  165SAPE   H3R18561   5.839   5.025   6.914  0.2424 -0.2993 -1.0533
  165SAPE   H3S18562   5.772   5.163   6.813  1.1101  0.5239 -0.8509
  165SAPE   C2418563   5.922   5.214   6.965 -0.7935  0.2484  0.5023
  165SAPE   H4R18564   5.983   5.288   6.910 -1.3220  0.7433  0.5872
  165SAPE   H4S18565   5.999   5.163   7.028 -0.3422  0.5633  0.2089
  165SAPE   C2518566   5.822   5.284   7.055 -0.0136 -0.1346 -0.2333
  165SAPE   H5R18567   5.767   5.369   7.010 -0.6409 -0.4624 -0.0921
  165SAPE   C2618568   5.801   5.249   7.185 -0.3418  0.7051  0.1165
  165SAPE   H6R18569   5.719   5.293   7.242 -0.0925 -0.2967  1.2615
  165SAPE   C2718570   5.879   5.138   7.262 -0.2274  0.1832  0.5132
  165SAPE   H7R18571   5.971   5.185   7.302 -1.0673  1.3482  1.1021
  165SAPE   H7S18572   5.921   5.057   7.199  0.4628 -0.6503  1.9973
  165SAPE   C2818573   5.786   5.085   7.373 -0.0419 -0.1494 -1.0244
  165SAPE   H8R18574   5.700   5.028   7.335 -0.7293  0.2954 -0.1606
  165SAPE   C2918575   5.796   5.097   7.506 -0.3744 -0.4694  0.2686
  165SAPE   H9R18576   5.716   5.047   7.562 -1.2330 -0.1057 -0.6082
  165SAPE  C21018577   5.908   5.159   7.588 -0.4737 -0.0877 -1.0390
  165SAPE  H10R18578   5.847   5.242   7.631 -2.1476 -2.4752  1.3388
  165SAPE  H10S18579   5.990   5.205   7.529 -0.4390  0.1022 -0.8476
  165SAPE  C21118580   5.957   5.064   7.693 -0.3225 -0.0338  0.5441
  165SAPE  H11R18581   6.031   4.997   7.646 -1.7322 -1.2408 -0.0189
  165SAPE  C21218582   5.936   5.074   7.826  0.0738  0.6222 -0.3017
  165SAPE  H12R18583   5.977   4.991   7.884 -2.8678 -0.8818 -0.2501
  165SAPE  C21318584   5.848   5.170   7.894 -0.2281  0.5913 -0.1037
  165SAPE  H13R18585   5.766   5.119   7.948  0.7488 -0.7187  0.1790
  165SAPE  H13S18586   5.791   5.228   7.819  0.5527  0.9349 -0.4456
  165SAPE  C21418587   5.903   5.260   7.998 -0.4271 -0.2719  0.8153
  165SAPE  H14R18588   5.935   5.360   7.965 -1.0355 -0.0631  0.8640
  165SAPE  C21518589   5.928   5.228   8.130 -0.0358 -0.3974  0.0943
  165SAPE  H15R18590   5.971   5.303   8.199  1.0626 -0.0850 -0.9244
  165SAPE  C21618591   5.922   5.090   8.192 -0.1288 -0.5136 -0.2798
  165SAPE  H16R18592   6.007   5.078   8.261  0.1496 -1.7300 -0.8147
  165SAPE  H16S18593   5.930   5.009   8.115 -0.5529  0.5578 -1.4718
  165SAPE  C21718594   5.800   5.064   8.288 -0.2522  0.2774  0.1995
  165SAPE  H17R18595   5.716   5.037   8.220  0.2532 -0.9501  0.0595
  165SAPE  H17S18596   5.769   5.160   8.335 -1.0615  0.5820 -0.9128
  165SAPE  C21818597   5.816   4.952   8.390  0.3388  0.5185  0.1419
  165SAPE  H18R18598   5.885   4.978   8.474  0.4370  1.3891 -0.1990
  165SAPE  H18S18599   5.876   4.872   8.341  3.2460  3.3728 -1.1134
  165SAPE  C21918600   5.680   4.903   8.440 -0.7530 -0.0767 -0.3679
  165SAPE  H19R18601   5.605   4.893   8.359  0.4680  0.4606 -1.5760
  165SAPE  H19S18602   5.652   4.979   8.516  1.2478 -0.1502  0.4676
  165SAPE  C22018603   5.691   4.761   8.501  0.0145  0.0369  0.4061
  165SAPE  H20R18604   5.593   4.726   8.540 -0.5199  0.8979 -0.1483
  165SAPE  H20S18605   5.759   4.770   8.589  0.2802  0.8528  0.1152
  165SAPE  H20T18606   5.730   4.686   8.429  0.1046  2.0100 -1.6635
  165SAPE   C3318607   5.553   5.537   6.883 -0.2675 -0.0359 -0.5373
  165SAPE   H3X18608   5.493   5.630   6.889  1.8072  1.3514 -0.7397
  165SAPE   H3Y18609   5.643   5.563   6.942  0.3916  0.3326 -1.6877
  165SAPE   C3418610   5.491   5.419   6.952 -0.4218  1.2994  0.5885
  165SAPE   H4X18611   5.555   5.328   6.942  3.7312  4.2438 -1.1957
  165SAPE   H4Y18612   5.394   5.382   6.913  0.0137  0.1970  0.5229
  165SAPE   C3518613   5.482   5.432   7.106  0.3031 -0.1539  0.8174
  165SAPE   H5X18614   5.446   5.536   7.124  0.1718  0.5679 -3.2285
  165SAPE   H5Y18615   5.584   5.426   7.148  0.4061  1.4504  0.8096
  165SAPE   C3618616   5.387   5.332   7.172 -1.2572  0.1057 -0.2055
  165SAPE   H6X18617   5.401   5.233   7.125 -0.2763 -0.1732  0.6549
  165SAPE   H6Y18618   5.284   5.367   7.147 -1.4000 -0.0853  0.1199
  165SAPE   C3718619   5.395   5.320   7.331 -0.0731  0.3337 -0.0430
  165SAPE   H7X18620   5.501   5.289   7.347 -0.0850  0.7722  0.9561
  165SAPE   H7Y18621   5.324   5.241   7.364  0.2804  0.0522  0.0436
  165SAPE   C3818622   5.374   5.447   7.420  0.6495 -0.1194  0.2241
  165SAPE   H8X18623   5.274   5.487   7.395  0.1405 -1.5337 -0.0633
  165SAPE   H8Y18624   5.436   5.527   7.375 -2.4949  0.4172 -3.3363
  165SAPE   C3918625   5.395   5.424   7.563 -0.0577 -0.3826 -0.0405
  165SAPE   H9X18626   5.363   5.325   7.601  0.0810 -1.0279 -1.5848
  165SAPE   H9Y18627   5.340   5.500   7.624 -2.5426  0.4829 -3.2406
  165SAPE  C31018628   5.543   5.423   7.601  0.0830  0.2674 -0.0607
  165SAPE  H10X18629   5.578   5.522   7.563 -1.8512 -0.0139 -2.6314
  165SAPE  H10Y18630   5.592   5.338   7.549 -0.0093 -0.9547  1.8024
  165SAPE  C31118631   5.564   5.417   7.756  0.6415 -0.0211 -0.5248
  165SAPE  H11X18632   5.670   5.436   7.782  0.0394  0.2762  1.8257
  165SAPE  H11Y18633   5.550   5.310   7.781  2.5537 -0.0181  0.6660
  165SAPE  C31218634   5.477   5.528   7.826 -0.6608  0.0846 -0.2491
  165SAPE  H12X18635   5.370   5.499   7.829 -0.5613 -0.4632 -1.5409
  165SAPE  H12Y18636   5.472   5.629   7.781  2.4621  0.5720  0.3555
  165SAPE  C31318637   5.513   5.544   7.977  0.5147 -1.1964 -0.3553
  165SAPE  H13X18638   5.623   5.557   7.982  0.6135 -1.7116 -1.0494
  165SAPE  H13Y18639   5.484   5.447   8.022 -0.4831 -0.6262  0.2395
  165SAPE  C31418640   5.457   5.664   8.053  0.0226 -0.3946  0.1099
  165SAPE  H14X18641   5.352   5.637   8.078  0.2063 -0.0550  1.2988
  165SAPE  H14Y18642   5.455   5.744   7.977  0.4961 -0.6235 -0.1459
  165SAPE  C31518643   5.532   5.711   8.174  0.2361 -0.1116 -0.8560
  165SAPE  H15X18644   5.464   5.765   8.243 -0.2969  1.0394 -2.2594
  165SAPE  H15Y18645   5.611   5.776   8.130  1.1466 -0.7360 -0.1594
  165SAPE  C31618646   5.605   5.601   8.249  0.3109  0.4120  0.6390
  165SAPE  H16X18647   5.694   5.573   8.189 -0.5432  0.1709 -0.5293
  165SAPE  H16Y18648   5.543   5.509   8.255 -1.3529  1.4250 -0.7455
  165SAPE  C31718649   5.658   5.645   8.387  0.4888  0.0414  0.6591
  165SAPE  H17X18650   5.579   5.688   8.452  0.7946  0.4854  0.7370
  165SAPE  H17Y18651   5.732   5.725   8.364  2.5297 -1.7110  0.9414
  165SAPE  C31818652   5.719   5.531   8.470  0.2884 -0.2299 -0.1664
  165SAPE  H18X18653   5.632   5.472   8.507  0.4897 -1.6328 -1.8733
  165SAPE  H18Y18654   5.780   5.562   8.558 -2.9724  1.2825  1.6655
  165SAPE  H18Z18655   5.795   5.472   8.415 -0.3444 -1.5922  0.4035
  166SAPE     N18656   3.926   2.946   5.823 -0.1910  0.8718  0.0549
  166SAPE   HN118657   3.835   2.966   5.777  1.1212  0.5239 -2.8325
  166SAPE   HN218658   3.912   2.875   5.897 -1.4409 -0.9751 -1.9135
  166SAPE   HN318659   3.963   3.036   5.862  0.1333  1.9120 -2.5336
  166SAPE   C1218660   4.020   2.881   5.715 -0.2472 -0.7865  1.0924
  166SAPE  H12A18661   4.054   2.966   5.652 -3.5540 -1.4107 -1.6584
  166SAPE  H12B18662   3.959   2.808   5.658  0.9228 -2.4954  1.9861
  166SAPE   C1118663   4.136   2.809   5.781 -0.2388 -0.6386  0.6196
  166SAPE  H11A18664   4.192   2.873   5.852  0.2040 -0.2007 -0.1144
  166SAPE  H11B18665   4.208   2.792   5.698  3.3230  0.6628  3.2752
  166SAPE     P18666   4.201   2.581   5.880 -0.3545  0.1418  0.3253
  166SAPE   O1318667   4.139   2.448   5.875 -0.1845  0.5570 -0.3811
  166SAPE   O1418668   4.327   2.597   5.800 -0.2009  0.2792 -0.4694
  166SAPE   O1218669   4.092   2.688   5.838  0.9868  0.3751  0.5807
  166SAPE   O1118670   4.238   2.616   6.032  0.0155 -0.9119 -0.6973
  166SAPE    C118671   4.142   2.649   6.131 -0.0611 -0.2209 -0.7487
  166SAPE    HA18672   4.146   2.760   6.129  0.4280 -0.2450 -2.4047
  166SAPE    HB18673   4.042   2.620   6.092 -0.3039  0.7894 -0.8775
  166SAPE    C218674   4.175   2.591   6.277  0.1503 -0.1275  0.2001
  166SAPE    HS18675   4.093   2.617   6.347  0.4604  2.3896 -0.3365
  166SAPE   O2118676   4.303   2.641   6.325 -0.6512  0.5713  0.1133
  166SAPE   C2118677   4.294   2.757   6.387 -0.3239  0.6128 -1.0686
  166SAPE   O2218678   4.213   2.844   6.366  0.3844  0.1799  0.2154
  166SAPE   C2218679   4.407   2.779   6.486 -0.2790 -0.1787 -0.8374
  166SAPE   H2R18680   4.395   2.695   6.559 -0.4313 -0.9705 -1.7601
  166SAPE   H2S18681   4.506   2.781   6.438 -1.0427  3.2469 -2.4028
  166SAPE    C318682   4.184   2.435   6.268  0.4817 -0.7451  0.0458
  166SAPE    HX18683   4.281   2.419   6.216  0.3010 -1.1412 -0.1725
  166SAPE    HY18684   4.096   2.407   6.206  0.9621  1.7946 -1.8682
  166SAPE   O3118685   4.203   2.378   6.397  0.6263 -0.1833  0.1082
  166SAPE   C3118686   4.181   2.245   6.387  0.1508 -0.0930  0.6476
  166SAPE   O3218687   4.154   2.178   6.286  0.4901 -0.3362  0.5464
  166SAPE   C3218688   4.200   2.177   6.526  0.0307 -0.0149  0.6002
  166SAPE   H2X18689   4.309   2.156   6.536  0.4409  0.5882 -2.0983
  166SAPE   H2Y18690   4.143   2.083   6.512 -1.5848  1.0472 -0.0655
  166SAPE   C2318691   4.393   2.914   6.560 -0.1423 -0.0578 -0.4428
  166SAPE   H3R18692   4.292   2.928   6.603 -1.0797 -1.0168 -2.2461
  166SAPE   H3S18693   4.407   3.002   6.493 -1.2036 -0.6027 -1.4125
  166SAPE   C2418694   4.497   2.923   6.675  0.1192 -0.5328  0.6141
  166SAPE   H4R18695   4.599   2.924   6.630  0.1457  0.5454  0.7032
  166SAPE   H4S18696   4.496   2.838   6.746  0.3238 -0.9808  0.0869
  166SAPE   C2518697   4.487   3.058   6.741  0.3931  0.0122 -0.0807
  166SAPE   H5R18698   4.478   3.140   6.667  0.3703 -0.3972 -0.5309
  166SAPE   C2618699   4.483   3.083   6.873  0.0567  0.3505  0.4938
  166SAPE   H6R18700   4.477   3.189   6.903  2.4458  0.9379 -1.0063
  166SAPE   C2718701   4.491   2.984   6.982 -0.0620  0.0354  0.5394
  166SAPE   H7R18702   4.599   2.972   7.007 -0.1339 -1.7020  0.0548
  166SAPE   H7S18703   4.471   2.881   6.947 -0.5207  0.4977 -0.5729
  166SAPE   C2818704   4.414   3.005   7.112  0.3342  0.0990  0.4700
  166SAPE   H8R18705   4.337   2.928   7.126 -0.4160  0.5207 -1.1831
  166SAPE   C2918706   4.416   3.089   7.219  0.2086  0.6118 -0.0178
  166SAPE   H9R18707   4.344   3.062   7.298 -0.1073  2.0968  0.2191
  166SAPE  C21018708   4.505   3.210   7.243  0.4683  0.7756 -0.3095
  166SAPE  H10R18709   4.440   3.276   7.306 -1.1348  2.2118 -3.3482
  166SAPE  H10S18710   4.527   3.262   7.147  2.3362 -0.0322 -0.3250
  166SAPE  C21118711   4.638   3.182   7.308 -0.3870  0.1860  0.6182
  166SAPE  H11R18712   4.722   3.162   7.239  0.9603  2.4371  1.5758
  166SAPE  C21218713   4.673   3.184   7.436  0.3222 -0.3209 -0.2728
  166SAPE  H12R18714   4.780   3.174   7.457  0.1633 -1.5506  0.0300
  166SAPE  C21318715   4.587   3.214   7.560 -0.7890  0.3426 -0.0788
  166SAPE  H13R18716   4.478   3.222   7.540 -0.6905  0.5229 -0.5325
  166SAPE  H13S18717   4.614   3.316   7.595  0.9244 -0.6870  1.7541
  166SAPE  C21418718   4.617   3.114   7.671  0.5678 -0.0390  0.0770
  166SAPE  H14R18719   4.569   3.016   7.652  1.7912 -0.2046 -2.2004
  166SAPE  C21518720   4.672   3.129   7.792 -0.5600 -0.6403 -0.1525
  166SAPE  H15R18721   4.693   3.048   7.863 -2.1323 -1.0424 -0.1206
  166SAPE  C21618722   4.736   3.259   7.830 -0.6359 -0.2673 -0.2665
  166SAPE  H16R18723   4.679   3.352   7.808 -0.2413  0.1792  0.5812
  166SAPE  H16S18724   4.822   3.266   7.761 -0.9604 -0.3000 -0.6779
  166SAPE  C21718725   4.771   3.266   7.979  0.7636 -0.2895  0.3459
  166SAPE  H17R18726   4.822   3.363   7.989  2.5511 -1.1644 -0.1555
  166SAPE  H17S18727   4.852   3.194   8.002  0.8753 -0.7077 -1.3214
  166SAPE  C21818728   4.659   3.253   8.080  0.4833  0.2268 -0.3844
  166SAPE  H18R18729   4.627   3.147   8.090 -0.8622  0.5981 -0.7596
  166SAPE  H18S18730   4.570   3.308   8.044  0.0657 -1.2489 -1.6972
  166SAPE  C21918731   4.697   3.287   8.225  0.3733 -0.1822  1.3254
  166SAPE  H19R18732   4.793   3.232   8.229  1.5622  1.7620  0.1205
  166SAPE  H19S18733   4.626   3.239   8.296 -2.2976 -2.5513 -2.7222
  166SAPE  C22018734   4.716   3.436   8.257  0.2262  1.3032 -0.0438
  166SAPE  H20R18735   4.651   3.489   8.184 -1.9366  1.7670  2.1594
  166SAPE  H20S18736   4.819   3.467   8.228  0.2194  0.6318 -0.7853
  166SAPE  H20T18737   4.687   3.465   8.360 -0.0193  0.1071  0.2283
  166SAPE   C3318738   4.170   2.268   6.650  0.5578 -0.3581  0.4151
  166SAPE   H3X18739   4.062   2.292   6.665  0.7917  1.6166 -0.9294
  166SAPE   H3Y18740   4.219   2.366   6.632  0.0811 -0.0347  0.8746
  166SAPE   C3418741   4.223   2.208   6.782  1.0141  1.1280  0.1225
  166SAPE   H4X18742   4.329   2.180   6.765  0.3084 -1.6998  0.1031
  166SAPE   H4Y18743   4.160   2.118   6.799  1.5391  0.8587  0.6417
  166SAPE   C3518744   4.197   2.289   6.911 -0.3695 -0.0124 -0.4674
  166SAPE   H5X18745   4.089   2.315   6.920 -0.8318 -1.2466 -2.2131
  166SAPE   H5Y18746   4.246   2.389   6.911 -0.8922  0.2436 -0.3683
  166SAPE   C3618747   4.249   2.217   7.038 -0.2906 -0.2714 -0.1207
  166SAPE   H6X18748   4.197   2.119   7.030  0.9685 -1.0790  1.3236
  166SAPE   H6Y18749   4.213   2.273   7.127  0.0334 -0.2076 -0.0298
  166SAPE   C3718750   4.396   2.215   7.059  0.1324 -0.0484  0.0406
  166SAPE   H7X18751   4.433   2.320   7.062 -0.3493  0.1270 -0.1808
  166SAPE   H7Y18752   4.441   2.167   6.970  1.9188 -0.3984  1.1060
  166SAPE   C3818753   4.443   2.157   7.197  0.0307 -0.3026 -0.3847
  166SAPE   H8X18754   4.551   2.135   7.207  0.0873  0.1634  0.0330
  166SAPE   H8Y18755   4.390   2.060   7.207 -0.2094  0.0211  1.5560
  166SAPE   C3918756   4.408   2.243   7.316  0.1288  0.3398  0.2689
  166SAPE   H9X18757   4.297   2.244   7.328 -0.1082  0.2052 -1.7434
  166SAPE   H9Y18758   4.447   2.345   7.298  0.2958  0.2968  0.3894
  166SAPE  C31018759   4.459   2.183   7.445  0.4245 -0.6984  0.5339
  166SAPE  H10X18760   4.569   2.199   7.450  0.2596  1.0778 -0.9222
  166SAPE  H10Y18761   4.442   2.073   7.448  0.7130 -0.7641 -0.0806
  166SAPE  C31118762   4.394   2.248   7.572 -0.0201 -0.4211 -0.0104
  166SAPE  H11X18763   4.283   2.244   7.561 -0.0614  1.0081 -0.1166
  166SAPE  H11Y18764   4.422   2.355   7.582 -2.0451  0.1508 -0.1904
  166SAPE  C31218765   4.442   2.183   7.697  0.2583 -0.2633  0.0383
  166SAPE  H12X18766   4.544   2.225   7.697 -0.3054  1.1742 -1.7226
  166SAPE  H12Y18767   4.439   2.072   7.686  2.5800 -0.3213 -0.0920
  166SAPE  C31318768   4.353   2.226   7.817 -0.1944 -0.3689  0.3552
  166SAPE  H13X18769   4.250   2.201   7.783 -0.1675 -2.5612  1.7849
  166SAPE  H13Y18770   4.367   2.336   7.827 -0.5207 -0.1169 -1.6569
  166SAPE  C31418771   4.399   2.170   7.954 -0.2664  0.0882 -0.5381
  166SAPE  H14X18772   4.483   2.232   7.990  1.4497 -1.2756 -2.0825
  166SAPE  H14Y18773   4.445   2.071   7.935  2.4299  1.3578 -0.8753
  166SAPE  C31518774   4.287   2.164   8.049 -0.2211 -0.0390  0.2229
  166SAPE  H15X18775   4.191   2.141   7.999 -0.6002 -2.0467  1.8165
  166SAPE  H15Y18776   4.269   2.267   8.086  0.8548 -0.4941  2.0361
  166SAPE  C31618777   4.303   2.075   8.168 -0.5072  0.0405  0.2323
  166SAPE  H16X18778   4.288   1.967   8.150 -3.4406  0.2189  1.3065
  166SAPE  H16Y18779   4.221   2.101   8.238  1.2895  0.9266  2.0816
  166SAPE  C31718780   4.447   2.086   8.233  0.3763  0.3522  0.5123
  166SAPE  H17X18781   4.525   2.074   8.155 -1.6293 -2.5322 -1.1724
  166SAPE  H17Y18782   4.463   1.997   8.298  1.6420 -0.2672 -0.6450
  166SAPE  C31818783   4.476   2.224   8.303 -0.6631  0.2594 -0.0347
  166SAPE  H18X18784   4.482   2.299   8.221 -0.9166  1.8499  1.3992
  166SAPE  H18Y18785   4.565   2.220   8.369  0.4387 -2.8944 -1.5763
  166SAPE  H18Z18786   4.384   2.257   8.356 -0.4305  0.0251  0.5102
  167SAPE     N18787   6.124   1.349   5.782  0.1037  0.4393  0.1538
  167SAPE   HN118788   6.103   1.274   5.714 -1.4335 -0.2255  1.3498
  167SAPE   HN218789   6.104   1.437   5.729  0.0526 -0.1123 -0.7488
  167SAPE   HN318790   6.221   1.344   5.820 -0.2197  1.4540  1.1663
  167SAPE   C1218791   6.038   1.337   5.911  0.5345 -0.1154 -0.5589
  167SAPE  H12A18792   6.039   1.231   5.942 -1.2207 -0.5851 -1.9892
  167SAPE  H12B18793   5.931   1.362   5.894 -0.4448 -3.4962  0.3035
  167SAPE   C1118794   6.105   1.426   6.014 -0.2307 -0.1763  0.0417
  167SAPE  H11A18795   6.067   1.429   6.118  2.4298  0.7631  1.0331
  167SAPE  H11B18796   6.089   1.527   5.970 -1.3879  0.1008  1.0868
  167SAPE     P18797   6.347   1.463   6.119 -0.0772  0.0825  0.2560
  167SAPE   O1318798   6.484   1.423   6.082 -0.2021 -0.0148  0.4228
  167SAPE   O1418799   6.313   1.607   6.112 -0.1461  0.4767 -0.0327
  167SAPE   O1218800   6.241   1.389   6.024 -0.1514 -0.0728 -0.6540
  167SAPE   O1118801   6.307   1.397   6.256 -0.3330 -0.0072  0.4055
  167SAPE    C118802   6.314   1.254   6.271  0.5193 -1.5625 -0.6521
  167SAPE    HA18803   6.330   1.200   6.175  2.2386  2.1960 -2.5846
  167SAPE    HB18804   6.395   1.217   6.337 -2.3101 -1.7591  2.8250
  167SAPE    C218805   6.175   1.206   6.340 -0.6037  1.1759  0.0043
  167SAPE    HS18806   6.096   1.221   6.263  1.2193 -0.0946 -2.1801
  167SAPE   O2118807   6.161   1.277   6.465  0.0969  0.6424  0.4409
  167SAPE   C2118808   6.037   1.262   6.503 -0.2290  0.0204 -0.0490
  167SAPE   O2218809   5.946   1.213   6.434  0.0695  0.3277  0.1361
  167SAPE   C2218810   6.022   1.328   6.641  0.1648  1.0281  0.0669
  167SAPE   H2R18811   6.090   1.416   6.644  2.1594 -0.4571 -0.5788
  167SAPE   H2S18812   5.918   1.368   6.636  0.0355  0.4561 -2.2692
  167SAPE    C318813   6.182   1.044   6.357 -0.1636 -0.4284  0.3900
  167SAPE    HX18814   6.194   1.008   6.253  2.0019  0.6508  0.2234
  167SAPE    HY18815   6.089   0.991   6.384 -0.6901 -0.3911 -1.3080
  167SAPE   O3118816   6.293   1.013   6.442  0.0221 -0.1707 -0.4516
  167SAPE   C3118817   6.243   0.978   6.566  0.0334 -0.2734 -0.0618
  167SAPE   O3218818   6.127   0.986   6.603  0.0075 -1.0130 -0.5177
  167SAPE   C3218819   6.359   0.929   6.655  0.2386 -0.3199  0.1802
  167SAPE   H2X18820   6.432   1.010   6.633 -1.0831  1.0944  0.9186
  167SAPE   H2Y18821   6.400   0.831   6.622 -0.0659 -0.8877  1.4320
  167SAPE   C2318822   6.024   1.232   6.769  0.0341  0.1179 -0.0140
  167SAPE   H3R18823   6.126   1.189   6.773 -0.8889 -2.0459  1.5975
  167SAPE   H3S18824   5.945   1.154   6.760 -0.8335  0.8887  0.7589
  167SAPE   C2418825   5.992   1.315   6.900 -0.3276  0.3198  0.1185
  167SAPE   H4R18826   5.890   1.356   6.908 -1.1543 -1.8109  0.9956
  167SAPE   H4S18827   6.054   1.407   6.900  1.5203 -0.9016  1.3580
  167SAPE   C2518828   5.997   1.244   7.027  0.4083 -0.2180 -0.1843
  167SAPE   H5R18829   5.916   1.175   7.055  0.1561 -0.1910 -0.8547
  167SAPE   C2618830   6.105   1.251   7.109  0.2123 -0.5418  0.0686
  167SAPE   H6R18831   6.106   1.186   7.198 -0.7983 -1.8994 -0.8872
  167SAPE   C2718832   6.231   1.325   7.074  0.3976 -0.2757  0.1402
  167SAPE   H7R18833   6.273   1.296   6.975 -2.5741  2.7597 -2.1168
  167SAPE   H7S18834   6.307   1.286   7.145 -0.0816 -2.8503 -0.7095
  167SAPE   C2818835   6.225   1.476   7.083 -0.4709 -0.5499 -0.7746
  167SAPE   H8R18836   6.238   1.527   6.986 -1.1827  1.9610  0.4158
  167SAPE   C2918837   6.202   1.553   7.193 -0.0243  0.2989 -0.2679
  167SAPE   H9R18838   6.204   1.661   7.174  1.2942 -0.2102 -3.3979
  167SAPE  C21018839   6.181   1.496   7.334  0.2127  0.5974  0.3894
  167SAPE  H10R18840   6.270   1.431   7.351 -0.3621  0.1691  1.8040
  167SAPE  H10S18841   6.091   1.431   7.336  1.4617 -1.2429 -0.5641
  167SAPE  C21118842   6.176   1.604   7.440  0.0211 -0.1187  0.6316
  167SAPE  H11R18843   6.180   1.707   7.402  1.3245  0.1713  1.5345
  167SAPE  C21218844   6.184   1.578   7.579 -0.5846  0.3702  0.0935
  167SAPE  H12R18845   6.184   1.650   7.662  2.4486 -0.7808  1.1656
  167SAPE  C21318846   6.192   1.441   7.636  0.1835  0.4358  0.4591
  167SAPE  H13R18847   6.264   1.383   7.573 -2.6533 -3.1336  0.2951
  167SAPE  H13S18848   6.094   1.395   7.609  0.5703  0.0531 -0.3372
  167SAPE  C21418849   6.233   1.410   7.776  0.1988 -0.0393 -0.3849
  167SAPE  H14R18850   6.326   1.354   7.791 -0.4106 -0.3899  2.4619
  167SAPE  C21518851   6.161   1.431   7.888  1.2355  0.6552 -0.5064
  167SAPE  H15R18852   6.217   1.407   7.979  1.6083  1.8446 -0.4165
  167SAPE  C21618853   6.032   1.496   7.908 -0.2616 -0.3282  0.7077
  167SAPE  H16R18854   5.982   1.489   7.809  3.1502  0.6334 -1.1768
  167SAPE  H16S18855   6.040   1.607   7.911  1.2142 -0.4462  1.7402
  167SAPE  C21718856   5.930   1.443   8.017  0.1646 -0.3665 -0.3886
  167SAPE  H17R18857   5.956   1.483   8.118  0.7772  0.1747 -0.7536
  167SAPE  H17S18858   5.926   1.332   8.018 -2.0598 -0.2901  0.4008
  167SAPE  C21818859   5.788   1.501   7.995 -1.0910 -0.3081 -0.1573
  167SAPE  H18R18860   5.746   1.460   7.901 -0.9597  0.3474 -0.4971
  167SAPE  H18S18861   5.790   1.611   7.984 -0.2147 -0.4394 -1.4210
  167SAPE  C21918862   5.693   1.462   8.104 -0.2565 -0.6658 -0.1472
  167SAPE  H19R18863   5.717   1.522   8.194 -1.9843  0.8094 -0.6357
  167SAPE  H19S18864   5.702   1.355   8.132  0.7027 -0.8952 -1.3303
  167SAPE  C22018865   5.546   1.484   8.069  0.6386  0.0369 -0.5047
  167SAPE  H20R18866   5.484   1.462   8.158 -0.1482  0.4247 -0.9552
  167SAPE  H20S18867   5.508   1.399   8.008 -0.8751 -0.8822  1.6539
  167SAPE  H20T18868   5.529   1.586   8.028  0.8698  0.3340  0.1298
  167SAPE   C3318869   6.322   0.915   6.807 -0.5177 -0.4203 -0.2634
  167SAPE   H3X18870   6.223   0.963   6.822 -0.5722 -0.5965 -0.0431
  167SAPE   H3Y18871   6.394   0.972   6.870 -2.6221  2.8067 -0.6620
  167SAPE   C3418872   6.314   0.769   6.859  0.5268  0.5666 -0.0261
  167SAPE   H4X18873   6.416   0.732   6.882  1.6122  3.1880 -0.5235
  167SAPE   H4Y18874   6.274   0.707   6.776  0.6305 -0.8189  0.9470
  167SAPE   C3518875   6.224   0.759   6.979  0.1696 -0.2916 -0.4668
  167SAPE   H5X18876   6.216   0.655   7.015  1.2386  0.3100  1.5909
  167SAPE   H5Y18877   6.124   0.803   6.960  0.8925  1.2764 -0.7351
  167SAPE   C3618878   6.286   0.844   7.098  0.2295  0.4667  0.4809
  167SAPE   H6X18879   6.308   0.945   7.059  0.1195  0.9032  1.5213
  167SAPE   H6Y18880   6.384   0.797   7.121 -0.5184 -0.6093  1.5390
  167SAPE   C3718881   6.198   0.848   7.225  0.7213 -0.0319  0.5955
  167SAPE   H7X18882   6.176   0.745   7.260 -2.3851  0.3167 -0.1655
  167SAPE   H7Y18883   6.097   0.879   7.192  0.6747 -0.8417 -0.0492
  167SAPE   C3818884   6.251   0.946   7.331  0.3417 -0.1852 -0.3757
  167SAPE   H8X18885   6.247   1.042   7.275  0.5256  0.1721  0.2238
  167SAPE   H8Y18886   6.357   0.921   7.350  0.8890  0.5991 -2.2969
  167SAPE   C3918887   6.166   0.951   7.463 -0.0411 -0.0889 -0.5211
  167SAPE   H9X18888   6.183   0.858   7.520 -3.7395 -0.9552 -0.7488
  167SAPE   H9Y18889   6.058   0.959   7.440 -0.0396 -1.5133 -1.0702
  167SAPE  C31018890   6.219   1.074   7.537 -0.1252  0.0177 -0.4075
  167SAPE  H10X18891   6.160   1.164   7.512 -0.6580 -0.4947 -1.0096
  167SAPE  H10Y18892   6.325   1.100   7.517 -0.4473  1.0037 -0.8450
  167SAPE  C31118893   6.206   1.040   7.685  0.2936 -0.2208 -0.2145
  167SAPE  H11X18894   6.225   1.128   7.751 -0.5286  0.2403 -0.5841
  167SAPE  H11Y18895   6.286   0.965   7.704 -1.6900 -2.0238  1.1691
  167SAPE  C31218896   6.066   0.994   7.741 -0.2621  0.0510  0.3221
  167SAPE  H12X18897   6.098   0.966   7.844 -0.1867  0.1130  0.3151
  167SAPE  H12Y18898   6.027   0.908   7.682 -0.9699  0.8458 -0.3812
  167SAPE  C31318899   5.957   1.103   7.764  0.0479 -0.2013 -0.2080
  167SAPE  H13X18900   5.955   1.161   7.669 -0.0759  1.3144  0.7106
  167SAPE  H13Y18901   5.998   1.169   7.843 -1.3129 -0.6137  0.8705
  167SAPE  C31418902   5.821   1.034   7.797 -0.4357  0.3625 -0.2757
  167SAPE  H14X18903   5.841   0.968   7.884 -0.9338  0.9650  0.2958
  167SAPE  H14Y18904   5.797   0.974   7.706  2.9542  0.8372 -1.5444
  167SAPE  C31518905   5.703   1.118   7.834  0.4192 -0.3307  0.1996
  167SAPE  H15X18906   5.670   1.171   7.742 -0.0750 -1.3064 -0.1952
  167SAPE  H15Y18907   5.742   1.190   7.910 -1.1500 -0.7263  1.4035
  167SAPE  C31618908   5.581   1.037   7.893  0.4499  0.0034  0.3988
  167SAPE  H16X18909   5.524   0.979   7.816  0.2038  1.7434 -0.7670
  167SAPE  H16Y18910   5.509   1.115   7.926  0.3001  0.1535 -0.2674
  167SAPE  C31718911   5.616   0.951   8.011  0.3005  0.4952 -0.2155
  167SAPE  H17X18912   5.690   1.007   8.071  0.0294  0.2445  0.3551
  167SAPE  H17Y18913   5.670   0.859   7.980 -1.4036 -0.6854  0.2128
  167SAPE  C31818914   5.507   0.918   8.111 -0.3857 -0.0999 -0.0355
  167SAPE  H18X18915   5.544   0.848   8.189  3.0830  2.5503  0.7842
  167SAPE  H18Y18916   5.423   0.865   8.060 -1.9522  1.7671  0.5405
  167SAPE  H18Z18917   5.473   1.016   8.149  0.3859 -0.0626  0.5577
  168SAPE     N18918   0.332   2.690   6.053  0.0688 -0.6875  0.1594
  168SAPE   HN118919   0.414   2.753   6.060 -0.0254 -0.5376 -0.0967
  168SAPE   HN218920   0.306   2.686   5.952  0.3859 -0.3442  0.0633
  168SAPE   HN318921   0.251   2.727   6.107  0.6003 -0.7334  1.0008
  168SAPE   C1218922   0.358   2.561   6.120 -0.5037  0.5321 -0.3904
  168SAPE  H12A18923   0.461   2.524   6.098 -0.1922  0.9134  0.4108
  168SAPE  H12B18924   0.288   2.487   6.077 -0.9539 -1.3237  3.3286
  168SAPE   C1118925   0.350   2.567   6.276  0.6948 -0.0140 -0.2167
  168SAPE  H11A18926   0.372   2.466   6.317 -1.0030 -0.5945 -0.7060
  168SAPE  H11B18927   0.242   2.588   6.295  1.1856  1.1303  1.4800
  168SAPE     P18928   0.575   2.653   6.374  0.0301  0.2794  0.4805
  168SAPE   O1318929   0.628   2.526   6.328  0.3517  0.8084  0.0939
  168SAPE   O1418930   0.641   2.772   6.324 -0.4532 -0.6936  0.1307
  168SAPE   O1218931   0.427   2.671   6.328 -0.0502 -0.5726  0.5156
  168SAPE   O1118932   0.569   2.659   6.533  0.4646 -0.2616 -0.0641
  168SAPE    C118933   0.656   2.597   6.626 -0.4109  0.2194 -0.0621
  168SAPE    HA18934   0.616   2.516   6.691 -2.4496 -1.7699 -3.6353
  168SAPE    HB18935   0.743   2.543   6.581  1.4055  0.7085  2.7078
  168SAPE    C218936   0.739   2.694   6.710 -0.2876  0.3700  0.5420
  168SAPE    HS18937   0.808   2.633   6.772 -1.5967 -0.5851  1.0715
  168SAPE   O2118938   0.653   2.768   6.791 -0.1429  0.1799 -0.0809
  168SAPE   C2118939   0.701   2.826   6.899 -0.3445 -0.7438 -0.4807
  168SAPE   O2218940   0.813   2.811   6.944  0.1157  0.4943  0.2536
  168SAPE   C2218941   0.600   2.932   6.952 -0.5080 -0.0904  0.4501
  168SAPE   H2R18942   0.645   3.034   6.955 -2.2259  0.7759 -1.5954
  168SAPE   H2S18943   0.529   2.954   6.870  0.1926  4.8745  1.0245
  168SAPE    C318944   0.806   2.792   6.610 -0.1564  0.6102 -0.1292
  168SAPE    HX18945   0.731   2.857   6.559 -0.2993  1.5047  1.1887
  168SAPE    HY18946   0.856   2.733   6.530  1.4575  1.6199  0.0978
  168SAPE   O3118947   0.905   2.883   6.668 -0.3872  0.2034  0.9128
  168SAPE   C3118948   1.027   2.833   6.688 -0.8235 -0.7656 -0.1207
  168SAPE   O3218949   1.058   2.719   6.671 -0.0904 -0.6143 -0.2366
  168SAPE   C3218950   1.122   2.940   6.742  0.0097 -0.3779  0.1673
  168SAPE   H2X18951   1.144   3.021   6.669  0.4885 -1.0000 -0.3843
  168SAPE   H2Y18952   1.218   2.895   6.772  0.5302  0.1819 -0.6243
  168SAPE   C2318953   0.529   2.901   7.088  0.4514  0.0059  0.9233
  168SAPE   H3R18954   0.528   2.791   7.108 -1.0982 -0.7821 -3.1116
  168SAPE   H3S18955   0.423   2.933   7.084  0.1154 -1.1048  0.7661
  168SAPE   C2418956   0.590   2.973   7.210 -0.2155 -0.2918  0.4853
  168SAPE   H4R18957   0.513   2.979   7.290 -0.1403  0.0335  0.5330
  168SAPE   H4S18958   0.603   3.080   7.181 -0.0390 -0.7667 -1.2332
  168SAPE   C2518959   0.709   2.895   7.253 -0.2837 -0.1173 -1.2814
  168SAPE   H5R18960   0.806   2.933   7.216  0.8120 -2.5476 -1.0436
  168SAPE   C2618961   0.723   2.801   7.343 -0.1944 -0.1105  0.2762
  168SAPE   H6R18962   0.826   2.766   7.357 -0.6151 -2.0103 -1.1166
  168SAPE   C2718963   0.614   2.743   7.431 -0.2699  0.1259 -0.5790
  168SAPE   H7R18964   0.563   2.658   7.381 -0.0501  0.6349 -1.6852
  168SAPE   H7S18965   0.526   2.809   7.447  0.2317  0.9753 -1.2288
  168SAPE   C2818966   0.689   2.706   7.556  0.1407  0.4502  0.0441
  168SAPE   H8R18967   0.702   2.597   7.549 -2.8452  0.1444 -1.2325
  168SAPE   C2918968   0.740   2.779   7.651 -0.1291  0.2693 -0.2654
  168SAPE   H9R18969   0.796   2.719   7.725  1.1510 -0.0356 -1.4726
  168SAPE  C21018970   0.729   2.928   7.665 -0.2493  0.4470 -0.6222
  168SAPE  H10R18971   0.626   2.963   7.645 -0.8690 -2.8052 -3.4721
  168SAPE  H10S18972   0.785   2.980   7.584 -1.2545 -1.7574 -2.7805
  168SAPE  C21118973   0.785   2.979   7.801 -0.5198 -0.1254 -0.6916
  168SAPE  H11R18974   0.890   2.946   7.810 -0.3036  0.9864  1.0399
  168SAPE  C21218975   0.717   3.036   7.905 -0.2268  0.8367  0.2570
  168SAPE  H12R18976   0.769   3.059   7.999  1.7053 -2.5340  0.0804
  168SAPE  C21318977   0.571   3.062   7.902  0.1430 -0.4161 -0.3118
  168SAPE  H13R18978   0.519   3.027   7.810 -0.7786  0.0691  0.0205
  168SAPE  H13S18979   0.555   3.172   7.900 -0.7719 -0.5638 -1.3462
  168SAPE  C21418980   0.509   3.019   8.029  0.0346 -0.0362 -0.5346
  168SAPE  H14R18981   0.485   3.097   8.102 -2.0226 -1.4387  0.3370
  168SAPE  C21518982   0.483   2.895   8.069  0.0343  0.2688  0.5426
  168SAPE  H15R18983   0.438   2.873   8.167 -0.2798 -2.0216 -0.0843
  168SAPE  C21618984   0.507   2.766   7.986 -0.0525 -0.2989  0.6109
  168SAPE  H16R18985   0.602   2.763   7.929  0.1927  0.5054  0.9844
  168SAPE  H16S18986   0.418   2.737   7.925  0.8321 -0.4700 -0.6164
  168SAPE  C21718987   0.521   2.638   8.079  0.6853 -0.3335 -0.5293
  168SAPE  H17R18988   0.525   2.538   8.032 -1.5300 -1.6261  1.8884
  168SAPE  H17S18989   0.428   2.627   8.139  1.5899 -1.5790  0.6811
  168SAPE  C21818990   0.643   2.654   8.169  0.9754 -0.3803  0.0410
  168SAPE  H18R18991   0.648   2.751   8.223 -0.2244  0.0026 -0.5265
  168SAPE  H18S18992   0.735   2.651   8.106  0.1812  0.0016 -1.1509
  168SAPE  C21918993   0.659   2.541   8.274  0.0936 -0.5087 -0.4211
  168SAPE  H19R18994   0.631   2.443   8.230 -1.1362 -0.9757  1.3482
  168SAPE  H19S18995   0.586   2.546   8.357 -0.2091  1.3248 -0.7670
  168SAPE  C22018996   0.800   2.551   8.325 -0.5904  0.8980 -0.0725
  168SAPE  H20R18997   0.868   2.506   8.249 -0.3146  1.1461  0.0299
  168SAPE  H20S18998   0.814   2.506   8.425  2.7857 -0.1671 -0.9447
  168SAPE  H20T18999   0.820   2.659   8.339 -0.8104  0.8975  0.2328
  168SAPE   C3319000   1.065   3.017   6.866 -1.2263 -0.3587  1.0547
  168SAPE   H3X19001   0.954   3.015   6.866 -1.2994  1.9871 -0.4343
  168SAPE   H3Y19002   1.095   3.124   6.866 -2.2293 -0.0631 -0.4425
  168SAPE   C3419003   1.114   2.955   7.004 -0.2082  0.1315  0.2326
  168SAPE   H4X19004   1.225   2.952   7.001 -0.2198 -0.9186  0.6503
  168SAPE   H4Y19005   1.070   2.853   7.012  0.9202 -0.3992 -0.2778
  168SAPE   C3519006   1.082   3.041   7.122 -0.2004 -0.5575 -0.3691
  168SAPE   H5X19007   0.972   3.060   7.131 -0.3639 -0.3524 -2.5018
  168SAPE   H5Y19008   1.125   3.138   7.090 -3.0567  0.1652 -2.2171
  168SAPE   C3619009   1.163   3.004   7.244 -0.0333 -1.3902  0.1066
  168SAPE   H6X19010   1.268   3.022   7.212 -0.9080  2.4095 -0.8951
  168SAPE   H6Y19011   1.145   2.894   7.246 -4.2390 -0.7668 -0.0722
  168SAPE   C3719012   1.135   3.091   7.368  0.0954  0.0194 -1.1901
  168SAPE   H7X19013   1.027   3.115   7.381  0.4789  0.7987  0.8052
  168SAPE   H7Y19014   1.183   3.190   7.357 -3.0555  1.6848 -0.5447
  168SAPE   C3819015   1.186   3.030   7.503 -0.7471 -0.1001 -0.6448
  168SAPE   H8X19016   1.295   3.016   7.486 -0.7326  0.7149 -1.2823
  168SAPE   H8Y19017   1.150   2.925   7.510  1.2071 -0.7713 -0.5190
  168SAPE   C3919018   1.144   3.102   7.630 -0.1861  0.3606 -0.4744
  168SAPE   H9X19019   1.037   3.090   7.656 -0.0973  0.2816 -0.1475
  168SAPE   H9Y19020   1.160   3.211   7.617  0.0262  0.5833  1.4957
  168SAPE  C31019021   1.219   3.062   7.750 -0.5916 -0.0048  0.3277
  168SAPE  H10X19022   1.324   3.094   7.733  0.1232 -0.6742  3.1708
  168SAPE  H10Y19023   1.225   2.951   7.763  0.9053 -0.1671 -1.5589
  168SAPE  C31119024   1.159   3.115   7.874  0.0098  0.4379 -0.8187
  168SAPE  H11X19025   1.052   3.086   7.880  0.1610  0.3782  2.8139
  168SAPE  H11Y19026   1.171   3.225   7.872  3.2349  0.1469 -0.1382
  168SAPE  C31219027   1.236   3.057   7.993  0.5357 -0.1862  0.5256
  168SAPE  H12X19028   1.340   3.097   7.993  1.6178 -2.8886 -0.7369
  168SAPE  H12Y19029   1.258   2.949   7.977 -0.1112 -0.4769  1.5794
  168SAPE  C31319030   1.180   3.099   8.127 -0.1859  0.6673  1.1229
  168SAPE  H13X19031   1.208   3.203   8.150  3.4411 -0.1678  0.7628
  168SAPE  H13Y19032   1.235   3.033   8.198  0.3227 -1.3309 -1.0733
  168SAPE  C31419033   1.026   3.083   8.150  1.1078 -0.4143  0.0106
  168SAPE  H14X19034   1.007   2.980   8.112  0.1061  0.4740 -1.9636
  168SAPE  H14Y19035   0.959   3.145   8.086 -1.8732 -0.3274  3.0143
  168SAPE  C31519036   0.968   3.116   8.286 -0.5414 -0.4332  0.0575
  168SAPE  H15X19037   0.996   3.220   8.310 -0.6110  0.0039 -1.6683
  168SAPE  H15Y19038   1.016   3.050   8.362 -1.4506 -0.8898  0.2333
  168SAPE  C31619039   0.814   3.094   8.296 -0.7950 -0.4406  0.2180
  168SAPE  H16X19040   0.805   2.985   8.279 -1.6573 -0.5762  1.5086
  168SAPE  H16Y19041   0.772   3.157   8.215 -1.4388 -0.0244  0.8685
  168SAPE  C31719042   0.752   3.113   8.428 -0.7303  0.5346 -0.5073
  168SAPE  H17X19043   0.763   3.215   8.472 -1.3602 -0.4617  2.0567
  168SAPE  H17Y19044   0.811   3.064   8.508  0.0371  0.8479 -0.8726
  168SAPE  C31819045   0.604   3.075   8.440 -0.5212 -0.2194 -0.2394
  168SAPE  H18X19046   0.585   2.976   8.485 -2.2827  0.0242 -0.4423
  168SAPE  H18Y19047   0.551   3.074   8.342 -0.6428 -0.6552 -0.1676
  168SAPE  H18Z19048   0.552   3.153   8.500  1.3338  1.2723 -0.5177
  169SAPE     N19049   6.740   4.355   6.518  0.8279 -0.4832 -0.3265
  169SAPE   HN119050   6.703   4.258   6.516  0.0440 -0.2633  1.7531
  169SAPE   HN219051   6.729   4.399   6.424  0.4598  2.0011  0.8315
  169SAPE   HN319052   6.843   4.357   6.534  0.9424 -1.4553 -0.9089
  169SAPE   C1219053   6.689   4.449   6.621 -0.9691 -0.4639  0.2358
  169SAPE  H12A19054   6.693   4.406   6.723 -1.2303  0.3516  0.5942
  169SAPE  H12B19055   6.582   4.471   6.602 -0.8087  1.5270  1.5326
  169SAPE   C1119056   6.776   4.577   6.617  0.0269  0.0349 -0.3451
  169SAPE  H11A19057   6.881   4.543   6.627 -0.8487 -2.3806  0.9718
  169SAPE  H11B19058   6.750   4.642   6.704 -2.1217  0.5251 -1.3190
  169SAPE     P19059   6.720   4.802   6.480  0.5672  0.1500 -0.2352
  169SAPE   O1319060   6.848   4.863   6.442 -0.1072  0.4042 -0.1483
  169SAPE   O1419061   6.607   4.812   6.379  0.2564  0.1788 -0.0634
  169SAPE   O1219062   6.755   4.647   6.500 -0.2087 -0.6335 -0.8466
  169SAPE   O1119063   6.676   4.868   6.621  0.4046  0.0506  0.5078
  169SAPE    C119064   6.543   4.929   6.631 -0.3795 -1.4003  0.1978
  169SAPE    HA19065   6.516   4.996   6.546  3.1601  0.0106  0.0766
  169SAPE    HB19066   6.459   4.856   6.629 -0.3971 -1.4825  2.8122
  169SAPE    C219067   6.523   5.009   6.756 -0.0239  0.0078  0.2983
  169SAPE    HS19068   6.567   5.111   6.743  3.3683 -1.2192  1.5258
  169SAPE   O2119069   6.567   4.939   6.874 -0.3069 -0.1854  0.5416
  169SAPE   C2119070   6.692   4.965   6.913 -0.1991 -0.5207 -0.2544
  169SAPE   O2219071   6.757   5.061   6.877 -0.2575 -0.6427  0.1509
  169SAPE   C2219072   6.743   4.866   7.012  0.2443  0.3764  0.1728
  169SAPE   H2R19073   6.737   4.764   6.967  0.7567 -0.1033  1.1591
  169SAPE   H2S19074   6.850   4.892   7.029  0.2250  0.9748 -0.6067
  169SAPE    C319075   6.371   5.037   6.787  0.1207 -0.4232  0.5069
  169SAPE    HX19076   6.337   4.934   6.813  0.9289  0.0495  3.5860
  169SAPE    HY19077   6.313   5.074   6.700 -0.8300 -0.8616  0.9508
  169SAPE   O3119078   6.357   5.110   6.908 -0.5388 -0.0599  0.4802
  169SAPE   C3119079   6.353   5.240   6.896 -0.7010 -0.7910  0.3070
  169SAPE   O3219080   6.381   5.303   6.797 -0.0791 -0.0076 -0.0279
  169SAPE   C3219081   6.301   5.299   7.026  0.6438  0.3352 -0.4828
  169SAPE   H2X19082   6.193   5.278   7.029  0.3400  1.8870  0.2276
  169SAPE   H2Y19083   6.301   5.410   7.023 -0.9218  0.3954  1.1879
  169SAPE   C2319084   6.682   4.888   7.158 -0.5243 -0.0906  0.3043
  169SAPE   H3R19085   6.693   4.799   7.222  0.1052 -1.0294 -1.0797
  169SAPE   H3S19086   6.573   4.899   7.141 -0.3364  1.9665  0.2431
  169SAPE   C2419087   6.732   5.021   7.222 -0.0498  0.3475 -0.1295
  169SAPE   H4R19088   6.659   5.048   7.301  0.2765 -1.7522  0.9296
  169SAPE   H4S19089   6.735   5.103   7.147  0.6423  1.2919  0.9152
  169SAPE   C2519090   6.873   5.001   7.270  0.2691  0.5563  0.2890
  169SAPE   H5R19091   6.953   4.984   7.196  0.3544  0.0303  0.4954
  169SAPE   C2619092   6.922   5.006   7.398 -0.4726 -0.2994  0.2728
  169SAPE   H6R19093   7.028   4.978   7.413 -0.2907  0.8268  1.1318
  169SAPE   C2719094   6.854   5.031   7.530  0.0222  0.3719  0.9622
  169SAPE   H7R19095   6.933   4.997   7.599 -0.6181 -1.2719  0.9107
  169SAPE   H7S19096   6.759   4.976   7.546 -0.1061  0.4755  0.5752
  169SAPE   C2819097   6.822   5.177   7.550 -0.2022  0.5947  0.3454
  169SAPE   H8R19098   6.822   5.238   7.458  1.4247  1.9750  1.2189
  169SAPE   C2919099   6.794   5.232   7.668  0.0272  0.3086 -0.2496
  169SAPE   H9R19100   6.775   5.340   7.662  1.3072  0.4719 -1.7684
  169SAPE  C21019101   6.794   5.164   7.801  0.0251 -0.1288  0.7267
  169SAPE  H10R19102   6.828   5.228   7.885  2.2224 -0.0853 -0.1509
  169SAPE  H10S19103   6.869   5.082   7.800 -0.5547 -0.6764 -1.4888
  169SAPE  C21119104   6.659   5.097   7.829 -0.4029  0.2181  0.1319
  169SAPE  H11R19105   6.638   5.028   7.746  0.0669  0.2926 -0.0459
  169SAPE  C21219106   6.574   5.112   7.930 -0.1849  0.2607 -0.1989
  169SAPE  H12R19107   6.479   5.057   7.935 -0.2070  0.2990 -0.2108
  169SAPE  C21319108   6.588   5.200   8.052 -1.0887 -0.8060 -0.2785
  169SAPE  H13R19109   6.660   5.282   8.035 -1.1422 -0.7976 -0.4703
  169SAPE  H13S19110   6.633   5.134   8.128 -0.7383 -1.2576 -0.8765
  169SAPE  C21419111   6.458   5.262   8.095  0.0089 -0.6131 -0.2021
  169SAPE  H14R19112   6.427   5.356   8.048  2.2130  0.1272 -0.2030
  169SAPE  C21519113   6.357   5.206   8.169  0.1560 -0.0001  0.4142
  169SAPE  H15R19114   6.268   5.267   8.189  0.9040  2.3267 -2.8987
  169SAPE  C21619115   6.363   5.065   8.229  1.4101 -0.2253 -0.5706
  169SAPE  H16R19116   6.334   5.076   8.335 -0.6249  0.9465 -1.2242
  169SAPE  H16S19117   6.457   5.006   8.235  0.5072 -1.5894  0.3461
  169SAPE  C21719118   6.266   4.971   8.163 -0.4525 -0.9428  0.6770
  169SAPE  H17R19119   6.296   4.956   8.058 -1.9400 -0.7547  0.2036
  169SAPE  H17S19120   6.167   5.022   8.153 -0.1651  0.2169  3.1822
  169SAPE  C21819121   6.255   4.842   8.238  1.3096 -0.2844 -0.5590
  169SAPE  H18R19122   6.213   4.866   8.338 -0.7627  0.3668 -1.5533
  169SAPE  H18S19123   6.351   4.790   8.260  0.8622 -2.0183 -2.5357
  169SAPE  C21919124   6.171   4.737   8.160  0.0758 -0.5188  0.0590
  169SAPE  H19R19125   6.219   4.706   8.065  0.4841 -0.6638  0.3108
  169SAPE  H19S19126   6.074   4.781   8.127  0.6040  0.7819  0.2438
  169SAPE  C22019127   6.149   4.609   8.241  0.1293  0.4067 -0.7676
  169SAPE  H20R19128   6.246   4.556   8.238  0.5273  0.7974  2.9802
  169SAPE  H20S19129   6.069   4.551   8.187  0.5284  0.1441 -1.0821
  169SAPE  H20T19130   6.127   4.633   8.347 -1.5497  2.8491 -1.6208
  169SAPE   C3319131   6.374   5.260   7.157 -0.0210 -0.2438  0.5183
  169SAPE   H3X19132   6.480   5.293   7.153  0.6095 -2.1556  0.8835
  169SAPE   H3Y19133   6.373   5.150   7.175  0.8121 -0.2898  0.3364
  169SAPE   C3419134   6.308   5.327   7.280 -0.3451  0.9383 -0.6343
  169SAPE   H4X19135   6.199   5.309   7.269 -0.0002 -3.4587  1.8202
  169SAPE   H4Y19136   6.325   5.436   7.278 -3.4353  1.4882 -0.3225
  169SAPE   C3519137   6.343   5.260   7.419  0.1355 -0.7315  0.6267
  169SAPE   H5X19138   6.454   5.268   7.426  0.0276  0.9416  0.5809
  169SAPE   H5Y19139   6.315   5.153   7.434 -1.6506 -0.7344 -2.4016
  169SAPE   C3619140   6.291   5.344   7.547 -0.3139 -0.1036 -0.0239
  169SAPE   H6X19141   6.181   5.331   7.549 -0.3497  0.3045  2.2954
  169SAPE   H6Y19142   6.316   5.452   7.536 -0.1519 -0.1470 -0.0834
  169SAPE   C3719143   6.342   5.286   7.677 -0.4649 -0.6174 -0.0674
  169SAPE   H7X19144   6.453   5.292   7.680 -0.4072 -1.3404 -0.7816
  169SAPE   H7Y19145   6.311   5.180   7.680 -0.4926 -0.6203 -0.4175
  169SAPE   C3819146   6.285   5.359   7.804  0.2404 -0.1985 -0.6118
  169SAPE   H8X19147   6.294   5.291   7.891  1.7272  1.5051  0.6204
  169SAPE   H8Y19148   6.177   5.374   7.781  0.1792 -0.2650 -0.3701
  169SAPE   C3919149   6.338   5.503   7.836 -0.3013 -0.2265  0.0283
  169SAPE   H9X19150   6.344   5.555   7.738  0.3384  1.6950  1.0701
  169SAPE   H9Y19151   6.433   5.503   7.892 -1.0383 -2.2791  1.3466
  169SAPE  C31019152   6.242   5.589   7.914 -0.2314 -0.2466 -0.1886
  169SAPE  H10X19153   6.159   5.527   7.952 -3.1644  2.3169 -2.2145
  169SAPE  H10Y19154   6.195   5.668   7.853 -0.2837  0.7137  1.0855
  169SAPE  C31119155   6.313   5.642   8.039 -0.4867  0.4488 -0.1339
  169SAPE  H11X19156   6.406   5.695   8.008 -1.0545  1.1651 -0.6486
  169SAPE  H11Y19157   6.346   5.558   8.103  0.6795  1.2928  0.3969
  169SAPE  C31219158   6.225   5.729   8.135  0.5280  0.5309  0.5081
  169SAPE  H12X19159   6.134   5.675   8.170  0.6784  0.0457  0.1551
  169SAPE  H12Y19160   6.175   5.811   8.078 -0.2127 -0.0993  0.2397
  169SAPE  C31319161   6.306   5.788   8.248  0.2692 -0.5203  0.2607
  169SAPE  H13X19162   6.390   5.842   8.200  1.0534 -0.9654  1.1256
  169SAPE  H13Y19163   6.364   5.717   8.311  0.8933  1.7536  2.2913
  169SAPE  C31419164   6.231   5.891   8.332 -0.0185  0.0890 -0.5350
  169SAPE  H14X19165   6.168   5.831   8.401 -1.3157  0.7237 -1.1486
  169SAPE  H14Y19166   6.163   5.953   8.270  1.4642  1.2126 -1.0680
  169SAPE  C31519167   6.324   5.983   8.412 -0.2219 -0.2524 -0.4190
  169SAPE  H15X19168   6.391   6.041   8.345  0.4826 -0.7083 -0.1031
  169SAPE  H15Y19169   6.389   5.925   8.481  1.2269  1.5558 -0.2472
  169SAPE  C31619170   6.236   6.082   8.493  0.0263 -0.4255  0.1201
  169SAPE  H16X19171   6.190   6.029   8.580  0.4679  1.3097  1.4271
  169SAPE  H16Y19172   6.152   6.113   8.427  0.9842 -0.3803 -1.0949
  169SAPE  C31719173   6.314   6.199   8.555 -0.1974  0.1276 -0.2826
  169SAPE  H17X19174   6.369   6.239   8.467  1.2435 -0.3049  0.4015
  169SAPE  H17Y19175   6.385   6.165   8.633 -1.2755 -1.7655 -0.0859
  169SAPE  C31819176   6.229   6.309   8.628  0.1138  0.4181 -0.0459
  169SAPE  H18X19177   6.156   6.259   8.696  0.4080 -1.3656 -1.0186
  169SAPE  H18Y19178   6.169   6.364   8.553  0.8337  2.8755  1.1380
  169SAPE  H18Z19179   6.287   6.380   8.690  1.0884 -0.7990  0.4657
  170SAPE     N19180   0.727   1.419   6.150 -0.0837  0.3466  0.6336
  170SAPE   HN119181   0.781   1.331   6.143  0.7138  0.6507  2.5705
  170SAPE   HN219182   0.760   1.487   6.222 -0.2773  1.2184 -0.0844
  170SAPE   HN319183   0.628   1.396   6.171  0.4984 -1.7598  1.1245
  170SAPE   C1219184   0.743   1.490   6.011  0.1156  0.7293 -0.6309
  170SAPE  H12A19185   0.680   1.433   5.939 -1.4713  1.1858  0.3706
  170SAPE  H12B19186   0.850   1.477   5.985  0.6996  1.5765  1.2789
  170SAPE   C1119187   0.706   1.639   6.021  0.3203  0.4493 -0.0991
  170SAPE  H11A19188   0.697   1.672   5.916 -1.7099  1.2001  0.2978
  170SAPE  H11B19189   0.790   1.692   6.070 -0.0242  1.8291 -0.9878
  170SAPE     P19190   0.537   1.791   6.139  0.2015 -0.7408 -0.1561
  170SAPE   O1319191   0.603   1.901   6.069  0.2328  0.4124  0.0115
  170SAPE   O1419192   0.389   1.795   6.133  0.4723  0.4413 -0.1621
  170SAPE   O1219193   0.585   1.652   6.097 -0.3440  0.4583 -0.6700
  170SAPE   O1119194   0.571   1.805   6.289  0.1475  0.0546 -0.5288
  170SAPE    C119195   0.534   1.706   6.384  0.2917  0.4974  0.0780
  170SAPE    HA19196   0.491   1.616   6.334  4.5575 -0.6552 -1.6930
  170SAPE    HB19197   0.619   1.662   6.440  0.6531 -1.2419 -1.7633
  170SAPE    C219198   0.431   1.762   6.481  0.1452 -0.1584  0.6799
  170SAPE    HS19199   0.341   1.778   6.418  0.4918 -1.3507 -0.1425
  170SAPE   O2119200   0.483   1.879   6.539 -0.5136 -0.3561 -0.8078
  170SAPE   C2119201   0.414   1.997   6.514  0.9193 -0.1341  0.0469
  170SAPE   O2219202   0.311   2.010   6.457 -0.1765 -0.3095 -0.7950
  170SAPE   C2219203   0.491   2.119   6.570 -0.4091 -0.1357  0.1713
  170SAPE   H2R19204   0.541   2.173   6.487 -1.2901  0.8008  0.2427
  170SAPE   H2S19205   0.412   2.183   6.613 -0.6194 -1.2814  1.5316
  170SAPE    C319206   0.406   1.653   6.595  0.1315 -0.4547 -0.9175
  170SAPE    HX19207   0.507   1.644   6.640  0.2555  0.8625 -0.8951
  170SAPE    HY19208   0.374   1.559   6.545 -2.9989  0.0257  0.0533
  170SAPE   O3119209   0.322   1.697   6.703 -0.8793  0.3663 -0.2002
  170SAPE   C3119210   0.195   1.675   6.701  0.3668 -0.4727  0.5390
  170SAPE   O3219211   0.132   1.630   6.607  0.5223  0.1000 -0.1619
  170SAPE   C3219212   0.143   1.712   6.847  0.0695  0.0213 -0.4121
  170SAPE   H2X19213   0.214   1.652   6.907  0.8382  1.1507 -0.1940
  170SAPE   H2Y19214   0.038   1.676   6.854  0.3304 -0.6615 -0.0266
  170SAPE   C2319215   0.588   2.087   6.688  0.0296 -0.1696 -0.2804
  170SAPE   H3R19216   0.652   1.997   6.676 -2.0388 -1.4815 -1.9205
  170SAPE   H3S19217   0.528   2.067   6.780  3.3224 -3.2324  1.3537
  170SAPE   C2419218   0.665   2.218   6.730  1.4340 -0.0337  0.4601
  170SAPE   H4R19219   0.588   2.296   6.749  0.0199 -1.5764  1.1861
  170SAPE   H4S19220   0.731   2.258   6.650  0.6649  1.3953  0.5282
  170SAPE   C2519221   0.745   2.191   6.855  1.3190 -0.0804 -0.3915
  170SAPE   H5R19222   0.822   2.113   6.849  2.3711  0.6800  2.3657
  170SAPE   C2619223   0.726   2.253   6.975  0.1355  0.3502 -0.4360
  170SAPE   H6R19224   0.777   2.213   7.064 -2.8646 -1.4885  0.5366
  170SAPE   C2719225   0.615   2.348   7.007  0.1215 -0.0223  1.0869
  170SAPE   H7R19226   0.520   2.291   6.999  1.4458 -1.9822 -1.5488
  170SAPE   H7S19227   0.595   2.418   6.923 -0.7622 -1.0011  0.4614
  170SAPE   C2819228   0.638   2.421   7.135  0.0519 -0.0169 -0.1974
  170SAPE   H8R19229   0.689   2.518   7.120  0.5354 -0.3030 -0.3904
  170SAPE   C2919230   0.588   2.383   7.259 -0.1151  0.1185 -0.1766
  170SAPE   H9R19231   0.618   2.438   7.349  1.9981  0.2324 -0.9213
  170SAPE  C21019232   0.516   2.248   7.290  0.2067 -1.3390  1.0379
  170SAPE  H10R19233   0.587   2.200   7.360  0.4907 -0.1935  1.5527
  170SAPE  H10S19234   0.499   2.182   7.202 -2.9520 -1.1590  1.4423
  170SAPE  C21119235   0.394   2.276   7.364  0.2938 -0.6127  0.2564
  170SAPE  H11R19236   0.314   2.308   7.295  1.0921  1.1693  0.1364
  170SAPE  C21219237   0.370   2.282   7.501  0.1647 -0.2888  0.4527
  170SAPE  H12R19238   0.276   2.324   7.537 -0.0977 -1.1211  0.7635
  170SAPE  C21319239   0.464   2.263   7.621 -0.3485 -0.2206 -0.0270
  170SAPE  H13R19240   0.549   2.205   7.579 -0.1712 -1.2743  1.7103
  170SAPE  H13S19241   0.430   2.188   7.696 -0.5508  0.2233  0.3259
  170SAPE  C21419242   0.520   2.389   7.677  0.0398 -0.6591 -0.3125
  170SAPE  H14R19243   0.499   2.482   7.622 -3.0128 -0.4505  1.0792
  170SAPE  C21519244   0.594   2.399   7.791 -0.7337  0.0695  0.1715
  170SAPE  H15R19245   0.635   2.495   7.825  0.1605 -0.4297  0.5173
  170SAPE  C21619246   0.639   2.276   7.872  0.1994  0.0446  0.5097
  170SAPE  H16R19247   0.612   2.181   7.823  0.2927  0.2358  0.0859
  170SAPE  H16S19248   0.587   2.293   7.969 -0.5009 -0.6761  0.2600
  170SAPE  C21719249   0.788   2.275   7.889 -0.3230 -0.3133 -0.7191
  170SAPE  H17R19250   0.830   2.363   7.943  1.2406 -0.6649 -1.3336
  170SAPE  H17S19251   0.849   2.259   7.798  0.6970 -2.0737  0.2623
  170SAPE  C21819252   0.828   2.156   7.977 -0.0190  0.2919 -0.7865
  170SAPE  H18R19253   0.937   2.173   7.994  0.0235 -0.0297 -0.7383
  170SAPE  H18S19254   0.808   2.061   7.924  1.0156  0.2196 -1.0594
  170SAPE  C21919255   0.770   2.145   8.122  0.1854 -1.2429  0.4177
  170SAPE  H19R19256   0.660   2.154   8.115  0.1434 -1.8045  0.3264
  170SAPE  H19S19257   0.806   2.219   8.197  1.2949  0.3237 -1.5993
  170SAPE  C22019258   0.814   2.011   8.173 -0.6676  0.2209 -0.2457
  170SAPE  H20R19259   0.776   1.995   8.276 -0.0231  1.3783  0.1845
  170SAPE  H20S19260   0.923   2.024   8.184 -0.9369  1.8464  0.6027
  170SAPE  H20T19261   0.775   1.934   8.103 -0.1228 -0.6476  0.4087
  170SAPE   C3319262   0.145   1.860   6.870  0.2188 -0.2741  0.4627
  170SAPE   H3X19263   0.062   1.899   6.807 -0.1698 -1.5246  0.2007
  170SAPE   H3Y19264   0.231   1.915   6.825  0.7420 -1.2886  0.2011
  170SAPE   C3419265   0.096   1.901   7.008  0.3753  0.3602 -0.6675
  170SAPE   H4X19266   0.173   1.879   7.086  0.2596  0.0417 -0.6434
  170SAPE   H4Y19267   0.005   1.850   7.048  0.2115  0.1882 -1.2545
  170SAPE   C3519268   0.083   2.052   7.018  0.4585  0.5365  0.0398
  170SAPE   H5X19269   0.032   2.089   6.927  1.8601 -0.3291 -1.1071
  170SAPE   H5Y19270   0.183   2.100   7.024  0.8036 -0.0599 -0.9483
  170SAPE   C3619271   0.013   2.111   7.145  0.9083  0.3445 -0.5726
  170SAPE   H6X19272  -0.088   2.064   7.147  1.0298  0.1456  2.5687
  170SAPE   H6Y19273   0.002   2.220   7.124 -0.9287  0.4313  0.7817
  170SAPE   C3719274   0.082   2.076   7.276  0.2233  0.2136 -0.0659
  170SAPE   H7X19275   0.184   2.119   7.280  0.5444 -0.6904  2.2707
  170SAPE   H7Y19276   0.099   1.966   7.274  2.8760  0.5943 -1.1928
  170SAPE   C3819277   0.009   2.136   7.401 -0.2272  0.1117  0.1698
  170SAPE   H8X19278  -0.093   2.097   7.383 -0.8378  1.1596  1.2879
  170SAPE   H8Y19279   0.007   2.247   7.393 -0.0176  0.0638 -0.6552
  170SAPE   C3919280   0.063   2.086   7.532 -0.5417  0.0919 -0.6465
  170SAPE   H9X19281   0.168   2.119   7.548  0.1223 -1.8461 -0.8992
  170SAPE   H9Y19282   0.058   1.975   7.540 -3.2059  0.1984 -0.0874
  170SAPE  C31019283  -0.014   2.135   7.658 -0.7786 -0.5645  1.0942
  170SAPE  H10X19284  -0.120   2.119   7.627  0.4382 -1.3817 -3.0064
  170SAPE  H10Y19285  -0.001   2.245   7.663 -0.3614 -0.4255 -2.1709
  170SAPE  C31119286   0.012   2.063   7.790  0.4100  0.2480 -0.0234
  170SAPE  H11X19287   0.120   2.073   7.813 -0.0317 -0.1382  2.2976
  170SAPE  H11Y19288  -0.023   1.961   7.764  2.4936 -0.8771  1.4601
  170SAPE  C31219289  -0.077   2.123   7.899  0.0936  0.4243  0.1625
  170SAPE  H12X19290  -0.179   2.126   7.854  0.5248 -1.2191 -0.9611
  170SAPE  H12Y19291  -0.060   2.230   7.923 -1.3271  0.4255  1.2561
  170SAPE  C31319292  -0.072   2.054   8.037  0.1584 -0.4520 -0.2526
  170SAPE  H13X19293   0.030   2.033   8.077 -0.7449 -2.4412  1.0797
  170SAPE  H13Y19294  -0.121   1.956   8.022  2.3349 -1.5976 -0.0447
  170SAPE  C31419295  -0.158   2.119   8.142 -0.0642 -0.0501  0.2866
  170SAPE  H14X19296  -0.240   2.174   8.092  1.2744  1.2426 -0.4949
  170SAPE  H14Y19297  -0.091   2.188   8.197  1.0538 -0.0528 -1.0574
  170SAPE  C31519298  -0.227   2.015   8.236  0.5371 -0.3305 -0.1190
  170SAPE  H15X19299  -0.157   1.931   8.257 -0.6976 -1.3066  0.1734
  170SAPE  H15Y19300  -0.320   1.977   8.189 -0.5795  1.5846  0.5098
  170SAPE  C31619301  -0.239   2.074   8.382 -0.4507 -0.2704  0.5128
  170SAPE  H16X19302  -0.291   2.170   8.365  0.5166  0.4288  1.4125
  170SAPE  H16Y19303  -0.136   2.097   8.419 -0.5833 -0.8368  1.2402
  170SAPE  C31719304  -0.304   1.982   8.483  0.5583  0.1274  0.2217
  170SAPE  H17X19305  -0.312   2.041   8.577 -1.0625 -2.5710  1.8301
  170SAPE  H17Y19306  -0.233   1.901   8.512  0.7772  0.1146 -0.3461
  170SAPE  C31819307  -0.432   1.912   8.442 -0.3593 -0.4747 -0.4282
  170SAPE  H18X19308  -0.405   1.844   8.358  2.9848 -1.6729  1.5196
  170SAPE  H18Y19309  -0.508   1.988   8.415  0.6071  0.6916  0.0968
  170SAPE  H18Z19310  -0.463   1.856   8.533  1.1201  0.4595  0.6758
  171SAPE     N19311   2.286   2.890   6.314 -0.2430  0.5043 -0.1822
  171SAPE   HN119312   2.189   2.904   6.348  0.1406 -0.2728  1.3071
  171SAPE   HN219313   2.278   2.838   6.224  0.1008  3.3517 -1.8937
  171SAPE   HN319314   2.344   2.820   6.365 -0.2153  0.0166 -0.8694
  171SAPE   C1219315   2.369   3.006   6.278  0.0096  0.0813 -0.4166
  171SAPE  H12A19316   2.424   2.982   6.185  2.0554 -2.8667  1.4628
  171SAPE  H12B19317   2.446   3.022   6.356  0.5516 -1.8689 -0.5351
  171SAPE   C1119318   2.283   3.139   6.256  0.0620  0.1425  0.3437
  171SAPE  H11A19319   2.226   3.164   6.348 -1.4516 -1.1080 -0.2240
  171SAPE  H11B19320   2.206   3.108   6.182  0.6767  0.8007 -0.5894
  171SAPE     P19321   2.471   3.320   6.301  0.4011 -0.0505  0.0391
  171SAPE   O1319322   2.592   3.235   6.286  0.2910 -0.5089  0.2796
  171SAPE   O1419323   2.476   3.462   6.266 -0.6821  0.2389  0.0429
  171SAPE   O1219324   2.352   3.258   6.223  0.0287  0.3576  0.2936
  171SAPE   O1119325   2.411   3.309   6.450 -0.3665  0.4922 -0.0002
  171SAPE    C119326   2.336   3.417   6.495 -0.5473 -0.0865  0.1594
  171SAPE    HA19327   2.407   3.499   6.515 -0.5622  0.2802 -1.2438
  171SAPE    HB19328   2.264   3.456   6.420 -0.9336 -2.9793 -1.0552
  171SAPE    C219329   2.259   3.384   6.626 -0.3327 -0.7726  0.3064
  171SAPE    HS19330   2.173   3.319   6.600 -0.1877 -1.4956  1.5531
  171SAPE   O2119331   2.208   3.495   6.694  0.0051  0.1709  0.2574
  171SAPE   C2119332   2.101   3.561   6.653 -0.0278  0.2062  0.1839
  171SAPE   O2219333   2.038   3.544   6.549 -0.2297  0.0160 -0.3023
  171SAPE   C2219334   2.062   3.659   6.766 -0.5109  0.3860 -0.1337
  171SAPE   H2R19335   2.142   3.658   6.842 -1.4038 -0.2255  0.8145
  171SAPE   H2S19336   2.070   3.756   6.712 -0.5737  0.1221 -0.6183
  171SAPE    C319337   2.361   3.303   6.718  0.3315 -0.6078  0.2398
  171SAPE    HX19338   2.459   3.354   6.713 -0.1292  0.2559 -0.0677
  171SAPE    HY19339   2.370   3.199   6.680 -1.9862 -1.4424  1.8244
  171SAPE   O3119340   2.320   3.301   6.857 -0.1025 -0.1942  0.2585
  171SAPE   C3119341   2.204   3.234   6.876  0.0918  0.3450 -0.4584
  171SAPE   O3219342   2.148   3.163   6.794  0.0920 -0.5493 -0.6119
  171SAPE   C3219343   2.145   3.252   7.020 -0.4577 -0.3759  0.6927
  171SAPE   H2X19344   2.105   3.355   7.016  0.4932  0.0042  0.8272
  171SAPE   H2Y19345   2.229   3.241   7.092  2.9050  1.6165 -2.6945
  171SAPE   C2319346   1.935   3.641   6.845 -0.4354  0.3182 -0.4190
  171SAPE   H3R19347   1.953   3.544   6.896 -0.7089  0.3076 -0.3419
  171SAPE   H3S19348   1.852   3.642   6.771  1.4487  1.0046 -2.5815
  171SAPE   C2419349   1.906   3.745   6.962 -0.1843 -0.1218  0.4411
  171SAPE   H4R19350   1.904   3.847   6.919  0.1819 -0.2386  0.1470
  171SAPE   H4S19351   1.995   3.734   7.027  0.0708 -2.0983 -0.2228
  171SAPE   C2519352   1.783   3.738   7.046  0.2677  0.1317 -0.0860
  171SAPE   H5R19353   1.685   3.766   7.005 -1.1011  0.6457  3.3861
  171SAPE   C2619354   1.786   3.705   7.176 -0.3862  0.8207  0.8930
  171SAPE   H6R19355   1.690   3.711   7.229 -0.5184 -1.2593  0.9250
  171SAPE   C2719356   1.907   3.679   7.265 -0.1508 -0.1353  0.2341
  171SAPE   H7R19357   1.969   3.771   7.258  1.2515 -1.1558 -1.2816
  171SAPE   H7S19358   1.973   3.598   7.226  1.7279  1.9673 -1.0930
  171SAPE   C2819359   1.878   3.640   7.406  0.1013  0.3264  0.0189
  171SAPE   H8R19360   1.818   3.549   7.423 -0.7438  1.1077  1.2388
  171SAPE   C2919361   1.936   3.684   7.520  0.3556  0.7767  0.9327
  171SAPE   H9R19362   1.924   3.625   7.612 -1.7632 -0.7612 -0.2977
  171SAPE  C21019363   2.047   3.788   7.535  0.2006 -0.3666 -0.4735
  171SAPE  H10R19364   2.089   3.810   7.434  0.4962 -2.8520 -0.9233
  171SAPE  H10S19365   2.134   3.743   7.587  0.5660  0.8447 -0.0183
  171SAPE  C21119366   1.987   3.913   7.599 -0.0525  0.1200 -0.1460
  171SAPE  H11R19367   1.959   3.993   7.529  0.8107  0.2809 -0.3063
  171SAPE  C21219368   1.981   3.948   7.730 -0.5059  0.5176  0.1423
  171SAPE  H12R19369   1.953   4.049   7.761 -3.2335 -0.8495  2.4179
  171SAPE  C21319370   2.040   3.863   7.841 -0.0720  0.4558  0.6220
  171SAPE  H13R19371   2.128   3.912   7.888  0.8307 -2.3912  2.0680
  171SAPE  H13S19372   2.094   3.775   7.800  1.6887  2.6266 -1.8674
  171SAPE  C21419373   1.938   3.817   7.947 -0.3556  0.1565 -0.5203
  171SAPE  H14R19374   1.834   3.851   7.942  0.1070  1.7018 -0.0422
  171SAPE  C21519375   1.977   3.751   8.055  0.1373  0.5870  0.4439
  171SAPE  H15R19376   1.899   3.725   8.127 -2.4833 -1.3684 -2.9592
  171SAPE  C21619377   2.116   3.703   8.091 -0.4135  0.2765 -0.0308
  171SAPE  H16R19378   2.192   3.728   8.015 -1.1494 -1.4894 -1.3864
  171SAPE  H16S19379   2.118   3.591   8.088 -3.5632  0.2081 -1.6128
  171SAPE  C21719380   2.148   3.753   8.229  0.1895 -0.5701 -0.1474
  171SAPE  H17R19381   2.248   3.713   8.259  0.6696 -1.2305 -2.5556
  171SAPE  H17S19382   2.076   3.709   8.302  0.7030 -1.2598 -0.0539
  171SAPE  C21819383   2.143   3.903   8.260  0.3170  0.3766  0.8660
  171SAPE  H18R19384   2.039   3.938   8.246  0.7140  1.2964  0.2187
  171SAPE  H18S19385   2.201   3.956   8.182 -0.1434 -2.3242 -1.3987
  171SAPE  C21919386   2.181   3.946   8.407 -0.2551  0.2662 -0.0550
  171SAPE  H19R19387   2.113   3.900   8.482 -1.9960  0.2431 -1.6055
  171SAPE  H19S19388   2.168   4.056   8.411  0.5952  0.4888 -2.6557
  171SAPE  C22019389   2.323   3.904   8.459  0.0783  0.2933  0.0918
  171SAPE  H20R19390   2.340   3.953   8.557  3.3421  1.1274 -0.8495
  171SAPE  H20S19391   2.396   3.954   8.392 -2.1322  1.3395 -1.6138
  171SAPE  H20T19392   2.337   3.794   8.451 -2.1585 -0.0134  0.0486
  171SAPE   C3319393   2.039   3.146   7.041 -0.0085  0.0929  0.4682
  171SAPE   H3X19394   2.068   3.047   7.000 -1.2837  0.8844 -2.4138
  171SAPE   H3Y19395   1.954   3.177   6.977  1.1400  1.1465 -0.5685
  171SAPE   C3419396   2.016   3.128   7.193 -0.3541  0.1429  0.3175
  171SAPE   H4X19397   2.112   3.096   7.239 -0.6943 -0.6695  0.4781
  171SAPE   H4Y19398   1.952   3.041   7.219 -0.0884 -0.4431 -0.9436
  171SAPE   C3519399   1.959   3.249   7.269  0.1091 -0.0821 -0.2035
  171SAPE   H5X19400   1.862   3.267   7.218 -0.1438 -3.6586 -1.1191
  171SAPE   H5Y19401   2.017   3.344   7.262  2.0890 -1.1081  1.6950
  171SAPE   C3619402   1.934   3.223   7.418  0.0508 -0.0328 -0.7522
  171SAPE   H6X19403   1.874   3.130   7.435 -1.4182  1.1188  0.4706
  171SAPE   H6Y19404   1.881   3.311   7.458  2.6814  1.0583  0.4122
  171SAPE   C3719405   2.063   3.202   7.500  0.2780 -0.1867  0.2323
  171SAPE   H7X19406   2.126   3.294   7.495  1.5548 -1.0847 -0.5617
  171SAPE   H7Y19407   2.129   3.133   7.443  0.2318  0.8161 -1.0934
  171SAPE   C3819408   2.046   3.145   7.644  0.3292  0.3780  0.2279
  171SAPE   H8X19409   2.148   3.115   7.679 -0.2996 -2.3956 -0.2653
  171SAPE   H8Y19410   1.981   3.055   7.643 -0.4308  0.8733  2.5490
  171SAPE   C3919411   1.978   3.242   7.742 -0.0484  0.9016  0.8936
  171SAPE   H9X19412   1.874   3.263   7.707  0.4644 -1.3961 -2.1902
  171SAPE   H9Y19413   2.031   3.339   7.730 -0.2208  0.9726  0.6936
  171SAPE  C31019414   1.997   3.199   7.884  0.3645 -0.0871 -0.6500
  171SAPE  H10X19415   2.107   3.203   7.904  0.4525  0.7969 -1.2971
  171SAPE  H10Y19416   1.958   3.096   7.898  0.7783 -0.1710 -0.0659
  171SAPE  C31119417   1.925   3.289   7.987  0.4588 -0.2144 -0.4024
  171SAPE  H11X19418   1.816   3.287   7.965  0.4622  0.5718 -0.4987
  171SAPE  H11Y19419   1.957   3.394   7.967  1.6175 -0.3425  0.7269
  171SAPE  C31219420   1.950   3.257   8.132  0.1997  0.0717 -0.1695
  171SAPE  H12X19421   2.059   3.237   8.144 -0.2589 -1.3577  1.8876
  171SAPE  H12Y19422   1.906   3.156   8.147  0.8937 -0.2455 -0.2467
  171SAPE  C31319423   1.892   3.355   8.228  0.1554  0.5447  0.5976
  171SAPE  H13X19424   1.793   3.397   8.200  0.0345 -0.5932 -0.7124
  171SAPE  H13Y19425   1.950   3.449   8.242  0.0135  1.0887 -2.2143
  171SAPE  C31419426   1.866   3.287   8.363 -0.5964  0.4627 -0.5153
  171SAPE  H14X19427   1.964   3.243   8.389 -0.7652  1.1012  1.2791
  171SAPE  H14Y19428   1.794   3.204   8.347  1.4733 -1.5315  0.2701
  171SAPE  C31519429   1.828   3.389   8.469  0.6287 -0.4469  0.2556
  171SAPE  H15X19430   1.720   3.412   8.456  0.1200 -1.6884  2.0068
  171SAPE  H15Y19431   1.872   3.488   8.444  2.2305 -1.3121 -0.4086
  171SAPE  C31619432   1.863   3.340   8.610 -0.0347  0.1356  0.3430
  171SAPE  H16X19433   1.844   3.429   8.673  0.7897  0.6051 -0.0687
  171SAPE  H16Y19434   1.973   3.322   8.616 -0.0967  0.5267  3.3285
  171SAPE  C31719435   1.779   3.225   8.666  0.3500 -0.3110 -0.9640
  171SAPE  H17X19436   1.793   3.147   8.588 -1.5855 -0.4874 -1.1639
  171SAPE  H17Y19437   1.670   3.245   8.668  0.2561 -0.4817 -3.2079
  171SAPE  C31819438   1.835   3.177   8.797  0.9335 -0.1570 -0.4704
  171SAPE  H18X19439   1.801   3.244   8.879  0.7509  0.5293 -1.1033
  171SAPE  H18Y19440   1.946   3.180   8.788  0.7784  0.5649 -2.3348
  171SAPE  H18Z19441   1.797   3.076   8.824  0.4358  0.4194  1.0703
  172SAPE     N19442   1.440   1.820   6.088  0.9370 -0.5423  0.1350
  172SAPE   HN119443   1.467   1.784   5.994 -0.0022 -0.9235  0.0014
  172SAPE   HN219444   1.481   1.760   6.162  0.7571 -0.1533  0.5545
  172SAPE   HN319445   1.336   1.810   6.087  0.7520  1.2093 -0.9296
  172SAPE   C1219446   1.486   1.961   6.110 -0.0280 -0.4195  0.1656
  172SAPE  H12A19447   1.437   2.003   6.200 -0.1241 -1.5314  0.6415
  172SAPE  H12B19448   1.462   2.021   6.019 -1.7562  2.1861  2.2636
  172SAPE   C1119449   1.642   1.965   6.106 -0.5538  0.3524 -0.1638
  172SAPE  H11A19450   1.679   2.069   6.105 -0.6953  0.4301  1.9022
  172SAPE  H11B19451   1.694   1.923   6.016  1.6747 -1.2960  1.8261
  172SAPE     P19452   1.853   1.891   6.256 -0.3308  0.0471 -0.4359
  172SAPE   O1319453   1.895   1.751   6.236 -0.2812  0.4359 -0.4759
  172SAPE   O1419454   1.926   1.999   6.186 -0.5990  0.1009  0.0994
  172SAPE   O1219455   1.699   1.898   6.221 -0.3606  0.2965  0.1063
  172SAPE   O1119456   1.859   1.914   6.415  0.4783  0.0361  0.3215
  172SAPE    C119457   1.806   2.036   6.470 -1.2545  0.0447 -0.5095
  172SAPE    HA19458   1.881   2.117   6.485 -2.1487  0.9808 -0.9609
  172SAPE    HB19459   1.746   2.096   6.397 -0.5434  0.2287 -0.9484
  172SAPE    C219460   1.708   2.006   6.586 -0.1855  1.0270  0.2958
  172SAPE    HS19461   1.654   2.099   6.614 -0.1768  0.8387  0.9454
  172SAPE   O2119462   1.772   1.944   6.703 -0.9358 -0.4183 -0.4918
  172SAPE   C2119463   1.864   2.019   6.767  0.7376 -0.4545  0.0078
  172SAPE   O2219464   1.885   2.135   6.736  0.1014 -1.0331 -0.4419
  172SAPE   C2219465   1.914   1.944   6.885 -0.1420 -0.3177 -0.4339
  172SAPE   H2R19466   1.828   1.928   6.954  0.0219 -0.5945 -0.2890
  172SAPE   H2S19467   1.954   1.855   6.831  0.2489 -0.5407  0.2085
  172SAPE    C319468   1.598   1.907   6.539  0.3172 -0.3777 -0.1596
  172SAPE    HX19469   1.651   1.812   6.559  1.9052  0.4840 -0.2028
  172SAPE    HY19470   1.571   1.912   6.431  0.5747  1.0429 -0.1592
  172SAPE   O3119471   1.481   1.924   6.620  0.2728 -0.7401  0.0123
  172SAPE   C3119472   1.406   1.816   6.639  0.2909  0.3318 -0.6506
  172SAPE   O3219473   1.443   1.704   6.602  0.4279 -0.0740 -0.2355
  172SAPE   C3219474   1.266   1.854   6.695  0.5556 -0.5101 -0.1361
  172SAPE   H2X19475   1.206   1.764   6.665  0.4183  0.0175 -1.4725
  172SAPE   H2Y19476   1.232   1.944   6.639  0.6591 -0.5374 -0.2418
  172SAPE   C2319477   2.038   2.006   6.952 -0.0580 -0.1618  0.3109
  172SAPE   H3R19478   2.015   2.109   6.985  0.0890 -0.2505  0.6895
  172SAPE   H3S19479   2.112   2.012   6.869  1.7707  1.1551  2.0029
  172SAPE   C2419480   2.100   1.922   7.069 -0.3736  0.8545 -0.6417
  172SAPE   H4R19481   2.206   1.951   7.086 -1.0423  3.2132 -0.4251
  172SAPE   H4S19482   2.099   1.815   7.036  1.8820  0.7697 -0.5655
  172SAPE   C2519483   2.016   1.915   7.192 -0.1306 -0.1096 -0.5339
  172SAPE   H5R19484   1.910   1.892   7.170 -0.9268  3.2216 -0.3694
  172SAPE   C2619485   2.064   1.947   7.315 -0.0512 -0.1417  1.0048
  172SAPE   H6R19486   1.999   1.923   7.400 -0.0203  0.0643  1.0862
  172SAPE   C2719487   2.200   1.995   7.354 -0.3346 -0.4664 -0.4816
  172SAPE   H7R19488   2.255   2.042   7.269 -0.2937  0.6759  0.1621
  172SAPE   H7S19489   2.255   1.901   7.377  1.3352  0.6120  0.0148
  172SAPE   C2819490   2.202   2.089   7.475  0.4710 -0.0677  0.0919
  172SAPE   H8R19491   2.199   2.196   7.455  0.6163 -0.1702 -0.4708
  172SAPE   C2919492   2.230   2.047   7.599  0.1150  0.4488 -0.4472
  172SAPE   H9R19493   2.224   2.119   7.682  1.3157 -1.3097  1.2235
  172SAPE  C21019494   2.260   1.915   7.661 -0.0798 -0.2448  0.0508
  172SAPE  H10R19495   2.331   1.917   7.747  0.8498  0.6846 -0.7237
  172SAPE  H10S19496   2.314   1.854   7.586  1.5464  0.3201  0.7494
  172SAPE  C21119497   2.137   1.843   7.706 -0.9136 -0.5697 -0.0963
  172SAPE  H11R19498   2.082   1.815   7.614 -1.3477  2.3832 -0.7908
  172SAPE  C21219499   2.091   1.808   7.827 -0.0061  0.4793  0.1274
  172SAPE  H12R19500   1.992   1.763   7.843  0.5974 -0.9895 -0.2532
  172SAPE  C21319501   2.175   1.834   7.947  0.1937 -0.9955  0.7351
  172SAPE  H13R19502   2.105   1.847   8.032 -0.4457 -0.6741  0.1666
  172SAPE  H13S19503   2.237   1.925   7.934 -0.5184 -0.4690  1.0397
  172SAPE  C21419504   2.254   1.713   7.972  0.5825 -0.5835  0.3119
  172SAPE  H14R19505   2.199   1.620   7.953  1.4945 -1.3259  1.2281
  172SAPE  C21519506   2.385   1.709   8.005  0.2041 -0.0442 -0.5608
  172SAPE  H15R19507   2.434   1.612   8.022 -0.2875  0.1903  2.3124
  172SAPE  C21619508   2.473   1.837   8.025 -0.4701  0.1928  0.0890
  172SAPE  H16R19509   2.470   1.899   7.933 -1.4467  1.6560  1.0801
  172SAPE  H16S19510   2.577   1.797   8.019 -0.4069  0.4700 -0.7388
  172SAPE  C21719511   2.440   1.921   8.148  0.0364 -0.2040 -0.0583
  172SAPE  H17R19512   2.344   1.976   8.136  0.5859  0.5196 -1.1621
  172SAPE  H17S19513   2.525   1.992   8.152  0.8013 -1.2044  1.9092
  172SAPE  C21819514   2.439   1.847   8.281  0.1264 -0.4097 -0.6222
  172SAPE  H18R19515   2.534   1.791   8.295 -0.1619 -0.4083  1.5741
  172SAPE  H18S19516   2.355   1.774   8.278 -0.5084  0.2271  1.0613
  172SAPE  C21919517   2.414   1.931   8.400 -0.9573  0.5694 -0.2364
  172SAPE  H19R19518   2.321   1.989   8.377 -0.1903  1.7949 -0.3120
  172SAPE  H19S19519   2.497   1.997   8.433  1.2980 -3.2704  2.0477
  172SAPE  C22019520   2.397   1.851   8.531 -0.4423 -0.0244 -1.1082
  172SAPE  H20R19521   2.338   1.908   8.606  1.4656 -0.8669  1.0864
  172SAPE  H20S19522   2.498   1.837   8.576 -1.7601 -1.8415  1.4068
  172SAPE  H20T19523   2.354   1.751   8.509 -2.0277  0.5636 -0.7463
  172SAPE   C3319524   1.259   1.890   6.847  0.9106 -0.5069 -0.1004
  172SAPE   H3X19525   1.316   1.982   6.873 -0.3007  0.2032  0.0830
  172SAPE   H3Y19526   1.316   1.813   6.903 -0.3989 -0.5095  1.2846
  172SAPE   C3419527   1.111   1.893   6.888 -0.7419  0.7421 -0.3739
  172SAPE   H4X19528   1.062   1.794   6.876 -0.4573  0.6444 -0.7277
  172SAPE   H4Y19529   1.054   1.964   6.826 -0.9829  1.4879  0.6793
  172SAPE   C3519530   1.094   1.937   7.030 -0.0783  0.2265 -0.2966
  172SAPE   H5X19531   1.102   1.857   7.107  0.1649 -0.8152 -1.3980
  172SAPE   H5Y19532   0.991   1.976   7.037  0.4383  1.6468 -0.4505
  172SAPE   C3619533   1.182   2.060   7.067 -0.4231 -0.4970 -0.3367
  172SAPE   H6X19534   1.172   2.131   6.982  2.6841 -0.6231 -0.8723
  172SAPE   H6Y19535   1.291   2.042   7.062 -0.5063 -0.7423 -1.3719
  172SAPE   C3719536   1.152   2.130   7.203  0.8695 -0.2984  0.1733
  172SAPE   H7X19537   1.041   2.138   7.211  0.7637 -0.7418 -0.7113
  172SAPE   H7Y19538   1.196   2.231   7.193 -0.3098  0.4701  2.4063
  172SAPE   C3819539   1.205   2.054   7.314 -0.1550  0.5431 -0.4397
  172SAPE   H8X19540   1.313   2.077   7.322  0.1911 -1.1102 -0.0111
  172SAPE   H8Y19541   1.180   1.945   7.311  0.5941  0.3405  0.2609
  172SAPE   C3919542   1.153   2.098   7.452 -0.6616 -0.3529  0.1812
  172SAPE   H9X19543   1.046   2.068   7.460 -0.6855 -0.3722 -0.1914
  172SAPE   H9Y19544   1.160   2.208   7.458  1.4174 -0.4438 -0.3901
  172SAPE  C31019545   1.231   2.034   7.571 -0.4039  0.0874 -0.0832
  172SAPE  H10X19546   1.337   2.043   7.540 -0.4709  0.9464 -0.0971
  172SAPE  H10Y19547   1.200   1.928   7.581 -0.0607 -0.2178 -2.0720
  172SAPE  C31119548   1.185   2.105   7.704 -0.1364  0.2111  0.0122
  172SAPE  H11X19549   1.079   2.073   7.716  0.0472 -0.4685 -0.1760
  172SAPE  H11Y19550   1.193   2.216   7.701  2.0646  0.0586 -0.4379
  172SAPE  C31219551   1.264   2.052   7.824 -0.1616 -0.1333  0.2334
  172SAPE  H12X19552   1.375   2.051   7.826 -0.1523 -1.1917 -0.3776
  172SAPE  H12Y19553   1.256   1.942   7.810  0.5361  0.0324 -1.7490
  172SAPE  C31319554   1.211   2.108   7.956  0.6974 -0.2267 -0.2071
  172SAPE  H13X19555   1.111   2.060   7.959 -0.6170  2.4393  0.8843
  172SAPE  H13Y19556   1.186   2.216   7.944  0.1095 -0.3724 -0.3046
  172SAPE  C31419557   1.299   2.071   8.079  0.6219  0.1735  0.4992
  172SAPE  H14X19558   1.335   1.967   8.061 -0.9800 -0.2299 -0.4920
  172SAPE  H14Y19559   1.242   2.081   8.173  2.0328  1.5391  1.2381
  172SAPE  C31519560   1.412   2.167   8.117  0.5919  0.2214  0.0127
  172SAPE  H15X19561   1.481   2.198   8.035  1.6335  0.0027  0.8006
  172SAPE  H15Y19562   1.478   2.133   8.200  1.0375  1.9165  0.3769
  172SAPE  C31619563   1.368   2.307   8.164 -0.0885 -0.0833 -0.8999
  172SAPE  H16X19564   1.308   2.355   8.084  1.3970  1.6677 -1.0056
  172SAPE  H16Y19565   1.454   2.372   8.191 -0.3506  0.1782 -0.6913
  172SAPE  C31719566   1.275   2.311   8.295 -0.0915 -0.1567 -0.2085
  172SAPE  H17X19567   1.322   2.245   8.371 -0.2971  0.1254  0.1626
  172SAPE  H17Y19568   1.180   2.280   8.248 -0.7810 -0.2021  1.1890
  172SAPE  C31819569   1.247   2.442   8.367 -0.0562 -0.6751 -0.2078
  172SAPE  H18X19570   1.331   2.476   8.431 -1.0435  0.3200  0.5685
  172SAPE  H18Y19571   1.172   2.412   8.443  1.1486 -1.3647  0.7410
  172SAPE  H18Z19572   1.218   2.530   8.306 -1.5672 -0.4626  0.8126
  173SOPE     N19573   3.207   6.484  11.271 -0.1285 -0.4620 -0.0468
  173SOPE   HN119574   3.288   6.530  11.225 -0.2780  2.2483  2.2922
  173SOPE   HN219575   3.248   6.465  11.364 -1.9235 -1.2237  0.6169
  173SOPE   HN319576   3.171   6.396  11.228 -1.4252  0.1269 -0.1926
  173SOPE   C1219577   3.094   6.586  11.285 -0.7275 -0.3141  0.3752
  173SOPE  H12A19578   3.129   6.680  11.334 -0.8091  0.2321 -0.5967
  173SOPE  H12B19579   3.020   6.542  11.355 -0.4900  1.5158  1.8030
  173SOPE   C1119580   3.032   6.622  11.153  0.2453 -0.4293 -0.4737
  173SOPE  H11A19581   3.110   6.672  11.091 -0.1987 -1.1247 -1.6197
  173SOPE  H11B19582   2.941   6.683  11.170  0.0344 -0.6034 -0.9675
  173SOPE     P19583   2.905   6.483  10.958 -0.2128  0.0956  0.2622
  173SOPE   O1319584   2.827   6.605  10.943  0.0381 -0.2844  0.5506
  173SOPE   O1419585   2.834   6.357  10.970  0.2263  0.3875 -0.4935
  173SOPE   O1219586   2.982   6.499  11.098 -0.0075 -0.1987 -0.2539
  173SOPE   O1119587   3.019   6.486  10.858 -0.1238  0.0610  0.5571
  173SOPE    C119588   3.120   6.380  10.842  0.7180 -0.3052 -0.0537
  173SOPE    HA19589   3.113   6.304  10.923  0.4156  1.9678  2.1272
  173SOPE    HB19590   3.219   6.427  10.857  1.0866 -0.1673 -2.7705
  173SOPE    C219591   3.105   6.298  10.714  0.3759  0.0737 -0.0233
  173SOPE    HS19592   3.175   6.350  10.645 -1.0093  0.7529 -0.9449
  173SOPE   O2119593   2.966   6.299  10.673 -0.1533 -0.2507  0.2605
  173SOPE   C2119594   2.929   6.403  10.598 -0.4693 -0.8739 -0.5401
  173SOPE   O2219595   3.008   6.488  10.559 -0.2667 -0.2644  0.0318
  173SOPE   C2219596   2.782   6.400  10.565  0.1401 -0.3711  0.0786
  173SOPE   H2R19597   2.716   6.420  10.652 -2.5485  0.3068 -2.0445
  173SOPE   H2S19598   2.758   6.297  10.532 -1.6044  0.3786 -1.0754
  173SOPE    C319599   3.153   6.150  10.731 -0.4996 -0.3901 -0.0392
  173SOPE    HX19600   3.092   6.090  10.802  4.0767 -0.9192  3.6874
  173SOPE    HY19601   3.251   6.141  10.782 -0.7393 -0.7790  0.3577
  173SOPE   O3119602   3.156   6.096  10.594  0.3426 -0.0858  0.0049
  173SOPE   C3119603   3.065   6.011  10.561 -0.2981 -0.7882 -0.2041
  173SOPE   O3219604   2.976   5.960  10.628 -0.1804 -0.0603  0.3953
  173SOPE   C3219605   3.066   6.007  10.417 -1.0030  0.0160  0.0481
  173SOPE   H2X19606   2.999   5.925  10.385  0.6048 -0.9845 -0.8286
  173SOPE   H2Y19607   3.163   5.971  10.377 -1.7919 -3.3265  1.0234
  173SOPE   C2319608   2.748   6.506  10.460  1.0666  0.5930  0.3526
  173SOPE   H3R19609   2.787   6.603  10.496  1.0604  0.0898  1.7670
  173SOPE   H3S19610   2.637   6.514  10.465  0.9767 -1.0729  1.3677
  173SOPE   C2419611   2.799   6.468  10.321  0.5242 -0.5873  0.4367
  173SOPE   H4R19612   2.906   6.500  10.325  0.2661  0.2334  0.9410
  173SOPE   H4S19613   2.794   6.358  10.308 -0.5301 -0.7407  2.0090
  173SOPE   C2519614   2.728   6.536  10.200  0.4808 -0.1908 -0.2547
  173SOPE   H5R19615   2.623   6.500  10.207  1.0889 -1.5885  2.2841
  173SOPE   H5S19616   2.723   6.646  10.205 -0.1732 -0.2514  0.6051
  173SOPE   C2619617   2.790   6.499  10.061 -0.3325  0.1203  0.1013
  173SOPE   H6R19618   2.884   6.559  10.061 -0.5582  0.4718 -0.2222
  173SOPE   H6S19619   2.816   6.391  10.069 -2.0928 -0.3368 -0.0961
  173SOPE   C2719620   2.706   6.533   9.939 -0.1801  0.3809 -0.2418
  173SOPE   H7R19621   2.599   6.514   9.957 -0.5976  4.2882  2.1506
  173SOPE   H7S19622   2.713   6.641   9.913 -0.7509  0.6241  0.6037
  173SOPE   C2819623   2.743   6.453   9.809 -0.2977  0.1568  0.9094
  173SOPE   H8R19624   2.758   6.347   9.839 -0.2848  0.1012  0.7055
  173SOPE   H8S19625   2.666   6.478   9.733  1.6577  1.2782 -0.7424
  173SOPE   C2919626   2.874   6.502   9.772  0.2045 -0.2284  0.1107
  173SOPE   H9119627   2.953   6.465   9.840  0.3737  1.2086  0.7194
  173SOPE  C21019628   2.915   6.554   9.658  0.4020 -0.4665  0.1838
  173SOPE  H10119629   3.016   6.597   9.657  0.8339 -1.4534 -1.5694
  173SOPE  C21119630   2.837   6.584   9.532  0.6748  0.1152  0.2499
  173SOPE  H11R19631   2.835   6.694   9.516 -0.1249 -0.2284 -2.2020
  173SOPE  H11S19632   2.732   6.546   9.533 -0.2382  2.4303  4.2249
  173SOPE  C21219633   2.893   6.531   9.400 -0.5175 -0.0032 -0.0882
  173SOPE  H12R19634   2.883   6.420   9.392  1.0332  0.0260 -3.0384
  173SOPE  H12S19635   3.001   6.551   9.392  0.0746 -3.1988 -1.1463
  173SOPE  C21319636   2.830   6.598   9.272  0.4443 -0.5460 -0.0968
  173SOPE  H13R19637   2.826   6.708   9.286 -1.4905 -0.7061  0.8495
  173SOPE  H13S19638   2.725   6.564   9.268 -0.8259  2.9412  1.6432
  173SOPE  C21419639   2.887   6.551   9.140  0.9104 -0.3830  0.5308
  173SOPE  H14R19640   2.822   6.468   9.106 -0.4296  0.3296  1.2870
  173SOPE  H14S19641   2.989   6.514   9.167 -0.0091 -1.9903  1.8768
  173SOPE  C21519642   2.899   6.668   9.039 -0.1734 -0.3707  0.0079
  173SOPE  H15R19643   2.945   6.757   9.085 -2.3086  0.2704  0.9649
  173SOPE  H15S19644   2.795   6.698   9.017 -0.0161 -0.7431 -1.3280
  173SOPE  C21619645   2.970   6.634   8.917 -0.3011  0.1324 -0.8911
  173SOPE  H16R19646   3.075   6.604   8.937  0.1308  2.2205  0.0732
  173SOPE  H16S19647   2.989   6.727   8.860  0.3155 -0.8990 -2.4015
  173SOPE  C21719648   2.886   6.556   8.819  0.6092 -0.1373 -0.0808
  173SOPE  H17R19649   2.793   6.609   8.788  0.1355 -0.9053  0.0184
  173SOPE  H17S19650   2.848   6.465   8.870  0.4010  0.5235  0.9498
  173SOPE  C21819651   2.966   6.507   8.693  0.7329  0.0950 -0.8388
  173SOPE  H18R19652   2.991   6.592   8.625  2.2039 -0.5980 -1.1710
  173SOPE  H18S19653   2.898   6.445   8.631 -0.1018  1.8260 -1.7092
  173SOPE  H18T19654   3.050   6.446   8.730 -1.5569 -1.7252  1.5824
  173SOPE   C3319655   3.029   6.137  10.348 -0.4270 -0.3889 -0.3760
  173SOPE   H3X19656   3.088   6.221  10.392 -0.0923 -0.2053 -1.1706
  173SOPE   H3Y19657   2.935   6.181  10.387  0.0812  2.3846 -2.0890
  173SOPE   C3419658   3.031   6.147  10.195 -0.3340  0.7242  0.4309
  173SOPE   H4X19659   2.978   6.242  10.173 -2.4117  0.1862  2.8341
  173SOPE   H4Y19660   2.977   6.061  10.149  1.0852  0.4226 -0.6977
  173SOPE   C3519661   3.170   6.150  10.135 -0.3763  0.1226 -0.6692
  173SOPE   H5X19662   3.218   6.053  10.110  4.1180  2.2620 -1.0420
  173SOPE   H5Y19663   3.243   6.196  10.205  1.0325  0.2947 -2.2064
  173SOPE   C3619664   3.164   6.241  10.005 -0.0028  0.0461 -0.1879
  173SOPE   H6X19665   3.266   6.262   9.968 -0.7536  2.4234 -0.9756
  173SOPE   H6Y19666   3.110   6.338  10.011 -1.5987 -0.8870  1.1038
  173SOPE   C3719667   3.095   6.174   9.883  0.2735  0.2354 -0.6311
  173SOPE   H7X19668   2.989   6.208   9.878  0.5762  1.3243  0.2884
  173SOPE   H7Y19669   3.098   6.063   9.879  0.4105  0.2326 -0.4355
  173SOPE   C3819670   3.171   6.229   9.760  0.0305 -0.3931  0.6188
  173SOPE   H8X19671   3.281   6.224   9.775 -0.1379 -1.4488  1.5589
  173SOPE   H8Y19672   3.135   6.334   9.747  0.7181  0.1303  2.7599
  173SOPE   C3919673   3.152   6.155   9.630  0.0946 -0.6946  0.3403
  173SOPE   H9X19674   3.177   6.047   9.635 -0.9777 -0.8981  1.7432
  173SOPE   H9Y19675   3.237   6.187   9.566  0.5593  1.2599  1.8870
  173SOPE  C31019676   3.014   6.173   9.565  0.7987  0.1970 -0.1162
  173SOPE  H10X19677   2.992   6.276   9.532  1.2837 -0.2014 -1.7348
  173SOPE  H10Y19678   2.939   6.140   9.640 -0.5021  1.0607 -1.0160
  173SOPE  C31119679   2.995   6.076   9.446 -0.3488  0.3619 -0.1370
  173SOPE  H11X19680   2.894   6.103   9.409 -1.0059 -0.4442  1.0064
  173SOPE  H11Y19681   2.988   5.970   9.482  1.9007 -0.2302 -1.3629
  173SOPE  C31219682   3.097   6.095   9.331 -1.1773 -0.3903 -0.2514
  173SOPE  H12X19683   3.176   6.020   9.352 -1.7104  0.0518  3.7482
  173SOPE  H12Y19684   3.139   6.197   9.345 -1.5710  0.1068 -2.4461
  173SOPE  C31319685   3.043   6.063   9.199 -0.0549 -0.1203 -0.0291
  173SOPE  H13X19686   2.958   6.123   9.161 -0.3396 -2.5980 -3.4682
  173SOPE  H13Y19687   3.002   5.960   9.194 -0.6074  0.0691  0.5750
  173SOPE  C31419688   3.155   6.069   9.091  0.0227 -0.1925  0.2052
  173SOPE  H14X19689   3.229   5.991   9.121 -0.9388 -1.3125 -0.2638
  173SOPE  H14Y19690   3.206   6.167   9.097 -0.9516  0.4331 -1.1867
  173SOPE  C31519691   3.104   6.066   8.943 -0.2060 -0.0953 -0.1579
  173SOPE  H15X19692   3.056   6.165   8.929 -1.9081 -0.4088  2.9428
  173SOPE  H15Y19693   3.026   5.988   8.928  0.2881 -0.5637 -0.3001
  173SOPE  C31619694   3.213   6.032   8.842 -0.6400  0.1900  0.5135
  173SOPE  H16X19695   3.180   6.037   8.736  0.3989 -1.4127  0.0946
  173SOPE  H16Y19696   3.252   5.929   8.852 -1.6853 -0.3327 -0.6600
  173SOPE  C31719697   3.332   6.127   8.850 -0.3989  0.2044  0.2496
  173SOPE  H17X19698   3.418   6.077   8.802 -1.8508 -1.2250 -0.9170
  173SOPE  H17Y19699   3.365   6.156   8.953 -0.9998  0.9736  0.2360
  173SOPE  C31819700   3.307   6.260   8.770  0.3088 -0.4816 -0.3985
  173SOPE  H18X19701   3.410   6.294   8.746  1.1579 -1.8614  1.1707
  173SOPE  H18Y19702   3.253   6.329   8.838 -2.2721 -1.0013 -1.8884
  173SOPE  H18Z19703   3.237   6.252   8.684 -0.0817 -2.2403  0.0562
  174SOPE     N19704   2.285   5.366  11.039 -0.3877  0.0043  0.0337
  174SOPE   HN119705   2.248   5.332  11.130 -2.4387 -1.8441 -1.4479
  174SOPE   HN219706   2.323   5.462  11.053 -0.5075  0.0279  0.2031
  174SOPE   HN319707   2.203   5.355  10.976 -0.7072  0.9597  0.2785
  174SOPE   C1219708   2.384   5.261  10.995  0.2685  0.0853 -0.6447
  174SOPE  H12A19709   2.465   5.252  11.071  0.2423  1.2134 -0.4746
  174SOPE  H12B19710   2.417   5.301  10.897  2.5379  0.0446  0.0658
  174SOPE   C1119711   2.314   5.120  10.979 -0.1996 -0.7356  0.5441
  174SOPE  H11A19712   2.298   5.085  11.083  0.3607  1.5544  1.4328
  174SOPE  H11B19713   2.376   5.045  10.925  0.0355  0.4896 -0.9128
  174SOPE     P19714   2.094   5.006  10.914  0.2271  0.1642  0.2618
  174SOPE   O1319715   1.973   5.045  10.985  0.0210  0.3955  0.0610
  174SOPE   O1419716   2.166   4.879  10.951  0.0134  0.0347  0.2113
  174SOPE   O1219717   2.189   5.133  10.914 -0.2304  0.3086  0.0243
  174SOPE   O1119718   2.050   4.998  10.762  0.1452  0.2667 -0.8128
  174SOPE    C119719   2.052   5.106  10.660  1.2294  0.3009 -0.6363
  174SOPE    HA19720   2.032   5.200  10.715 -2.8841 -0.6027 -0.4346
  174SOPE    HB19721   1.962   5.095  10.595 -0.3635  0.6072  1.4733
  174SOPE    C219722   2.193   5.107  10.593  0.1886 -0.8136  0.1978
  174SOPE    HS19723   2.277   5.110  10.665  0.2778  0.0505  0.0681
  174SOPE   O2119724   2.199   5.225  10.503  0.0990  0.4497 -0.0350
  174SOPE   C2119725   2.320   5.271  10.481  0.2912  0.9745 -0.0666
  174SOPE   O2219726   2.428   5.229  10.524 -0.2230  0.3115 -0.1051
  174SOPE   C2219727   2.307   5.374  10.361  0.4401  0.8026 -0.4275
  174SOPE   H2R19728   2.373   5.458  10.390 -1.1651  1.7095  0.7024
  174SOPE   H2S19729   2.201   5.407  10.366 -0.2285 -1.5183  2.3521
  174SOPE    C319730   2.212   4.965  10.524  0.2657  0.7024 -0.2862
  174SOPE    HX19731   2.132   4.953  10.448  1.3736 -3.7417 -0.8763
  174SOPE    HY19732   2.198   4.892  10.606  2.0917  0.5264 -0.1072
  174SOPE   O3119733   2.341   4.948  10.462 -0.1630  0.1400 -0.1547
  174SOPE   C3119734   2.433   4.878  10.527  0.4484  0.0902  0.4589
  174SOPE   O3219735   2.409   4.810  10.630 -0.1076  0.0376 -0.0683
  174SOPE   C3219736   2.576   4.895  10.471  0.4511  0.0151  0.6009
  174SOPE   H2X19737   2.618   4.796  10.445 -2.3424 -0.1260 -3.7448
  174SOPE   H2Y19738   2.624   4.943  10.559 -0.7703  1.0086  0.7468
  174SOPE   C2319739   2.348   5.320  10.220 -0.0973 -0.2547 -0.0257
  174SOPE   H3R19740   2.292   5.226  10.201 -1.4409  1.1883 -3.6594
  174SOPE   H3S19741   2.458   5.316  10.226 -0.1430 -1.3187  0.1988
  174SOPE   C2419742   2.290   5.403  10.102 -0.2214  0.4398  0.0003
  174SOPE   H4R19743   2.181   5.392  10.087 -0.4643  2.3021  0.2067
  174SOPE   H4S19744   2.305   5.511  10.125  0.5887  0.6435 -1.4452
  174SOPE   C2519745   2.366   5.367   9.967  0.0672 -0.0748  0.2804
  174SOPE   H5R19746   2.472   5.399   9.978  0.3792 -0.4341 -1.5335
  174SOPE   H5S19747   2.371   5.256   9.963 -0.1477 -0.0040 -2.3076
  174SOPE   C2619748   2.316   5.443   9.851  1.0779  0.1505  0.1367
  174SOPE   H6R19749   2.206   5.432   9.839  1.5637 -2.8473 -2.2685
  174SOPE   H6S19750   2.342   5.549   9.873  2.4141 -0.2009  0.3164
  174SOPE   C2719751   2.380   5.404   9.721 -0.2491  0.0490 -0.4564
  174SOPE   H7R19752   2.458   5.325   9.729 -1.2084 -0.6595  2.4974
  174SOPE   H7S19753   2.309   5.358   9.649  2.5878 -3.1995 -1.3025
  174SOPE   C2819754   2.442   5.525   9.639  1.3551 -0.3094  0.2762
  174SOPE   H8R19755   2.360   5.599   9.630  0.6491 -1.1228 -0.0696
  174SOPE   H8S19756   2.515   5.571   9.709  0.0123 -0.8152  2.0525
  174SOPE   C2919757   2.478   5.479   9.498 -0.9386  0.2816 -0.5356
  174SOPE   H9119758   2.554   5.400   9.499 -1.2295 -0.0030  1.6201
  174SOPE  C21019759   2.424   5.532   9.383  0.6717 -0.1639  0.1681
  174SOPE  H10119760   2.472   5.501   9.288  2.0196  1.3285  0.3369
  174SOPE  C21119761   2.320   5.634   9.355  0.7233 -0.4920 -0.4532
  174SOPE  H11R19762   2.321   5.694   9.448  0.3424 -0.3881 -0.5135
  174SOPE  H11S19763   2.220   5.588   9.342  0.1245  0.8804 -0.7914
  174SOPE  C21219764   2.358   5.721   9.235  0.5488  0.0523 -0.4798
  174SOPE  H12R19765   2.463   5.756   9.225  0.7546 -0.5147 -0.2922
  174SOPE  H12S19766   2.308   5.820   9.247  0.6960  0.0922 -0.1776
  174SOPE  C21319767   2.322   5.659   9.103  0.5043 -0.1513 -0.7079
  174SOPE  H13R19768   2.211   5.644   9.104  0.3727  0.5395 -2.9454
  174SOPE  H13S19769   2.366   5.557   9.093  1.6591  0.3516 -0.7939
  174SOPE  C21419770   2.361   5.743   8.992 -0.0089 -0.1164 -0.8541
  174SOPE  H14R19771   2.456   5.794   9.021 -0.3312 -0.9963  1.9822
  174SOPE  H14S19772   2.287   5.826   8.985 -0.7026 -0.6705 -0.1963
  174SOPE  C21519773   2.356   5.673   8.861  0.1488  0.8066  0.8806
  174SOPE  H15R19774   2.445   5.607   8.850 -2.3466 -2.4244 -1.0000
  174SOPE  H15S19775   2.374   5.755   8.789 -2.1881  0.2204 -0.4265
  174SOPE  C21619776   2.214   5.621   8.836  0.4105  0.3766 -1.0734
  174SOPE  H16R19777   2.148   5.699   8.880  0.6904  0.2462 -0.4094
  174SOPE  H16S19778   2.196   5.531   8.898  0.7362  2.0565  1.5845
  174SOPE  C21719779   2.179   5.602   8.691 -0.8141  0.9231  0.0458
  174SOPE  H17R19780   2.265   5.558   8.636 -2.0529 -0.9968 -0.4055
  174SOPE  H17S19781   2.163   5.700   8.641 -0.7285 -0.7298 -3.3704
  174SOPE  C21819782   2.066   5.507   8.657  0.0600 -0.2755  0.4456
  174SOPE  H18R19783   2.102   5.402   8.654 -0.5336 -0.4600 -0.6393
  174SOPE  H18S19784   2.033   5.543   8.557 -0.5260 -0.8066  0.4444
  174SOPE  H18T19785   1.983   5.518   8.729 -1.3332 -0.0000 -1.1667
  174SOPE   C3319786   2.573   4.988  10.349 -0.2314  0.5333  0.6375
  174SOPE   H3X19787   2.519   5.083  10.368 -0.4122  0.6404 -0.3732
  174SOPE   H3Y19788   2.515   4.952  10.262  1.5133  0.4813 -0.5306
  174SOPE   C3419789   2.725   5.010  10.311 -0.5415 -0.1642 -0.5819
  174SOPE   H4X19790   2.773   4.910  10.309  1.1888  0.6656 -2.5147
  174SOPE   H4Y19791   2.787   5.069  10.382  0.2772 -0.2720 -1.1885
  174SOPE   C3519792   2.751   5.101  10.186 -0.0951  0.1846 -0.5284
  174SOPE   H5X19793   2.860   5.119  10.173  0.0781  0.9979  1.8057
  174SOPE   H5Y19794   2.715   5.201  10.218 -1.9052 -0.6857  0.2062
  174SOPE   C3619795   2.699   5.050  10.049  0.2129  0.0887  0.5193
  174SOPE   H6X19796   2.588   5.054  10.046  0.2637  0.5724 -1.3868
  174SOPE   H6Y19797   2.721   4.942  10.035  0.8998  0.4771 -1.6049
  174SOPE   C3719798   2.764   5.103   9.914  0.1048 -0.1493 -0.7568
  174SOPE   H7X19799   2.861   5.050   9.902 -0.0073  0.2154 -3.6911
  174SOPE   H7Y19800   2.773   5.213   9.924 -0.9217 -0.0654 -0.6394
  174SOPE   C3819801   2.677   5.050   9.792 -0.3410  0.3081 -0.0467
  174SOPE   H8X19802   2.576   5.094   9.807 -0.6975 -0.6460  0.4422
  174SOPE   H8Y19803   2.671   4.939   9.785 -1.5232  0.4316 -1.0004
  174SOPE   C3919804   2.741   5.101   9.666 -0.3751  0.3891  0.0664
  174SOPE   H9X19805   2.829   5.041   9.633 -0.4157  0.3963 -0.0531
  174SOPE   H9Y19806   2.765   5.210   9.664  1.1085  0.0681 -0.2522
  174SOPE  C31019807   2.650   5.095   9.545 -1.1512 -0.1820 -0.1250
  174SOPE  H10X19808   2.567   5.166   9.565 -0.6783  0.4734 -0.4282
  174SOPE  H10Y19809   2.597   4.999   9.532 -0.6869 -0.4839  0.1918
  174SOPE  C31119810   2.722   5.130   9.417  1.3460  0.0589  0.1225
  174SOPE  H11X19811   2.803   5.060   9.386  0.9135  0.2833 -1.5982
  174SOPE  H11Y19812   2.757   5.235   9.423  1.8191  0.0006 -1.3158
  174SOPE  C31219813   2.615   5.123   9.301 -0.2255  0.7365  0.0790
  174SOPE  H12X19814   2.524   5.172   9.340  0.3951 -0.2180  2.8885
  174SOPE  H12Y19815   2.582   5.018   9.281  1.2210  0.2724  0.0873
  174SOPE  C31319816   2.664   5.183   9.163  0.7733 -0.1052  0.0799
  174SOPE  H13X19817   2.590   5.154   9.085  2.5662 -1.2219 -1.2292
  174SOPE  H13Y19818   2.765   5.137   9.156  1.5288  1.6942 -1.4471
  174SOPE  C31419819   2.676   5.340   9.164  0.6471 -0.1869 -0.0312
  174SOPE  H14X19820   2.744   5.372   9.247 -0.4341  1.0035  0.4076
  174SOPE  H14Y19821   2.576   5.386   9.176 -0.4256 -1.9044 -2.0128
  174SOPE  C31519822   2.733   5.406   9.030 -0.2497  0.4294  0.2594
  174SOPE  H15X19823   2.669   5.363   8.950 -0.1740  2.6954 -1.0679
  174SOPE  H15Y19824   2.834   5.363   9.012  1.0084  2.4241  2.2553
  174SOPE  C31619825   2.735   5.556   9.039 -0.1189 -0.4542  0.1399
  174SOPE  H16X19826   2.786   5.579   9.135 -1.0943 -2.5720  1.1860
  174SOPE  H16Y19827   2.634   5.601   9.048  0.7424  1.5579  0.0701
  174SOPE  C31719828   2.813   5.627   8.928 -0.3303 -0.1752 -0.5541
  174SOPE  H17X19829   2.769   5.624   8.827  0.4581 -1.1988 -0.8801
  174SOPE  H17Y19830   2.910   5.577   8.906 -0.8493 -1.2696 -0.4124
  174SOPE  C31819831   2.850   5.764   8.974 -0.1039 -0.5694  0.5390
  174SOPE  H18X19832   2.902   5.813   8.889 -0.0780 -0.1231  0.8102
  174SOPE  H18Y19833   2.919   5.758   9.060  1.4255 -1.0612 -0.6988
  174SOPE  H18Z19834   2.765   5.829   9.004 -0.7572 -1.1983  0.0732
  175SOPE     N19835   4.983   0.572  10.622  0.0272 -0.2024  0.4136
  175SOPE   HN119836   5.001   0.608  10.718  0.9685  0.6119 -0.0518
  175SOPE   HN219837   4.955   0.472  10.628  0.2242 -0.2833 -0.0193
  175SOPE   HN319838   5.075   0.570  10.573 -1.6569 -1.1593 -2.8488
  175SOPE   C1219839   4.886   0.663  10.543  1.0712  0.4196 -0.4122
  175SOPE  H12A19840   4.909   0.644  10.436 -0.4565 -4.3284 -0.0080
  175SOPE  H12B19841   4.920   0.767  10.562  0.3720  0.9918 -2.2081
  175SOPE   C1119842   4.744   0.645  10.595  0.4383 -0.1752 -0.2536
  175SOPE  H11A19843   4.681   0.726  10.555 -1.9523 -0.7889  2.1124
  175SOPE  H11B19844   4.736   0.653  10.706 -0.5524 -1.0337 -0.2539
  175SOPE     P19845   4.549   0.459  10.608  0.1831  0.2132  0.2191
  175SOPE   O1319846   4.509   0.531  10.730  0.0142  0.1608  0.1136
  175SOPE   O1419847   4.564   0.312  10.615  0.3139  0.6134 -0.7645
  175SOPE   O1219848   4.683   0.523  10.548 -0.0487  0.2525 -0.9352
  175SOPE   O1119849   4.441   0.492  10.495 -0.3148 -0.1990 -0.6497
  175SOPE    C119850   4.401   0.628  10.484  0.2082  0.1010 -0.2883
  175SOPE    HA19851   4.456   0.702  10.546  0.6884 -0.8981  0.4747
  175SOPE    HB19852   4.297   0.625  10.521  0.6118 -2.2356  0.7077
  175SOPE    C219853   4.395   0.671  10.335 -0.3155 -0.1780 -0.2824
  175SOPE    HS19854   4.366   0.778  10.331  0.3799  0.0563  0.8010
  175SOPE   O2119855   4.303   0.585  10.270 -0.4517  0.3291 -0.1049
  175SOPE   C2119856   4.168   0.626  10.264 -0.2406 -0.2655 -0.0036
  175SOPE   O2219857   4.129   0.735  10.303 -0.2028 -0.2867  0.0079
  175SOPE   C2219858   4.077   0.515  10.225  0.9465 -0.0896 -0.1749
  175SOPE   H2R19859   4.092   0.427  10.291  0.2085  0.2513  0.4532
  175SOPE   H2S19860   4.121   0.488  10.126 -0.1913 -1.8331 -0.2166
  175SOPE    C319861   4.531   0.651  10.269  0.0775  0.0514  0.0081
  175SOPE    HX19862   4.551   0.544  10.250  1.8386  0.3647 -0.0360
  175SOPE    HY19863   4.613   0.686  10.336  1.1497  1.4208 -1.9764
  175SOPE   O3119864   4.533   0.730  10.143 -0.9525  0.1614 -0.1794
  175SOPE   C3119865   4.489   0.665  10.039 -0.1896  0.3339 -0.2649
  175SOPE   O3219866   4.440   0.553  10.041  0.0239  0.3561  0.1278
  175SOPE   C3219867   4.514   0.755   9.914 -0.8384  0.5976  0.2894
  175SOPE   H2X19868   4.594   0.830   9.932  0.9999 -1.1461 -0.3650
  175SOPE   H2Y19869   4.421   0.814   9.899  0.5350  2.2100 -2.1914
  175SOPE   C2319870   3.929   0.553  10.237  0.1085 -0.1918 -0.2888
  175SOPE   H3R19871   3.902   0.592  10.337 -0.8682 -2.8012  0.5180
  175SOPE   H3S19872   3.867   0.462  10.219  0.2160  0.2110 -2.8767
  175SOPE   C2419873   3.875   0.645  10.124 -0.0293 -0.0315 -0.6231
  175SOPE   H4R19874   3.765   0.660  10.133 -0.0802  0.1005 -1.3728
  175SOPE   H4S19875   3.922   0.743  10.146 -0.4912 -0.1314  0.8451
  175SOPE   C2519876   3.902   0.587   9.983  0.1291 -0.2356  0.1758
  175SOPE   H5R19877   4.012   0.588   9.963  0.0030  2.6491 -0.6205
  175SOPE   H5S19878   3.852   0.489   9.974  0.0727 -0.4086  2.1602
  175SOPE   C2619879   3.837   0.675   9.869 -0.0511 -0.3737 -0.0890
  175SOPE   H6R19880   3.726   0.678   9.880  0.0789  2.0068  0.7275
  175SOPE   H6S19881   3.872   0.779   9.887  1.6002 -1.2999  2.3263
  175SOPE   C2719882   3.878   0.626   9.729 -0.3141  0.5654 -0.7658
  175SOPE   H7R19883   3.952   0.547   9.756 -0.9981 -0.0805 -0.7661
  175SOPE   H7S19884   3.787   0.568   9.704  0.7781 -1.2474 -0.6298
  175SOPE   C2819885   3.923   0.729   9.623  0.3616  0.7545 -0.2708
  175SOPE   H8R19886   3.920   0.678   9.525  0.6247 -1.9253  1.0921
  175SOPE   H8S19887   3.847   0.811   9.620 -1.2097 -0.6158  1.1008
  175SOPE   C2919888   4.061   0.783   9.647  0.0159  0.1436 -0.3759
  175SOPE   H9119889   4.088   0.776   9.754  0.3141  0.6143 -0.4198
  175SOPE  C21019890   4.148   0.819   9.554  0.2191 -0.3716  0.1795
  175SOPE  H10119891   4.250   0.851   9.580  0.4740 -0.5981 -0.5307
  175SOPE  C21119892   4.109   0.815   9.411 -0.4044  0.1968 -0.6997
  175SOPE  H11R19893   4.022   0.761   9.366  0.1820 -1.3602 -0.0097
  175SOPE  H11S19894   4.196   0.781   9.351 -0.3103  2.1667 -1.6943
  175SOPE  C21219895   4.095   0.969   9.374 -0.5546 -0.2736 -0.6574
  175SOPE  H12R19896   4.184   1.028   9.405 -1.7529  0.3627  1.6717
  175SOPE  H12S19897   4.009   1.009   9.431 -0.8019  0.1162 -1.3020
  175SOPE  C21319898   4.088   0.986   9.221  0.4105 -0.5577  0.1694
  175SOPE  H13R19899   4.097   1.095   9.200 -0.5746 -0.3514  0.7869
  175SOPE  H13S19900   3.983   0.962   9.192  0.1041  0.1923  0.6402
  175SOPE  C21419901   4.184   0.909   9.135  0.6508  0.4355  0.2371
  175SOPE  H14R19902   4.175   0.799   9.146  0.5189  0.3189 -0.9864
  175SOPE  H14S19903   4.289   0.929   9.164  0.3821  0.1668  1.4105
  175SOPE  C21519904   4.166   0.928   8.984 -1.0615 -0.5637  0.2441
  175SOPE  H15R19905   4.170   1.037   8.962  2.0543 -0.2719  1.9992
  175SOPE  H15S19906   4.059   0.897   8.976 -1.4434  0.3589  1.4858
  175SOPE  C21619907   4.262   0.844   8.907  0.5516 -0.7583  0.3892
  175SOPE  H16R19908   4.248   0.735   8.924 -4.1428 -0.3359 -0.0452
  175SOPE  H16S19909   4.363   0.862   8.950  0.3804 -0.9753  0.8879
  175SOPE  C21719910   4.251   0.878   8.761 -0.3434 -0.1224 -0.5393
  175SOPE  H17R19911   4.212   0.980   8.742 -0.0857  0.2744  1.0096
  175SOPE  H17S19912   4.167   0.820   8.717 -2.1393 -0.1434  2.7058
  175SOPE  C21819913   4.369   0.824   8.680 -0.5313  0.0215 -0.0899
  175SOPE  H18R19914   4.446   0.903   8.687 -0.1598 -0.2705 -0.7876
  175SOPE  H18S19915   4.345   0.811   8.572  1.2025 -2.5473 -0.2343
  175SOPE  H18T19916   4.405   0.728   8.725 -2.5131 -0.4011  0.6405
  175SOPE   C3319917   4.531   0.689   9.773  0.1087 -0.8847 -0.3440
  175SOPE   H3X19918   4.464   0.605   9.747 -0.9358 -0.2138  0.1594
  175SOPE   H3Y19919   4.631   0.639   9.768  1.2187  0.9419  2.3255
  175SOPE   C3419920   4.519   0.804   9.671 -0.0480 -0.0014 -0.6149
  175SOPE   H4X19921   4.603   0.874   9.689 -0.4837  0.2697  0.3821
  175SOPE   H4Y19922   4.415   0.842   9.679  0.2092  0.5184  0.3780
  175SOPE   C3519923   4.531   0.755   9.521  0.3937 -0.2767 -0.6555
  175SOPE   H5X19924   4.436   0.707   9.489 -0.5207  0.1533  1.3570
  175SOPE   H5Y19925   4.621   0.692   9.506 -0.2071 -1.1774 -0.5232
  175SOPE   C3619926   4.535   0.876   9.425 -0.3795  0.0592 -0.6265
  175SOPE   H6X19927   4.623   0.937   9.456 -1.8893  1.2540  1.3832
  175SOPE   H6Y19928   4.447   0.941   9.445 -0.4847 -0.0933 -0.5937
  175SOPE   C3719929   4.547   0.839   9.276  0.0044  0.3860  0.1840
  175SOPE   H7X19930   4.530   0.928   9.211 -1.4193  0.5383  0.7442
  175SOPE   H7Y19931   4.469   0.764   9.250 -0.0024 -0.0735  1.4700
  175SOPE   C3819932   4.680   0.780   9.252  0.0773  0.0077  0.6791
  175SOPE   H8X19933   4.694   0.683   9.303 -2.0127 -1.0393 -0.6689
  175SOPE   H8Y19934   4.763   0.848   9.284 -0.3969  0.9853 -0.1476
  175SOPE   C3919935   4.706   0.764   9.099  0.4091  0.1297  0.6623
  175SOPE   H9X19936   4.813   0.740   9.085  0.7505  2.3848 -0.8806
  175SOPE   H9Y19937   4.691   0.864   9.053  1.1632 -0.8268 -1.7018
  175SOPE  C31019938   4.607   0.670   9.025  0.6923 -0.3723  0.4164
  175SOPE  H10X19939   4.501   0.703   9.030  0.9587  0.3557  1.5878
  175SOPE  H10Y19940   4.612   0.579   9.088 -1.7656  1.4069  3.3620
  175SOPE  C31119941   4.641   0.651   8.879 -0.0546 -0.0210 -0.4935
  175SOPE  H11X19942   4.628   0.746   8.822 -3.0328 -0.6088 -0.8746
  175SOPE  H11Y19943   4.573   0.575   8.836  0.3456  0.2924 -1.7294
  175SOPE  C31219944   4.788   0.611   8.845 -0.2293  0.6315  0.4802
  175SOPE  H12X19945   4.817   0.514   8.890  1.2787  0.8296 -0.0453
  175SOPE  H12Y19946   4.854   0.685   8.893  0.4729  0.3115  0.0161
  175SOPE  C31319947   4.819   0.596   8.701  0.4334 -0.8240  0.1884
  175SOPE  H13X19948   4.821   0.700   8.663  2.0370  0.6678  4.0404
  175SOPE  H13Y19949   4.752   0.533   8.639 -0.5170  0.1517  0.2032
  175SOPE  C31419950   4.952   0.536   8.678 -0.7193  0.6644  0.8702
  175SOPE  H14X19951   4.967   0.459   8.757 -0.1658 -0.2757 -0.1342
  175SOPE  H14Y19952   5.028   0.614   8.699 -1.3047  0.9208  2.0888
  175SOPE  C31519953   4.972   0.475   8.537 -0.3842  0.7285  0.4333
  175SOPE  H15X19954   4.940   0.549   8.462 -0.9911  0.9748  0.9309
  175SOPE  H15Y19955   4.900   0.391   8.529 -0.8419  0.9369  2.1506
  175SOPE  C31619956   5.109   0.415   8.518  0.5153 -0.8068 -0.4784
  175SOPE  H16X19957   5.119   0.338   8.598 -0.3888 -0.8885 -0.4362
  175SOPE  H16Y19958   5.180   0.500   8.526  1.1369 -1.2111 -1.7164
  175SOPE  C31719959   5.129   0.348   8.388  0.4885 -0.5475 -0.1062
  175SOPE  H17X19960   5.230   0.352   8.343  0.6453 -3.0860 -0.0479
  175SOPE  H17Y19961   5.074   0.410   8.314  1.1336  1.6365  1.1735
  175SOPE  C31819962   5.082   0.202   8.379 -0.1553 -0.1381 -0.3777
  175SOPE  H18X19963   5.168   0.133   8.388 -1.2989 -1.3546  1.4202
  175SOPE  H18Y19964   5.027   0.189   8.284 -1.7895 -2.0905  0.8012
  175SOPE  H18Z19965   5.016   0.168   8.461 -0.6353 -0.6904 -0.9829
  176SOPE     N19966   4.390   6.365  11.219 -0.0408  0.2418  0.2125
  176SOPE   HN119967   4.471   6.426  11.192 -0.4425  0.3998 -0.6398
  176SOPE   HN219968   4.408   6.346  11.319 -3.0916 -1.0871  0.5332
  176SOPE   HN319969   4.397   6.277  11.164  2.3035 -1.1927  2.6509
  176SOPE   C1219970   4.243   6.420  11.213 -0.1937 -0.0893 -0.4571
  176SOPE  H12A19971   4.244   6.499  11.292 -1.2517  1.2190 -1.7267
  176SOPE  H12B19972   4.175   6.342  11.256 -1.9595  1.9953  0.6460
  176SOPE   C1119973   4.201   6.456  11.072  0.1595  0.8391 -0.7392
  176SOPE  H11A19974   4.093   6.481  11.070  0.0004  0.0790 -1.8744
  176SOPE  H11B19975   4.211   6.365  11.009  0.5488 -1.0764  1.9639
  176SOPE     P19976   4.240   6.699  10.970 -0.0789  0.1075 -0.2334
  176SOPE   O1319977   4.346   6.778  10.909  0.4153 -0.8966  0.2052
  176SOPE   O1419978   4.161   6.767  11.077  0.2536 -0.5227  0.0837
  176SOPE   O1219979   4.289   6.559  11.025 -0.4835 -1.0756  0.0371
  176SOPE   O1119980   4.140   6.653  10.856  0.4121  0.0458 -0.0314
  176SOPE    C119981   4.149   6.537  10.778  0.1388  0.2764  0.0308
  176SOPE    HA19982   4.068   6.468  10.810 -0.6875  1.3628  0.2944
  176SOPE    HB19983   4.249   6.488  10.786  0.7298  1.1173 -1.9437
  176SOPE    C219984   4.126   6.572  10.626 -0.1236 -0.1941 -1.3386
  176SOPE    HS19985   4.130   6.481  10.562 -1.6984  0.8567 -2.9710
  176SOPE   O2119986   4.230   6.668  10.584 -0.2713  0.3933  0.6508
  176SOPE   C2119987   4.339   6.611  10.530  0.2886 -0.3604  1.0703
  176SOPE   O2219988   4.373   6.493  10.542 -0.2671  0.8261 -0.0952
  176SOPE   C2219989   4.419   6.716  10.453 -0.0004  0.1752 -0.2080
  176SOPE   H2R19990   4.501   6.745  10.523 -0.4799 -1.2660  0.9814
  176SOPE   H2S19991   4.363   6.812  10.442 -0.3486 -0.0622 -0.5159
  176SOPE    C319992   3.983   6.636  10.604 -0.2552 -0.2153  0.1618
  176SOPE    HX19993   3.967   6.734  10.654 -0.2539 -0.0629 -0.1327
  176SOPE    HY19994   3.902   6.572  10.644  0.5356  0.3032  2.6453
  176SOPE   O3119995   3.963   6.648  10.465 -0.8479 -0.2087  0.0344
  176SOPE   C3119996   4.014   6.752  10.397 -0.2686 -0.3183  0.4005
  176SOPE   O3219997   4.047   6.857  10.450 -0.0451 -0.3115 -0.5898
  176SOPE   C3219998   4.001   6.738  10.242 -0.0107 -0.7438  0.2478
  176SOPE   H2X19999   3.895   6.719  10.219 -0.3635  1.0188  0.3435
  176SOPE   H2Y20000   4.063   6.653  10.206 -1.7249 -3.1313  2.7484
  176SOPE   C2320001   4.471   6.662  10.321 -0.4346 -0.4620 -0.5410
  176SOPE   H3R20002   4.506   6.557  10.335 -4.3245 -1.5636  1.5168
  176SOPE   H3S20003   4.565   6.715  10.296 -1.4305  0.9267 -1.4421
  176SOPE   C2420004   4.383   6.664  10.199 -0.2296  0.1953 -0.0207
  176SOPE   H4R20005   4.350   6.561  10.172  0.0797  0.1570 -0.2498
  176SOPE   H4S20006   4.300   6.730  10.232  0.0576 -0.0176  1.1602
  176SOPE   C2520007   4.445   6.737  10.065  0.0036 -0.1860 -0.9901
  176SOPE   H5R20008   4.502   6.832  10.075 -0.9116  0.3656 -0.9701
  176SOPE   H5S20009   4.523   6.672  10.019  0.2047 -1.3508  0.9420
  176SOPE   C2620010   4.337   6.741   9.958 -0.1723  0.5461 -0.2508
  176SOPE   H6R20011   4.266   6.657   9.965  0.1467  0.3988  1.2406
  176SOPE   H6S20012   4.295   6.841   9.980 -1.8051 -0.0909 -0.4458
  176SOPE   C2720013   4.393   6.762   9.812  0.6470  0.0829  0.6190
  176SOPE   H7R20014   4.444   6.860   9.823 -0.9275  0.8665  1.1613
  176SOPE   H7S20015   4.459   6.676   9.790  0.9105  0.1158  1.2773
  176SOPE   C2820016   4.281   6.778   9.716  0.0468  0.7240 -0.7017
  176SOPE   H8R20017   4.229   6.682   9.695  0.5487  0.0098  1.1687
  176SOPE   H8S20018   4.198   6.836   9.761  0.7717  0.3044  1.2170
  176SOPE   C2920019   4.328   6.823   9.578 -0.2274  0.2908 -0.3386
  176SOPE   H9120020   4.436   6.810   9.565 -0.3429  0.2531 -1.3325
  176SOPE  C21020021   4.258   6.894   9.485  0.6358  0.9591 -0.1096
  176SOPE  H10120022   4.310   6.931   9.395  1.4604 -0.7494 -0.3559
  176SOPE  C21120023   4.115   6.939   9.485  0.0996 -0.5036 -0.1240
  176SOPE  H11R20024   4.070   6.933   9.586  0.1564  1.5872  0.0342
  176SOPE  H11S20025   4.052   6.863   9.433 -0.6929 -0.2993  0.5321
  176SOPE  C21220026   4.096   7.084   9.437 -0.2155  0.2494 -0.0934
  176SOPE  H12R20027   4.157   7.150   9.502  2.3243 -1.6910 -0.4096
  176SOPE  H12S20028   3.989   7.113   9.444 -0.4546 -0.5087 -0.5354
  176SOPE  C21320029   4.152   7.112   9.292  0.2105 -0.0949  0.8885
  176SOPE  H13R20030   4.158   7.018   9.233  1.1924 -0.1075  0.9955
  176SOPE  H13S20031   4.256   7.151   9.300  0.8177 -0.9230 -2.0775
  176SOPE  C21420032   4.075   7.213   9.207 -0.2533  0.2560  0.2635
  176SOPE  H14R20033   4.050   7.303   9.267  0.1047  0.8305 -0.4286
  176SOPE  H14S20034   3.973   7.176   9.184  0.2534 -1.0401  0.0772
  176SOPE  C21520035   4.138   7.268   9.085  0.5189 -0.0858 -0.2581
  176SOPE  H15R20036   4.244   7.299   9.096  0.3447  0.4006  0.0884
  176SOPE  H15S20037   4.092   7.363   9.049  0.2941 -0.0757  0.0532
  176SOPE  C21620038   4.108   7.178   8.968 -0.5832  0.3334  0.5063
  176SOPE  H16R20039   3.998   7.163   8.965 -0.3242 -1.3036 -2.3275
  176SOPE  H16S20040   4.155   7.079   8.987  0.1654  0.4795 -0.5712
  176SOPE  C21720041   4.149   7.222   8.833 -0.7125  0.3099  0.6299
  176SOPE  H17R20042   4.260   7.227   8.831 -0.5893 -0.4252  3.7524
  176SOPE  H17S20043   4.105   7.323   8.831 -0.5873  0.3556  0.0455
  176SOPE  C21820044   4.088   7.128   8.738 -0.1057 -0.2292  0.2075
  176SOPE  H18R20045   3.977   7.130   8.736 -0.1046 -0.9437 -1.2814
  176SOPE  H18S20046   4.110   7.024   8.770 -0.6166 -0.7325 -1.0379
  176SOPE  H18T20047   4.121   7.137   8.633 -0.1809  1.8970  0.3567
  176SOPE   C3320048   4.034   6.871  10.169  0.0555 -0.8841  0.5686
  176SOPE   H3X20049   4.135   6.902  10.202 -0.3345 -0.1565  1.0892
  176SOPE   H3Y20050   3.966   6.953  10.199 -1.1899 -1.0781 -1.5984
  176SOPE   C3420051   4.013   6.866  10.022  0.1069 -0.2347 -1.2591
  176SOPE   H4X20052   4.069   6.776   9.989  2.5207  1.0731 -0.8564
  176SOPE   H4Y20053   4.069   6.952   9.982  1.2439 -1.5736 -2.5808
  176SOPE   C3520054   3.865   6.864   9.980  0.8669 -0.1287  0.4505
  176SOPE   H5X20055   3.807   6.937  10.040  0.0973 -0.0397 -0.3833
  176SOPE   H5Y20056   3.806   6.777  10.016 -1.0687  0.0771 -2.0254
  176SOPE   C3620057   3.843   6.894   9.832  0.0842 -0.2692 -0.5067
  176SOPE   H6X20058   3.939   6.878   9.778  0.1397  0.3022 -0.5747
  176SOPE   H6Y20059   3.812   6.998   9.811 -1.2596 -0.6539 -0.4657
  176SOPE   C3720060   3.754   6.778   9.783  0.7154  0.2869  0.0081
  176SOPE   H7X20061   3.647   6.784   9.813  0.9380  0.1512  0.8490
  176SOPE   H7Y20062   3.774   6.682   9.835 -0.4959  0.9750  1.7830
  176SOPE   C3820063   3.763   6.753   9.633 -0.0692 -0.0163  0.4401
  176SOPE   H8X20064   3.703   6.662   9.612 -0.4473  0.3337  0.0107
  176SOPE   H8Y20065   3.868   6.727   9.608 -0.5544 -1.2417 -0.3351
  176SOPE   C3920066   3.708   6.862   9.542  0.2421  0.4145 -0.1603
  176SOPE   H9X20067   3.757   6.961   9.552 -0.2559  0.8018 -1.4142
  176SOPE   H9Y20068   3.598   6.873   9.548 -0.0523 -0.3406 -3.1751
  176SOPE  C31020069   3.732   6.822   9.395 -0.1520 -0.4893 -0.1516
  176SOPE  H10X20070   3.691   6.721   9.374  0.5121 -0.9755  0.8536
  176SOPE  H10Y20071   3.839   6.841   9.371 -0.7829  1.1496 -1.8478
  176SOPE  C31120072   3.654   6.928   9.304  0.5435 -0.2176  0.8917
  176SOPE  H11X20073   3.694   7.030   9.325 -2.0573  0.9189  0.5507
  176SOPE  H11Y20074   3.548   6.932   9.338 -0.1223  0.0018 -1.1360
  176SOPE  C31220075   3.663   6.902   9.159  0.3073  0.1953  0.3125
  176SOPE  H12X20076   3.610   6.984   9.105  0.6425  0.1919 -0.0275
  176SOPE  H12Y20077   3.617   6.806   9.130 -0.6207  0.8167 -0.3127
  176SOPE  C31320078   3.807   6.902   9.095  0.1621  0.2155  0.4219
  176SOPE  H13X20079   3.856   6.804   9.112 -1.2428 -0.7256 -0.8058
  176SOPE  H13Y20080   3.873   6.978   9.142 -0.2774  0.9162 -0.0822
  176SOPE  C31420081   3.800   6.943   8.949 -0.4869  0.0262  1.2402
  176SOPE  H14X20082   3.905   6.944   8.912 -0.1672 -0.6309  2.1132
  176SOPE  H14Y20083   3.756   7.042   8.928  1.7078  0.7965  0.1577
  176SOPE  C31520084   3.738   6.829   8.862  0.3430 -0.1334 -0.5417
  176SOPE  H15X20085   3.650   6.784   8.912 -0.1688  0.5780 -0.8031
  176SOPE  H15Y20086   3.802   6.740   8.880  0.7854  0.5083  1.1921
  176SOPE  C31620087   3.735   6.865   8.714 -0.5956 -0.6669  0.3822
  176SOPE  H16X20088   3.708   6.776   8.654 -0.8009  0.0692 -0.6354
  176SOPE  H16Y20089   3.838   6.899   8.693 -0.8297 -1.4000 -2.0988
  176SOPE  C31720090   3.630   6.980   8.677  0.5113 -0.1058  0.2782
  176SOPE  H17X20091   3.656   7.069   8.737  0.7077 -0.5381  0.8306
  176SOPE  H17Y20092   3.523   6.954   8.691  1.0412 -3.0939 -0.7424
  176SOPE  C31820093   3.642   7.035   8.532 -0.5479  0.1845 -0.4051
  176SOPE  H18X20094   3.558   6.995   8.470 -0.2927  0.3224 -0.8440
  176SOPE  H18Y20095   3.739   7.005   8.488  0.8270  2.2615  1.1579
  176SOPE  H18Z20096   3.634   7.145   8.537 -0.8540  0.0282  4.3243
  177SOPE     N20097   3.708   4.806  11.213  0.2130 -0.3918  1.1443
  177SOPE   HN120098   3.737   4.763  11.122  0.1260  0.0343  0.9175
  177SOPE   HN220099   3.802   4.813  11.258  0.6929  0.1150  0.1017
  177SOPE   HN320100   3.653   4.739  11.270 -1.2262 -0.8091 -0.6833
  177SOPE   C1220101   3.636   4.936  11.181  0.2478  0.0308  0.2965
  177SOPE  H12A20102   3.703   4.985  11.106  0.8321  0.1968  0.9235
  177SOPE  H12B20103   3.632   4.994  11.276  2.9352  0.8960 -0.0573
  177SOPE   C1120104   3.499   4.912  11.109 -0.1619 -0.6462 -0.8145
  177SOPE  H11A20105   3.456   5.007  11.072 -0.9384 -0.2629  1.0394
  177SOPE  H11B20106   3.430   4.869  11.185  0.6270 -1.3687 -0.4837
  177SOPE     P20107   3.421   4.714  10.955 -0.2149  0.1683  0.1907
  177SOPE   O1320108   3.277   4.751  10.977  0.8025 -0.0991  0.7411
  177SOPE   O1420109   3.476   4.599  11.020 -0.2809 -0.3391  0.1907
  177SOPE   O1220110   3.513   4.835  10.986 -0.5463  1.0003 -0.2025
  177SOPE   O1120111   3.445   4.690  10.796  0.4374 -0.0695 -0.5157
  177SOPE    C120112   3.573   4.635  10.756  0.3486  0.1027  0.4042
  177SOPE    HA20113   3.602   4.547  10.817  0.1205 -1.3433 -1.5455
  177SOPE    HB20114   3.646   4.718  10.769  0.4425  0.2882 -1.1808
  177SOPE    C220115   3.555   4.581  10.606 -0.5999  0.0055 -0.4296
  177SOPE    HS20116   3.652   4.539  10.570 -0.7403 -1.4067  0.7730
  177SOPE   O2120117   3.507   4.686  10.521  0.3890 -0.0662  0.0259
  177SOPE   C2120118   3.599   4.780  10.494  0.4768  0.1802 -0.0014
  177SOPE   O2220119   3.716   4.770  10.520  0.1591 -0.6940 -0.2005
  177SOPE   C2220120   3.521   4.914  10.438 -0.6112 -0.4713 -0.3868
  177SOPE   H2R20121   3.506   4.985  10.522  0.3571 -1.7252  0.8592
  177SOPE   H2S20122   3.424   4.882  10.394 -0.0551 -0.5134 -1.6186
  177SOPE    C320123   3.457   4.458  10.605 -0.3853 -0.7176 -0.0178
  177SOPE    HX20124   3.354   4.494  10.621 -0.9744 -2.1865 -0.4310
  177SOPE    HY20125   3.491   4.388  10.684  3.4066 -1.5642 -2.2488
  177SOPE   O3120126   3.447   4.387  10.471 -0.0883 -0.1028 -0.0838
  177SOPE   C3120127   3.540   4.296  10.446 -0.6953 -0.1467  0.2023
  177SOPE   O3220128   3.646   4.277  10.509 -0.7869  0.3047  0.4774
  177SOPE   C3220129   3.500   4.208  10.323 -0.0926 -0.4835 -0.9012
  177SOPE   H2X20130   3.390   4.197  10.338 -0.0612 -0.8288 -0.9111
  177SOPE   H2Y20131   3.541   4.105  10.327 -0.5625 -0.6384 -0.0285
  177SOPE   C2320132   3.598   4.988  10.329 -0.5238 -0.3474  0.2315
  177SOPE   H3R20133   3.684   5.045  10.371 -0.3549 -0.2452 -0.2624
  177SOPE   H3S20134   3.535   5.067  10.283 -2.4869 -1.8246  0.3174
  177SOPE   C2420135   3.648   4.895  10.208  0.1772  0.0365 -0.4852
  177SOPE   H4R20136   3.702   4.962  10.138 -1.5381  0.7121 -1.1991
  177SOPE   H4S20137   3.727   4.826  10.244 -1.5218 -0.0128  3.5295
  177SOPE   C2520138   3.543   4.812  10.135 -0.7521  0.2718 -0.0602
  177SOPE   H5R20139   3.579   4.709  10.154  1.3778  1.0954  0.4382
  177SOPE   H5S20140   3.448   4.833  10.189 -1.3659 -1.4297 -0.4428
  177SOPE   C2620141   3.528   4.854   9.994  0.4343  0.0709  0.3733
  177SOPE   H6R20142   3.456   4.787   9.944  1.9511 -0.8845 -0.5767
  177SOPE   H6S20143   3.481   4.955   9.994 -0.3406 -0.2806 -0.5050
  177SOPE   C2720144   3.656   4.863   9.915 -0.4080 -0.0720  0.5353
  177SOPE   H7R20145   3.688   4.968   9.932  1.8747 -1.3398  5.0559
  177SOPE   H7S20146   3.730   4.799   9.968  0.2058 -0.2246 -0.4957
  177SOPE   C2820147   3.641   4.801   9.772  0.6653  0.3948  0.0450
  177SOPE   H8R20148   3.746   4.793   9.735  0.5592 -3.2101  0.2805
  177SOPE   H8S20149   3.601   4.698   9.760 -1.0077  0.8256  1.6669
  177SOPE   C2920150   3.558   4.897   9.693 -0.1926 -0.0581  0.2444
  177SOPE   H9120151   3.499   4.974   9.744 -2.3278 -1.7586  0.3953
  177SOPE  C21020152   3.544   4.892   9.560  0.1249  0.7739  0.5290
  177SOPE  H10120153   3.484   4.966   9.505 -0.6922 -0.6721 -0.5558
  177SOPE  C21120154   3.590   4.794   9.456  0.6062  0.7258  0.2297
  177SOPE  H11R20155   3.555   4.689   9.473  2.6405  0.1272  0.9473
  177SOPE  H11S20156   3.701   4.787   9.452  0.7478  2.6100  0.6862
  177SOPE  C21220157   3.537   4.827   9.323 -0.0802  0.4129 -0.3768
  177SOPE  H12R20158   3.587   4.918   9.284  0.6379  0.7569  1.3036
  177SOPE  H12S20159   3.428   4.848   9.322 -0.1420  0.4272  2.5102
  177SOPE  C21320160   3.570   4.704   9.219 -0.1276  0.4722  0.3391
  177SOPE  H13R20161   3.533   4.601   9.237 -0.5069  0.4715 -0.4371
  177SOPE  H13S20162   3.681   4.707   9.219 -0.0412 -2.0086 -0.2112
  177SOPE  C21420163   3.508   4.728   9.076 -0.0786 -0.0697 -0.2976
  177SOPE  H14R20164   3.530   4.834   9.050  0.9162 -0.5172 -1.2812
  177SOPE  H14S20165   3.398   4.713   9.082 -0.0407 -0.2248  0.0302
  177SOPE  C21520166   3.574   4.639   8.967 -0.1514  0.5505 -0.3746
  177SOPE  H15R20167   3.562   4.536   9.006  1.7558  0.2664 -0.5232
  177SOPE  H15S20168   3.683   4.655   8.959  0.1717 -1.1653  0.5359
  177SOPE  C21620169   3.517   4.648   8.834 -0.0649  0.2624  0.1228
  177SOPE  H16R20170   3.517   4.753   8.798  1.3788  0.5832  0.9809
  177SOPE  H16S20171   3.420   4.594   8.831  0.7065 -1.0664 -3.4213
  177SOPE  C21720172   3.611   4.577   8.732  0.1831 -0.3436  0.1847
  177SOPE  H17R20173   3.555   4.542   8.643 -0.9555 -2.0804  1.5526
  177SOPE  H17S20174   3.637   4.478   8.774  2.7788  0.9042  1.6125
  177SOPE  C21820175   3.735   4.654   8.697 -0.3343  0.4672 -0.0945
  177SOPE  H18R20176   3.701   4.756   8.672  0.5438  0.9227  0.5543
  177SOPE  H18S20177   3.791   4.608   8.613 -2.3176  1.3750 -1.9562
  177SOPE  H18T20178   3.805   4.652   8.784  1.5712  0.8503 -1.5869
  177SOPE   C3320179   3.543   4.267  10.191  0.8730 -0.2334  0.1469
  177SOPE   H3X20180   3.514   4.192  10.114  0.8486  1.6386 -1.7300
  177SOPE   H3Y20181   3.651   4.282  10.171  0.5377  0.4694 -1.2156
  177SOPE   C3420182   3.471   4.394  10.146  0.0815 -0.1361 -0.3666
  177SOPE   H4X20183   3.540   4.481  10.153  0.6850 -0.7502  1.6462
  177SOPE   H4Y20184   3.380   4.413  10.206  0.1187 -0.7066 -0.1230
  177SOPE   C3520185   3.411   4.386  10.001 -0.6241 -0.3863  0.7375
  177SOPE   H5X20186   3.345   4.474   9.986  0.7311  0.2899 -1.4478
  177SOPE   H5Y20187   3.348   4.296   9.982 -0.2489 -0.1387 -1.9279
  177SOPE   C3620188   3.517   4.397   9.893 -0.1522 -0.6870 -1.1590
  177SOPE   H6X20189   3.587   4.311   9.895 -0.5937 -1.0764 -2.0539
  177SOPE   H6Y20190   3.580   4.488   9.904  0.0841 -0.9169 -0.5922
  177SOPE   C3720191   3.452   4.399   9.749 -0.3607 -0.7196  0.1819
  177SOPE   H7X20192   3.396   4.494   9.733 -0.9680 -1.0078  0.5739
  177SOPE   H7Y20193   3.384   4.311   9.739  0.8103 -1.3255 -3.3494
  177SOPE   C3820194   3.559   4.387   9.636  0.1709  0.2501 -0.2688
  177SOPE   H8X20195   3.638   4.310   9.650 -0.1012  0.1492  0.7679
  177SOPE   H8Y20196   3.607   4.487   9.637  0.1817  0.2435 -0.1325
  177SOPE   C3920197   3.504   4.353   9.499 -0.5093 -0.4262  0.4687
  177SOPE   H9X20198   3.468   4.248   9.510  2.2107 -1.3693  0.7955
  177SOPE   H9Y20199   3.586   4.358   9.424  0.3627  2.3106  1.5543
  177SOPE  C31020200   3.377   4.436   9.465  0.2801 -0.5911 -0.0089
  177SOPE  H10X20201   3.409   4.542   9.464  0.5720 -0.6773 -0.1741
  177SOPE  H10Y20202   3.303   4.410   9.543  0.5075 -1.3808 -0.0518
  177SOPE  C31120203   3.308   4.402   9.333  0.1281  0.3586 -0.0943
  177SOPE  H11X20204   3.287   4.293   9.327  0.6426 -0.0310  3.8182
  177SOPE  H11Y20205   3.371   4.419   9.243 -1.5535  2.5617 -0.9185
  177SOPE  C31220206   3.182   4.485   9.302  0.0168 -0.2598 -0.4916
  177SOPE  H12X20207   3.211   4.592   9.291 -1.6634  0.3118  0.4229
  177SOPE  H12Y20208   3.114   4.481   9.390  0.1272 -0.4524 -0.4163
  177SOPE  C31320209   3.085   4.440   9.183 -0.0989  0.4135  0.0207
  177SOPE  H13X20210   2.995   4.505   9.178 -0.3658  0.2243  2.0184
  177SOPE  H13Y20211   3.047   4.339   9.211  0.8319  0.3791  1.1791
  177SOPE  C31420212   3.161   4.413   9.054  0.2025 -0.0689 -0.3054
  177SOPE  H14X20213   3.258   4.360   9.068 -0.7575 -1.2359  2.3226
  177SOPE  H14Y20214   3.180   4.513   9.010  0.8350 -0.4076 -0.8007
  177SOPE  C31520215   3.066   4.337   8.959 -0.0212 -0.2372 -1.3340
  177SOPE  H15X20216   2.973   4.397   8.963  0.6314  0.7023  0.0470
  177SOPE  H15Y20217   3.054   4.238   9.008 -1.4861  0.7075  0.2760
  177SOPE  C31620218   3.111   4.314   8.817  0.6101 -0.4529 -0.3194
  177SOPE  H16X20219   3.174   4.222   8.815 -0.5887 -1.2792 -1.0016
  177SOPE  H16Y20220   3.173   4.402   8.792  1.4306 -1.2681 -1.2082
  177SOPE  C31720221   2.982   4.296   8.727 -0.2544 -0.0168 -0.3252
  177SOPE  H17X20222   3.017   4.306   8.622  3.1294 -3.6519  0.3322
  177SOPE  H17Y20223   2.918   4.383   8.756  2.0238  0.7292  2.7599
  177SOPE  C31820224   2.927   4.157   8.742 -0.2143 -1.1592  0.9730
  177SOPE  H18X20225   2.903   4.128   8.846 -1.1014 -0.6330  0.9214
  177SOPE  H18Y20226   2.995   4.085   8.692  1.1494  2.4215 -2.5829
  177SOPE  H18Z20227   2.827   4.155   8.693  1.6867 -1.4703 -3.1337
  178SOPE     N20228   0.430   2.176  10.774 -0.6276 -0.1341  0.3949
  178SOPE   HN120229   0.443   2.079  10.809 -0.4248 -0.0037  0.6832
  178SOPE   HN220230   0.406   2.249  10.844 -1.2182  0.2783 -0.2384
  178SOPE   HN320231   0.361   2.167  10.696 -0.9599 -3.9016  0.9913
  178SOPE   C1220232   0.566   2.203  10.731  0.3714 -0.3241  0.1264
  178SOPE  H12A20233   0.587   2.125  10.656  0.0746 -0.7309  0.4671
  178SOPE  H12B20234   0.627   2.190  10.823 -1.5692 -1.7115  1.2502
  178SOPE   C1120235   0.571   2.353  10.672 -0.2387 -0.7510  0.2977
  178SOPE  H11A20236   0.512   2.379  10.582  2.2148  1.5712 -0.7008
  178SOPE  H11B20237   0.679   2.371  10.652 -0.1033 -0.6172  1.1239
  178SOPE     P20238   0.412   2.536  10.779 -0.1655 -0.3516  0.0908
  178SOPE   O1320239   0.440   2.658  10.853 -0.1010  0.9314 -0.0743
  178SOPE   O1420240   0.295   2.456  10.830 -0.1974  0.4416 -0.4213
  178SOPE   O1220241   0.544   2.449  10.770  0.0582 -1.0385  0.3546
  178SOPE   O1120242   0.374   2.574  10.631 -0.6186 -0.4754  0.1889
  178SOPE    C120243   0.408   2.701  10.579  0.1769  0.8435  0.6674
  178SOPE    HA20244   0.508   2.735  10.614 -0.2941  1.0341  1.8338
  178SOPE    HB20245   0.326   2.774  10.595 -1.2746 -0.6647  0.3218
  178SOPE    C220246   0.417   2.706  10.425 -0.2197  0.4900  0.6550
  178SOPE    HS20247   0.324   2.652  10.396 -0.6037  1.7230 -0.4729
  178SOPE   O2120248   0.537   2.639  10.378 -0.0041 -0.2104  0.1425
  178SOPE   C2120249   0.533   2.513  10.365 -0.6694 -0.2311  0.0475
  178SOPE   O2220250   0.428   2.448  10.364 -0.0270 -0.1817 -0.3169
  178SOPE   C2220251   0.664   2.444  10.337  0.2305  0.0795 -0.4676
  178SOPE   H2R20252   0.651   2.359  10.266  2.0639 -0.1859 -0.4976
  178SOPE   H2S20253   0.694   2.403  10.436  0.2960  2.7525  0.6527
  178SOPE    C320254   0.399   2.840  10.353  0.5107 -0.2047 -0.1335
  178SOPE    HX20255   0.485   2.909  10.369 -1.1836  2.0814 -0.5237
  178SOPE    HY20256   0.318   2.892  10.407 -0.1974 -1.0840 -0.3449
  178SOPE   O3120257   0.360   2.801  10.222 -0.1702 -0.2197  0.2585
  178SOPE   C3120258   0.408   2.873  10.125  0.3871  0.0142 -0.2993
  178SOPE   O3220259   0.494   2.963  10.136 -0.6458  0.0830 -0.1364
  178SOPE   C3220260   0.343   2.821   9.995  0.8404  0.2083 -0.2589
  178SOPE   H2X20261   0.233   2.836  10.001  0.8042  0.6523 -1.9833
  178SOPE   H2Y20262   0.373   2.715   9.983  0.4826  0.2915 -1.9897
  178SOPE   C2320263   0.783   2.532  10.285 -0.4339  0.1183 -0.4719
  178SOPE   H3R20264   0.868   2.463  10.266  0.8082  1.7924 -1.0999
  178SOPE   H3S20265   0.810   2.599  10.369  1.6567 -0.6747 -0.4847
  178SOPE   C2420266   0.752   2.608  10.151 -0.1798  0.4283 -0.0247
  178SOPE   H4R20267   0.682   2.691  10.174 -2.1473 -0.5775 -2.2534
  178SOPE   H4S20268   0.849   2.655  10.125  0.1388 -1.1382 -1.8194
  178SOPE   C2520269   0.696   2.523  10.041 -0.0620  0.2221 -0.4000
  178SOPE   H5R20270   0.762   2.434  10.037 -1.1113 -0.6085  0.2077
  178SOPE   H5S20271   0.596   2.495  10.082  0.0051  1.1160  0.3854
  178SOPE   C2620272   0.698   2.609   9.919  0.4624  0.6094 -0.2921
  178SOPE   H6R20273   0.661   2.708   9.951 -1.3418 -0.1065 -0.0809
  178SOPE   H6S20274   0.797   2.632   9.875  0.6856  1.8526  0.8339
  178SOPE   C2720275   0.608   2.550   9.800 -0.2973  0.0016  0.2465
  178SOPE   H7R20276   0.641   2.445   9.788 -1.3987 -0.3986  0.6516
  178SOPE   H7S20277   0.501   2.555   9.829 -0.6288 -2.2900 -0.4797
  178SOPE   C2820278   0.625   2.622   9.667  0.1490 -0.3704  0.7063
  178SOPE   H8R20279   0.535   2.613   9.602  0.3882  0.7795  0.2034
  178SOPE   H8S20280   0.642   2.730   9.684  0.4088 -0.8773  4.0045
  178SOPE   C2920281   0.752   2.575   9.599 -0.4878 -0.5570  0.0934
  178SOPE   H9120282   0.823   2.541   9.676 -0.2016 -2.6526 -1.0673
  178SOPE  C21020283   0.792   2.575   9.471 -0.1555  0.2548  1.0100
  178SOPE  H10120284   0.896   2.539   9.459 -0.2104  0.7562 -1.1047
  178SOPE  C21120285   0.731   2.622   9.342  0.2943 -0.2870 -0.3928
  178SOPE  H11R20286   0.794   2.697   9.291 -1.1198 -0.5147 -2.5919
  178SOPE  H11S20287   0.638   2.681   9.355  1.2306  1.4152 -1.2627
  178SOPE  C21220288   0.727   2.491   9.249 -0.0045 -0.0925 -0.0015
  178SOPE  H12R20289   0.693   2.399   9.301  2.0771 -0.8710 -0.0096
  178SOPE  H12S20290   0.832   2.461   9.230 -0.1286 -0.7938  0.4310
  178SOPE  C21320291   0.663   2.507   9.112  0.2273  0.3616 -0.2657
  178SOPE  H13R20292   0.678   2.600   9.054  2.0528 -1.4605 -2.8148
  178SOPE  H13S20293   0.554   2.503   9.133  0.4010 -0.9970  0.4401
  178SOPE  C21420294   0.689   2.395   9.020  0.4295  0.3174  0.5981
  178SOPE  H14R20295   0.659   2.309   9.083  1.3054 -0.3837  0.0731
  178SOPE  H14S20296   0.796   2.390   8.990 -0.2156  0.6066 -1.8762
  178SOPE  C21520297   0.605   2.393   8.892 -0.1045  0.3449 -0.1643
  178SOPE  H15R20298   0.602   2.490   8.839  1.6284  0.4135 -0.1711
  178SOPE  H15S20299   0.505   2.354   8.921 -1.0229  1.5081 -1.7024
  178SOPE  C21620300   0.677   2.307   8.786  0.2195 -0.2405 -0.7651
  178SOPE  H16R20301   0.683   2.202   8.824  1.5749 -0.0209 -0.3288
  178SOPE  H16S20302   0.779   2.348   8.770 -0.2452  1.1780 -0.1013
  178SOPE  C21720303   0.594   2.313   8.657  0.3690  0.5747 -0.4459
  178SOPE  H17R20304   0.587   2.420   8.630 -1.4627  0.8778  1.1134
  178SOPE  H17S20305   0.490   2.275   8.670  0.2694  0.4746 -1.5071
  178SOPE  C21820306   0.663   2.245   8.538  0.5889  1.0601 -0.3288
  178SOPE  H18R20307   0.593   2.228   8.454  0.4502  2.7316 -0.5632
  178SOPE  H18S20308   0.697   2.141   8.559 -1.6646  0.7776  2.1360
  178SOPE  H18T20309   0.746   2.314   8.512  0.2662  2.2243  1.6122
  178SOPE   C3320310   0.399   2.905   9.880 -0.2110  0.8326 -0.6648
  178SOPE   H3X20311   0.509   2.890   9.881 -0.3130  0.0067  0.8520
  178SOPE   H3Y20312   0.383   3.014   9.894  0.3338  0.7807  0.4730
  178SOPE   C3420313   0.350   2.847   9.751 -0.5883 -0.6025 -0.3998
  178SOPE   H4X20314   0.240   2.852   9.768 -0.5001 -0.3193  0.1141
  178SOPE   H4Y20315   0.384   2.742   9.743  0.9088 -0.2683  1.2619
  178SOPE   C3520316   0.397   2.928   9.632  0.2266 -0.3416 -0.0799
  178SOPE   H5X20317   0.506   2.937   9.649  0.3072  1.8304 -1.4718
  178SOPE   H5Y20318   0.363   3.034   9.638  0.9559 -0.1337  0.3816
  178SOPE   C3620319   0.367   2.858   9.499 -0.0058 -0.0337  0.4343
  178SOPE   H6X20320   0.256   2.864   9.501 -0.1671 -1.7289 -1.7747
  178SOPE   H6Y20321   0.399   2.752   9.490  0.5762  0.2911 -1.5967
  178SOPE   C3720322   0.416   2.932   9.378  0.1498 -0.3663  0.3953
  178SOPE   H7X20323   0.526   2.943   9.379  0.1637 -0.4413  2.3056
  178SOPE   H7Y20324   0.367   3.030   9.359 -0.8331 -1.2389 -1.7844
  178SOPE   C3820325   0.372   2.855   9.257 -0.8887 -0.2939  0.0698
  178SOPE   H8X20326   0.265   2.857   9.227 -0.7119 -0.5529 -0.5805
  178SOPE   H8Y20327   0.388   2.748   9.279 -1.3302  0.1001  2.5533
  178SOPE   C3920328   0.443   2.892   9.123  0.3191 -0.2393  0.2109
  178SOPE   H9X20329   0.554   2.890   9.137  0.4024  2.1024  0.1853
  178SOPE   H9Y20330   0.421   2.994   9.084  1.2615 -0.9098 -2.1579
  178SOPE  C31020331   0.420   2.802   9.002  0.0446  0.0558 -0.5122
  178SOPE  H10X20332   0.463   2.700   9.008  0.4754  0.3582  2.3752
  178SOPE  H10Y20333   0.467   2.859   8.919  0.9605  0.3879  0.2319
  178SOPE  C31120334   0.274   2.790   8.958 -0.1611  0.7995 -0.3026
  178SOPE  H11X20335   0.223   2.888   8.943 -2.6230 -0.2862  0.6078
  178SOPE  H11Y20336   0.226   2.747   9.049  2.9716 -1.6746  0.2497
  178SOPE  C31220337   0.240   2.709   8.838 -0.2603  0.6392  0.3314
  178SOPE  H12X20338   0.131   2.690   8.838  0.0436 -1.2658 -1.1402
  178SOPE  H12Y20339   0.303   2.618   8.829 -0.0827  0.9364 -1.6181
  178SOPE  C31320340   0.279   2.778   8.706 -0.8479 -0.8740  0.0088
  178SOPE  H13X20341   0.387   2.800   8.718 -1.3660  1.0245  1.3752
  178SOPE  H13Y20342   0.211   2.863   8.686  0.0325 -0.1868 -0.1179
  178SOPE  C31420343   0.249   2.693   8.573 -0.3581 -0.2059 -0.4731
  178SOPE  H14X20344   0.325   2.611   8.581  1.0300  1.1817  0.8847
  178SOPE  H14Y20345   0.287   2.760   8.493 -0.2514 -0.4829 -0.6571
  178SOPE  C31520346   0.112   2.641   8.550 -0.3923  0.6491  0.0153
  178SOPE  H15X20347   0.037   2.719   8.577  0.5079  1.9752 -1.2556
  178SOPE  H15Y20348   0.093   2.552   8.614 -0.0802 -0.2574 -1.1400
  178SOPE  C31620349   0.084   2.598   8.404  0.2096 -0.3005 -0.1070
  178SOPE  H16X20350   0.138   2.504   8.380  0.6433  0.0803 -0.6382
  178SOPE  H16Y20351   0.098   2.671   8.322 -3.0351 -0.3006 -0.7466
  178SOPE  C31720352  -0.070   2.560   8.379 -0.3474  0.6495  0.0551
  178SOPE  H17X20353  -0.138   2.647   8.375 -1.2119 -0.0557 -0.8338
  178SOPE  H17Y20354  -0.082   2.503   8.474 -1.9214 -0.4529 -0.7865
  178SOPE  C31820355  -0.106   2.475   8.248 -0.0440 -0.2242 -0.3538
  178SOPE  H18X20356  -0.025   2.408   8.213  1.0156  0.6723  0.3197
  178SOPE  H18Y20357  -0.133   2.549   8.169  1.0332  2.5177  1.7441
  178SOPE  H18Z20358  -0.189   2.403   8.260  0.1384 -0.8070 -2.4701
  179SOPE     N20359   5.445   4.412   6.392  0.0808  0.5143 -0.2274
  179SOPE   HN120360   5.365   4.370   6.341  0.2580  1.3874 -1.2560
  179SOPE   HN220361   5.479   4.500   6.348  1.9385 -0.6600 -1.2185
  179SOPE   HN320362   5.528   4.350   6.382 -0.9876 -1.2105  1.4532
  179SOPE   C1220363   5.407   4.430   6.537  0.1065 -0.6233  0.1791
  179SOPE  H12A20364   5.370   4.532   6.560  0.5080 -0.6059  0.7503
  179SOPE  H12B20365   5.492   4.403   6.603 -0.2448 -1.3098  0.3623
  179SOPE   C1120366   5.300   4.320   6.574 -0.2080 -0.0027 -0.5141
  179SOPE  H11A20367   5.210   4.324   6.509 -1.3831 -1.5910  0.9552
  179SOPE  H11B20368   5.273   4.342   6.679  1.9583  1.1343 -0.1777
  179SOPE     P20369   5.379   4.097   6.672 -0.3420  0.2040  0.1062
  179SOPE   O1320370   5.426   3.964   6.632 -0.6857  0.2892  0.0606
  179SOPE   O1420371   5.261   4.098   6.754  0.2933 -0.3760  0.3425
  179SOPE   O1220372   5.356   4.189   6.552 -0.9121  0.2387 -0.2797
  179SOPE   O1120373   5.489   4.169   6.757  0.1248 -0.5676  0.7608
  179SOPE    C120374   5.623   4.173   6.705 -0.6871  0.4933  0.2721
  179SOPE    HA20375   5.669   4.251   6.768 -2.2609  0.8631  0.9980
  179SOPE    HB20376   5.622   4.204   6.598  1.6785 -1.3254 -0.3131
  179SOPE    C220377   5.702   4.043   6.739 -0.1469  0.1403  0.2764
  179SOPE    HS20378   5.655   3.960   6.684  1.5543  0.5978 -1.9458
  179SOPE   O2120379   5.676   4.009   6.873  0.0207  0.0820 -0.0989
  179SOPE   C2120380   5.715   3.893   6.913  0.7193 -0.4086 -0.2249
  179SOPE   O2220381   5.759   3.804   6.843  0.4761 -0.6312  0.1995
  179SOPE   C2220382   5.705   3.889   7.063  0.4260 -0.5388 -0.6062
  179SOPE   H2R20383   5.713   3.782   7.092  0.6049 -0.2986  0.2419
  179SOPE   H2S20384   5.617   3.947   7.098 -0.4870 -3.4504  2.0848
  179SOPE    C320385   5.851   4.070   6.714 -0.2639  0.1375  0.2372
  179SOPE    HX20386   5.862   4.120   6.615 -0.6568  0.4557  0.3534
  179SOPE    HY20387   5.896   3.968   6.717 -1.0536 -0.2514 -0.7579
  179SOPE   O3120388   5.903   4.156   6.822  0.0794  0.5182  0.2058
  179SOPE   C3120389   6.033   4.160   6.844 -0.1951 -0.1694 -0.0340
  179SOPE   O3220390   6.118   4.100   6.782  0.0797 -0.4160  0.3783
  179SOPE   C3220391   6.060   4.243   6.973  0.0847 -0.5301  0.6441
  179SOPE   H2X20392   5.963   4.269   7.021  1.0691 -0.7751  2.8233
  179SOPE   H2Y20393   6.113   4.332   6.932 -0.6518 -0.0283  0.7698
  179SOPE   C2320394   5.829   3.958   7.124  0.9844  0.5703 -0.2685
  179SOPE   H3R20395   5.826   4.064   7.091 -2.8587 -0.0171 -2.1336
  179SOPE   H3S20396   5.918   3.908   7.081  1.8083  0.7451  1.2139
  179SOPE   C2420397   5.834   3.945   7.278 -0.1815  1.1196 -0.5779
  179SOPE   H4R20398   5.876   4.043   7.308  0.1654  1.1538 -1.1692
  179SOPE   H4S20399   5.746   3.928   7.344  0.4775  0.1259  0.0671
  179SOPE   C2520400   5.930   3.836   7.313 -0.8419  1.0393  0.0686
  179SOPE   H5R20401   5.883   3.736   7.301  1.4396 -0.0973  0.3241
  179SOPE   H5S20402   6.023   3.845   7.253 -0.7987 -0.1499 -0.0504
  179SOPE   C2620403   5.974   3.853   7.461  0.3933 -0.4112  0.3127
  179SOPE   H6R20404   6.033   3.946   7.468 -0.0699 -0.1667  1.0187
  179SOPE   H6S20405   5.882   3.855   7.524 -1.1052  2.5642 -1.8378
  179SOPE   C2720406   6.064   3.744   7.505  0.2240  0.4166  0.3237
  179SOPE   H7R20407   6.011   3.649   7.483 -1.2194  1.0509  0.9949
  179SOPE   H7S20408   6.157   3.735   7.444  0.3354 -1.6048  0.7713
  179SOPE   C2820409   6.110   3.743   7.651 -0.0751  0.7069  0.1532
  179SOPE   H8R20410   6.168   3.654   7.683  0.2431  0.3033 -1.5150
  179SOPE   H8S20411   6.178   3.830   7.667  0.9013 -0.4181  2.3588
  179SOPE   C2920412   5.991   3.742   7.753 -0.2668 -0.3444  0.2744
  179SOPE   H9120413   5.911   3.669   7.737 -0.1660 -1.0517  2.7682
  179SOPE  C21020414   5.972   3.816   7.864  0.5756 -0.4512  0.4172
  179SOPE  H10120415   5.891   3.798   7.936 -0.1665  0.5194 -0.1609
  179SOPE  C21120416   6.069   3.912   7.924 -0.0646 -0.2702  0.8857
  179SOPE  H11R20417   6.004   3.990   7.968  1.8923  2.2029 -0.4879
  179SOPE  H11S20418   6.142   3.955   7.852 -0.0504 -1.6842  0.0378
  179SOPE  C21220419   6.166   3.846   8.023  0.4140  0.5136  0.7257
  179SOPE  H12R20420   6.251   3.917   8.025  0.9293 -0.0199 -1.0505
  179SOPE  H12S20421   6.194   3.749   7.977  0.3490  0.2239  1.2995
  179SOPE  C21320422   6.100   3.833   8.155  0.4979  0.2551  0.1577
  179SOPE  H13R20423   6.027   3.750   8.146 -0.2669  0.9655 -0.2770
  179SOPE  H13S20424   6.044   3.921   8.193 -1.2748  0.5396 -2.9537
  179SOPE  C21420425   6.197   3.785   8.266 -0.0105 -0.2617  0.7402
  179SOPE  H14R20426   6.153   3.790   8.367  1.0956  3.3990  1.0829
  179SOPE  H14S20427   6.286   3.852   8.262  0.3861 -0.8726 -1.8648
  179SOPE  C21520428   6.247   3.641   8.252  0.6004 -0.6734 -1.0045
  179SOPE  H15R20429   6.342   3.641   8.309  0.5937 -0.1137 -0.9939
  179SOPE  H15S20430   6.270   3.621   8.145 -1.7005  1.0954 -1.8703
  179SOPE  C21620431   6.153   3.533   8.299 -0.6096  0.4922 -0.3217
  179SOPE  H16R20432   6.179   3.430   8.266 -2.7713 -0.5313  1.0695
  179SOPE  H16S20433   6.052   3.545   8.254 -1.2141 -2.1925  0.2627
  179SOPE  C21720434   6.133   3.526   8.446  0.1519 -0.1182 -0.1158
  179SOPE  H17R20435   6.058   3.451   8.478  1.0079 -1.3088 -0.8825
  179SOPE  H17S20436   6.119   3.631   8.481 -0.2075 -0.0331 -0.5063
  179SOPE  C21820437   6.262   3.462   8.501  0.1927  0.1440 -0.1412
  179SOPE  H18R20438   6.350   3.527   8.479 -1.0801  2.6070  1.8116
  179SOPE  H18S20439   6.270   3.360   8.458  0.3756 -0.0632  0.3812
  179SOPE  H18T20440   6.253   3.448   8.611  1.9775  1.3940  0.1758
  179SOPE   C3320441   6.154   4.168   7.074  0.3997 -0.3369 -0.6823
  179SOPE   H3X20442   6.218   4.101   7.013  0.2625 -1.7954  0.7401
  179SOPE   H3Y20443   6.093   4.101   7.137 -0.6698  0.1522 -1.1940
  179SOPE   C3420444   6.225   4.270   7.164  0.8598 -0.0192 -0.0247
  179SOPE   H4X20445   6.158   4.354   7.193 -2.7717 -2.4106 -1.0674
  179SOPE   H4Y20446   6.306   4.309   7.099  0.3598  2.5799  0.8327
  179SOPE   C3520447   6.258   4.208   7.310  0.2201 -0.9169  0.9740
  179SOPE   H5X20448   6.311   4.111   7.300  3.0887  0.4814  2.1018
  179SOPE   H5Y20449   6.164   4.186   7.364  0.1957  0.8669  1.6531
  179SOPE   C3620450   6.349   4.308   7.389  0.5064  0.0899 -0.3956
  179SOPE   H6X20451   6.300   4.408   7.395 -0.0663 -0.2662  0.9611
  179SOPE   H6Y20452   6.450   4.321   7.345  0.0842  1.8427 -0.9101
  179SOPE   C3720453   6.380   4.264   7.536  0.0992 -0.4168  0.3642
  179SOPE   H7X20454   6.460   4.326   7.581  0.2579  0.9753 -1.7136
  179SOPE   H7Y20455   6.420   4.161   7.528  0.0827 -0.3541 -0.6215
  179SOPE   C3820456   6.263   4.269   7.636  0.2031  0.0502  0.1871
  179SOPE   H8X20457   6.171   4.231   7.586  0.1967 -0.2743  0.4437
  179SOPE   H8Y20458   6.225   4.370   7.663  2.0204 -0.2299  4.2108
  179SOPE   C3920459   6.285   4.199   7.772  0.1927  0.2010  0.3514
  179SOPE   H9X20460   6.304   4.091   7.755  0.3567  0.5086 -1.5515
  179SOPE   H9Y20461   6.194   4.207   7.835 -0.9579 -2.2288 -0.9177
  179SOPE  C31020462   6.398   4.263   7.852 -0.3040 -0.9086 -0.3941
  179SOPE  H10X20463   6.375   4.372   7.860  3.2916 -0.1159  0.1396
  179SOPE  H10Y20464   6.498   4.252   7.805  1.4999 -0.5344  3.2257
  179SOPE  C31120465   6.408   4.198   7.994 -0.6455  0.3654  0.2060
  179SOPE  H11X20466   6.510   4.218   8.032  0.3620 -1.4529 -1.4133
  179SOPE  H11Y20467   6.397   4.087   7.991  2.9289 -0.1171  2.3731
  179SOPE  C31220468   6.304   4.248   8.101 -0.5147 -0.8026 -0.4225
  179SOPE  H12X20469   6.205   4.214   8.064 -1.1550 -1.8135  2.0860
  179SOPE  H12Y20470   6.309   4.357   8.125  1.5069 -0.9691  0.0089
  179SOPE  C31320471   6.328   4.186   8.240 -0.6925  0.3383 -0.6745
  179SOPE  H13X20472   6.418   4.224   8.293 -0.8484 -0.6857  0.3655
  179SOPE  H13Y20473   6.338   4.075   8.239 -1.2107  0.2726  0.1030
  179SOPE  C31420474   6.213   4.215   8.335  0.2721  0.2281 -0.2356
  179SOPE  H14X20475   6.128   4.178   8.273 -0.2122  1.1634 -0.1562
  179SOPE  H14Y20476   6.193   4.323   8.356 -0.4445  0.1001 -0.2309
  179SOPE  C31520477   6.219   4.139   8.466 -0.4249  0.3949 -0.1596
  179SOPE  H15X20478   6.189   4.032   8.465 -0.7222  0.3729  3.2726
  179SOPE  H15Y20479   6.143   4.184   8.534 -1.4262  1.2096 -1.7908
  179SOPE  C31620480   6.350   4.156   8.541  0.2181  0.3108 -0.4982
  179SOPE  H16X20481   6.340   4.265   8.558  0.7938  0.5655 -1.7063
  179SOPE  H16Y20482   6.441   4.140   8.479  1.8516  1.3084  1.5802
  179SOPE  C31720483   6.343   4.090   8.678  0.7963  0.1712 -0.6815
  179SOPE  H17X20484   6.247   4.129   8.719  0.5021 -0.7352 -0.4847
  179SOPE  H17Y20485   6.426   4.135   8.736 -2.4054  1.1022  3.4136
  179SOPE  C31820486   6.360   3.937   8.679 -0.2576 -0.2799  0.0695
  179SOPE  H18X20487   6.468   3.911   8.687  0.1294  1.5454  0.9669
  179SOPE  H18Y20488   6.308   3.888   8.593  1.4277  2.4422 -2.5768
  179SOPE  H18Z20489   6.315   3.898   8.773 -1.3900  0.3467 -0.2030
  180SOPE     N20490   4.816   3.876   6.507  0.1207  0.1471 -0.3997
  180SOPE   HN120491   4.819   3.783   6.460  1.9767  0.0078 -0.0650
  180SOPE   HN220492   4.915   3.903   6.490  0.5564 -1.1371  0.0587
  180SOPE   HN320493   4.808   3.858   6.609 -2.1385 -2.1153 -0.9131
  180SOPE   C1220494   4.702   3.957   6.445 -0.0096  0.0571 -0.4006
  180SOPE  H12A20495   4.721   4.062   6.476  4.0656 -0.6095 -0.3852
  180SOPE  H12B20496   4.608   3.917   6.489  1.6453 -1.3098  2.0212
  180SOPE   C1120497   4.716   3.955   6.292  1.3228 -0.1099  0.4328
  180SOPE  H11A20498   4.633   4.008   6.241  1.0995 -1.2986 -0.4840
  180SOPE  H11B20499   4.701   3.850   6.258 -0.5806 -0.1579  1.3750
  180SOPE     P20500   4.885   4.144   6.202 -0.0022 -0.0117  0.0917
  180SOPE   O1320501   4.818   4.164   6.074  0.2093  0.2748 -0.4272
  180SOPE   O1420502   5.033   4.149   6.204 -0.5629  0.1871 -0.5991
  180SOPE   O1220503   4.837   4.003   6.256 -0.1171  0.0034  0.4734
  180SOPE   O1120504   4.825   4.244   6.312 -0.2811  0.0779  0.5764
  180SOPE    C120505   4.924   4.287   6.410  0.1877  0.4044 -0.3137
  180SOPE    HA20506   5.016   4.334   6.369  0.6334  1.1409  1.5195
  180SOPE    HB20507   4.969   4.200   6.462 -2.7473 -2.7803 -2.8611
  180SOPE    C220508   4.854   4.389   6.513 -0.3057  0.0534  0.7716
  180SOPE    HS20509   4.926   4.413   6.595  1.1248  0.4068 -0.5744
  180SOPE   O2120510   4.732   4.341   6.577 -0.3172  0.4001 -0.0043
  180SOPE   C2120511   4.748   4.240   6.652 -0.3965 -0.7113  0.6871
  180SOPE   O2220512   4.858   4.189   6.681  0.3454  0.0448  0.1619
  180SOPE   C2220513   4.618   4.192   6.714  0.0407 -0.3754 -0.0096
  180SOPE   H2R20514   4.578   4.106   6.656 -0.0564 -0.2233 -0.1688
  180SOPE   H2S20515   4.539   4.270   6.713 -0.6070 -1.0382 -1.4214
  180SOPE    C320516   4.825   4.533   6.450  0.4538 -0.0546  0.3041
  180SOPE    HX20517   4.743   4.514   6.377 -0.2556  2.0688  0.5219
  180SOPE    HY20518   4.918   4.560   6.396 -0.5653  1.2394 -0.8453
  180SOPE   O3120519   4.795   4.635   6.548  0.3069 -0.2201  0.0147
  180SOPE   C3120520   4.663   4.659   6.573 -0.0365  0.1381  0.3180
  180SOPE   O3220521   4.574   4.623   6.503 -0.5604  0.0053 -0.1761
  180SOPE   C3220522   4.649   4.759   6.689 -0.0791  0.0093  0.0302
  180SOPE   H2X20523   4.563   4.824   6.661  1.8225  2.1832 -0.9350
  180SOPE   H2Y20524   4.744   4.818   6.687  0.0168 -0.1843 -1.9124
  180SOPE   C2320525   4.635   4.140   6.863  0.5078 -0.2202 -0.0595
  180SOPE   H3R20526   4.702   4.052   6.856  0.6591  0.0245 -1.9985
  180SOPE   H3S20527   4.536   4.110   6.904  0.9816  0.3236  1.5105
  180SOPE   C2420528   4.704   4.243   6.960 -0.0519  0.5984  0.0161
  180SOPE   H4R20529   4.801   4.279   6.920 -0.4236  1.4653 -0.1282
  180SOPE   H4S20530   4.639   4.333   6.962  1.6242  1.8270  1.9964
  180SOPE   C2520531   4.701   4.187   7.100  0.3764 -0.2126 -0.4892
  180SOPE   H5R20532   4.594   4.190   7.132  0.3045  0.9102 -0.8325
  180SOPE   H5S20533   4.719   4.078   7.096  0.4772 -0.2455  0.7007
  180SOPE   C2620534   4.787   4.261   7.209  0.4294  0.6043 -0.3144
  180SOPE   H6R20535   4.891   4.223   7.198 -0.4129 -1.8403 -0.2242
  180SOPE   H6S20536   4.787   4.371   7.220  1.8088  0.4330  1.6165
  180SOPE   C2720537   4.743   4.209   7.350  0.3496 -0.5915 -0.1892
  180SOPE   H7R20538   4.657   4.277   7.369  0.9242 -0.0621  0.5812
  180SOPE   H7S20539   4.719   4.100   7.351  0.1707 -0.5635  1.7721
  180SOPE   C2820540   4.851   4.237   7.462  0.1546 -0.3128  0.1808
  180SOPE   H8R20541   4.823   4.156   7.532 -3.4060  1.4475  0.9076
  180SOPE   H8S20542   4.953   4.219   7.421 -0.7540 -1.3156 -1.6580
  180SOPE   C2920543   4.852   4.374   7.520 -0.2564  0.0847  0.1815
  180SOPE   H9120544   4.912   4.454   7.473  1.9949 -0.7425  1.5596
  180SOPE  C21020545   4.797   4.411   7.637  0.1572 -0.4950  0.9561
  180SOPE  H10120546   4.828   4.507   7.680 -0.7755 -0.1381  0.8332
  180SOPE  C21120547   4.722   4.324   7.732  0.1431 -0.1967 -0.5481
  180SOPE  H11R20548   4.648   4.258   7.682 -3.1553  0.7415  2.8759
  180SOPE  H11S20549   4.670   4.391   7.803 -0.1016 -2.5220  1.5230
  180SOPE  C21220550   4.815   4.238   7.826  0.2899 -0.2616  0.5686
  180SOPE  H12R20551   4.882   4.310   7.878  1.2030 -1.6422  1.3310
  180SOPE  H12S20552   4.870   4.169   7.759 -0.0981 -0.6204  0.6149
  180SOPE  C21320553   4.739   4.163   7.925 -0.4507  0.3592  0.4013
  180SOPE  H13R20554   4.645   4.122   7.882  0.0349 -1.6093  1.1731
  180SOPE  H13S20555   4.696   4.233   8.000 -0.1394 -0.7674  1.6456
  180SOPE  C21420556   4.815   4.053   7.997 -0.4934 -0.2191  0.2120
  180SOPE  H14R20557   4.897   4.105   8.052 -0.2555  1.6789 -1.8402
  180SOPE  H14S20558   4.857   3.982   7.922  0.7906  0.8699 -0.1398
  180SOPE  C21520559   4.726   3.971   8.093 -0.0903  0.0054  0.0453
  180SOPE  H15R20560   4.689   3.885   8.033 -1.6573 -0.2750  1.3652
  180SOPE  H15S20561   4.643   4.027   8.140 -1.4598 -1.0112 -1.1028
  180SOPE  C21620562   4.809   3.914   8.206  0.6329  0.1159  0.7201
  180SOPE  H16R20563   4.830   3.991   8.283 -0.4477  1.1176  0.0374
  180SOPE  H16S20564   4.898   3.873   8.154 -0.4139 -3.0767  1.3329
  180SOPE  C21720565   4.741   3.806   8.287  0.1471  0.3260  0.4824
  180SOPE  H17R20566   4.814   3.722   8.293  0.2734  0.3312 -0.6894
  180SOPE  H17S20567   4.657   3.760   8.231 -0.6641 -0.9335  2.6899
  180SOPE  C21820568   4.691   3.839   8.422 -0.6507 -0.2834 -0.3491
  180SOPE  H18R20569   4.630   3.755   8.463  0.6667 -0.1075  2.0269
  180SOPE  H18S20570   4.628   3.928   8.402  1.8592  1.3928 -0.9955
  180SOPE  H18T20571   4.772   3.873   8.490  1.2385 -1.8099 -1.7757
  180SOPE   C3320572   4.624   4.688   6.829  0.5248 -0.3556  0.3845
  180SOPE   H3X20573   4.605   4.579   6.815  1.0799 -0.1894 -1.8687
  180SOPE   H3Y20574   4.536   4.736   6.876 -0.7397 -2.2951  0.0548
  180SOPE   C3420575   4.754   4.704   6.908  0.4357  0.0852  0.8626
  180SOPE   H4X20576   4.815   4.789   6.872  1.0521 -0.9801 -0.6284
  180SOPE   H4Y20577   4.809   4.610   6.886 -0.5096 -1.1416  3.4481
  180SOPE   C3520578   4.723   4.708   7.063 -0.7322 -1.0108  0.5693
  180SOPE   H5X20579   4.683   4.608   7.092  0.5145 -1.2769  1.3610
  180SOPE   H5Y20580   4.647   4.786   7.084  0.6089  0.9332 -1.5987
  180SOPE   C3620581   4.838   4.741   7.153 -0.2204  0.6211 -0.0299
  180SOPE   H6X20582   4.882   4.839   7.121  0.6658  1.4564  3.5467
  180SOPE   H6Y20583   4.908   4.655   7.147  1.0611  1.5741  1.0052
  180SOPE   C3720584   4.801   4.749   7.302  0.2672 -1.0662 -0.2837
  180SOPE   H7X20585   4.771   4.645   7.326 -0.6610 -1.0621 -1.4384
  180SOPE   H7Y20586   4.713   4.812   7.325  0.1802 -1.0276 -0.7287
  180SOPE   C3820587   4.927   4.767   7.395 -0.5485  0.2962  0.4463
  180SOPE   H8X20588   4.992   4.849   7.359 -1.0060  1.8378  3.0891
  180SOPE   H8Y20589   4.986   4.673   7.401  0.2756  0.9039  2.1046
  180SOPE   C3920590   4.883   4.808   7.537 -0.5889  0.1117 -0.0569
  180SOPE   H9X20591   4.823   4.729   7.586 -0.4003 -0.7247 -1.1348
  180SOPE   H9Y20592   4.827   4.904   7.533 -0.5449  0.1249 -0.4722
  180SOPE  C31020593   5.005   4.859   7.613 -1.1072  0.3376  0.0635
  180SOPE  H10X20594   5.054   4.938   7.551 -0.0446 -0.0794  0.3569
  180SOPE  H10Y20595   5.062   4.764   7.621  0.6325  1.4085  0.5004
  180SOPE  C31120596   4.973   4.904   7.754  0.4549  0.0018 -0.1429
  180SOPE  H11X20597   4.902   4.989   7.754 -2.2665 -2.2089 -0.6204
  180SOPE  H11Y20598   5.063   4.942   7.807  0.3119 -1.4779  1.2258
  180SOPE  C31220599   4.912   4.805   7.848 -0.1955 -0.2164  0.3963
  180SOPE  H12X20600   4.829   4.762   7.788  0.9659  0.5543 -1.8366
  180SOPE  H12Y20601   4.879   4.858   7.939  0.8881 -1.9101  1.8090
  180SOPE  C31320602   5.015   4.688   7.874 -0.3806  0.4106  0.0652
  180SOPE  H13X20603   5.100   4.728   7.935 -1.4562  0.3110  1.6656
  180SOPE  H13Y20604   5.068   4.657   7.781 -3.7867 -3.2814 -0.7647
  180SOPE  C31420605   4.947   4.572   7.937  0.6024  0.4712 -0.2000
  180SOPE  H14X20606   5.020   4.488   7.935 -0.7217 -0.6771 -1.8308
  180SOPE  H14Y20607   4.856   4.543   7.880  0.6960  1.5923 -0.9354
  180SOPE  C31520608   4.921   4.590   8.089 -0.4237  0.2220 -0.3608
  180SOPE  H15X20609   4.832   4.653   8.109 -0.0112 -0.0148  2.4102
  180SOPE  H15Y20610   5.011   4.628   8.142 -0.2210 -0.4525 -0.2098
  180SOPE  C31620611   4.880   4.451   8.157 -0.5025  0.9613 -0.0758
  180SOPE  H16X20612   4.912   4.371   8.087 -1.1465  1.6359 -1.1461
  180SOPE  H16Y20613   4.769   4.451   8.157 -0.5167 -0.6996  0.0496
  180SOPE  C31720614   4.953   4.431   8.291  0.1698 -0.0569 -0.7802
  180SOPE  H17X20615   4.908   4.505   8.360  3.1853  0.8627  0.2795
  180SOPE  H17Y20616   5.061   4.450   8.275  0.5066 -0.9035  0.3784
  180SOPE  C31820617   4.927   4.290   8.358 -0.1831 -1.2098 -0.1852
  180SOPE  H18X20618   4.992   4.280   8.448  1.0653 -0.8760 -1.0419
  180SOPE  H18Y20619   4.947   4.206   8.288  0.1264 -0.3843 -1.0886
  180SOPE  H18Z20620   4.818   4.285   8.381 -0.2745 -1.4372 -0.6620
  181SOPE     N20621   4.642   1.930   5.960  1.0047 -1.1174 -0.4248
  181SOPE   HN120622   4.697   2.008   5.920  2.2501 -1.9022 -0.2814
  181SOPE   HN220623   4.669   1.913   6.060 -1.8555  0.7742  0.7142
  181SOPE   HN320624   4.648   1.843   5.904  1.1489 -0.6146 -1.1904
  181SOPE   C1220625   4.495   1.967   5.963  0.0562 -0.1744  0.0436
  181SOPE  H12A20626   4.445   1.914   5.879  0.8278  1.2443 -1.3593
  181SOPE  H12B20627   4.497   2.077   5.945  0.3405 -0.3182 -0.8361
  181SOPE   C1120628   4.433   1.928   6.092 -1.2571 -0.3394 -0.1123
  181SOPE  H11A20629   4.324   1.950   6.089 -0.9315  1.5069  0.8532
  181SOPE  H11B20630   4.475   1.987   6.177 -2.3444  1.6862 -0.9410
  181SOPE     P20631   4.386   1.668   6.045  0.5623 -0.2983  0.1664
  181SOPE   O1320632   4.440   1.630   5.917  0.1996 -0.3540 -0.0074
  181SOPE   O1420633   4.249   1.708   6.031  0.0759  0.2189  0.1494
  181SOPE   O1220634   4.470   1.788   6.102  0.3013 -0.2312 -0.4871
  181SOPE   O1120635   4.402   1.561   6.151 -0.2751  0.6448 -0.0838
  181SOPE    C120636   4.526   1.500   6.186 -0.5638 -0.4699  0.0922
  181SOPE    HA20637   4.610   1.524   6.118  0.7293 -1.6897  1.2187
  181SOPE    HB20638   4.520   1.389   6.177  3.7832 -0.7139 -0.7186
  181SOPE    C220639   4.578   1.523   6.331  0.2489  0.0449 -0.7093
  181SOPE    HS20640   4.667   1.457   6.341 -0.6317 -1.2884 -1.5585
  181SOPE   O2120641   4.479   1.476   6.419 -0.6133  0.0289 -0.2276
  181SOPE   C2120642   4.475   1.350   6.438  0.4740  0.7714 -0.5103
  181SOPE   O2220643   4.559   1.263   6.404 -0.2362  0.2214 -0.1152
  181SOPE   C2220644   4.344   1.314   6.518 -0.1920  0.1550  0.1784
  181SOPE   H2R20645   4.301   1.225   6.468  0.2779 -0.3615  0.6891
  181SOPE   H2S20646   4.266   1.393   6.508 -1.9686 -1.5535  0.3362
  181SOPE    C320647   4.607   1.672   6.356 -0.6261  0.3152 -0.1980
  181SOPE    HX20648   4.515   1.723   6.321 -0.6563  0.2103 -0.2714
  181SOPE    HY20649   4.690   1.712   6.294 -1.0591  1.5016 -0.0273
  181SOPE   O3120650   4.639   1.691   6.498  0.8005  0.3031 -0.2256
  181SOPE   C3120651   4.748   1.634   6.552  0.2206  0.4849  0.6067
  181SOPE   O3220652   4.829   1.568   6.492 -0.0389 -0.1844  0.4128
  181SOPE   C3220653   4.756   1.663   6.699 -0.3437 -0.2729  0.8062
  181SOPE   H2X20654   4.793   1.571   6.750  2.0212 -0.2866 -0.8880
  181SOPE   H2Y20655   4.658   1.702   6.733  0.1087  1.1193  0.5117
  181SOPE   C2320656   4.364   1.277   6.669  0.0472 -0.0770  0.8638
  181SOPE   H3R20657   4.420   1.181   6.665  0.0628 -0.0271 -0.4758
  181SOPE   H3S20658   4.261   1.261   6.707 -0.1691 -0.5239  0.1125
  181SOPE   C2420659   4.446   1.383   6.746  0.1377  1.2365  0.3425
  181SOPE   H4R20660   4.544   1.415   6.705  0.3086 -0.2394 -0.4136
  181SOPE   H4S20661   4.387   1.476   6.757  0.6819  1.6361 -0.0876
  181SOPE   C2520662   4.484   1.333   6.888 -0.1844  0.6070  0.2281
  181SOPE   H5R20663   4.387   1.334   6.941 -0.9144 -0.7432 -1.0534
  181SOPE   H5S20664   4.532   1.233   6.882 -2.0276 -0.1995 -1.5895
  181SOPE   C2620665   4.574   1.419   6.972  0.0430  0.0660  0.3984
  181SOPE   H6R20666   4.677   1.377   6.968  0.7064  1.7172 -0.2758
  181SOPE   H6S20667   4.580   1.520   6.928  0.8297 -1.1409 -2.4064
  181SOPE   C2720668   4.530   1.416   7.113 -0.0847  0.7362 -0.6988
  181SOPE   H7R20669   4.428   1.461   7.112 -1.1311 -1.5378 -3.5696
  181SOPE   H7S20670   4.525   1.307   7.137  2.2435  0.8161  0.2542
  181SOPE   C2820671   4.621   1.486   7.224  0.1875 -0.4145  0.3917
  181SOPE   H8R20672   4.608   1.457   7.330  0.1141  0.5360  0.6473
  181SOPE   H8S20673   4.725   1.451   7.209 -0.0862 -1.1659  0.2424
  181SOPE   C2920674   4.614   1.631   7.214  0.7103  0.0402  0.3409
  181SOPE   H9120675   4.657   1.676   7.124 -0.6054  0.1137 -0.2718
  181SOPE  C21020676   4.571   1.711   7.311  0.6080 -0.2758 -0.1621
  181SOPE  H10120677   4.558   1.816   7.284  0.2744 -0.2841 -0.0351
  181SOPE  C21120678   4.522   1.674   7.450 -0.1608 -0.0449  0.5611
  181SOPE  H11R20679   4.526   1.564   7.466 -0.6107 -0.1296  0.1122
  181SOPE  H11S20680   4.417   1.706   7.468  1.1569  2.3421  4.6836
  181SOPE  C21220681   4.615   1.738   7.558 -0.0561  0.9792 -0.9140
  181SOPE  H12R20682   4.615   1.846   7.534 -0.1241  0.9134 -1.2191
  181SOPE  H12S20683   4.717   1.695   7.550  0.5217  2.3088 -0.7849
  181SOPE  C21320684   4.570   1.739   7.704 -1.1877  0.6702 -0.2467
  181SOPE  H13R20685   4.576   1.635   7.742 -1.5221  1.5649  2.3425
  181SOPE  H13S20686   4.464   1.768   7.720 -0.2474  3.3843  1.3165
  181SOPE  C21420687   4.656   1.835   7.784  0.2372 -0.0644  0.5059
  181SOPE  H14R20688   4.613   1.936   7.768  0.3181 -0.2695 -1.1419
  181SOPE  H14S20689   4.760   1.835   7.744 -0.6935  0.9278 -2.0307
  181SOPE  C21520690   4.664   1.794   7.928 -0.6175  0.1255  0.7389
  181SOPE  H15R20691   4.695   1.688   7.936 -2.6481 -0.6359 -0.9412
  181SOPE  H15S20692   4.559   1.790   7.966 -0.7246  4.4307  1.2089
  181SOPE  C21620693   4.745   1.895   8.016 -0.3438  0.0021  0.7217
  181SOPE  H16R20694   4.701   1.997   8.012  0.1598  0.1510 -1.8598
  181SOPE  H16S20695   4.853   1.896   7.993 -0.1678 -0.1638  1.5257
  181SOPE  C21720696   4.744   1.844   8.162 -0.3975 -0.0426 -0.0269
  181SOPE  H17R20697   4.789   1.743   8.161 -1.1118 -0.3658  0.2838
  181SOPE  H17S20698   4.642   1.842   8.208 -0.4169  0.1274 -0.0593
  181SOPE  C21820699   4.820   1.934   8.266  0.0928 -0.2318  0.2903
  181SOPE  H18R20700   4.755   2.024   8.260 -1.4432 -1.2068  1.7602
  181SOPE  H18S20701   4.922   1.963   8.233 -0.6773  0.7663 -1.3023
  181SOPE  H18T20702   4.832   1.890   8.367  0.9208 -0.6078  0.0313
  181SOPE   C3320703   4.862   1.773   6.726 -0.2189 -0.2677  0.1056
  181SOPE   H3X20704   4.834   1.867   6.672 -0.6121  0.0824  0.9170
  181SOPE   H3Y20705   4.962   1.737   6.694 -0.7064  0.7984 -2.8312
  181SOPE   C3420706   4.859   1.831   6.865 -0.0229 -0.2447  0.3397
  181SOPE   H4X20707   4.954   1.888   6.878 -0.2184  0.2439 -0.3389
  181SOPE   H4Y20708   4.866   1.752   6.943  0.1780  1.5827  2.1967
  181SOPE   C3520709   4.737   1.923   6.890 -0.2461 -0.6096  0.5350
  181SOPE   H5X20710   4.643   1.881   6.847  0.5977 -2.3666  0.3416
  181SOPE   H5Y20711   4.745   2.018   6.833 -0.8190  0.1245  1.6746
  181SOPE   C3620712   4.731   1.969   7.032  0.2756  0.1349 -0.5922
  181SOPE   H6X20713   4.723   1.879   7.096 -0.3367  0.0181 -0.8298
  181SOPE   H6Y20714   4.636   2.027   7.043 -0.0717 -0.3192 -1.1758
  181SOPE   C3720715   4.849   2.049   7.078 -0.1052 -0.0212 -0.6378
  181SOPE   H7X20716   4.847   2.140   7.014 -2.8009  0.0543 -0.5073
  181SOPE   H7Y20717   4.946   1.996   7.070  1.4157  2.7319 -0.9839
  181SOPE   C3820718   4.832   2.086   7.229  0.1569  0.9201  0.8874
  181SOPE   H8X20719   4.749   2.027   7.273  1.3150 -0.5421  1.1615
  181SOPE   H8Y20720   4.793   2.190   7.236 -0.9041  0.5707  0.2650
  181SOPE   C3920721   4.946   2.061   7.325  0.1183 -0.2293 -0.0960
  181SOPE   H9X20722   5.037   2.121   7.304 -0.2309 -0.1117 -1.2807
  181SOPE   H9Y20723   4.983   1.958   7.309 -0.9264 -0.6938  0.4462
  181SOPE  C31020724   4.909   2.087   7.478 -0.0526  0.6716  0.3822
  181SOPE  H10X20725   4.996   2.054   7.539  1.0392  0.3624 -1.2979
  181SOPE  H10Y20726   4.830   2.012   7.494 -0.8176  1.2238 -0.7269
  181SOPE  C31120727   4.866   2.226   7.518  0.2891 -0.6004 -0.5910
  181SOPE  H11X20728   4.773   2.248   7.461  0.9336  2.6984 -0.4856
  181SOPE  H11Y20729   4.955   2.291   7.501 -0.8842  1.3899  0.7573
  181SOPE  C31220730   4.816   2.228   7.663 -0.1904 -0.4025 -0.1013
  181SOPE  H12X20731   4.747   2.141   7.672  2.6743 -2.5691  1.6661
  181SOPE  H12Y20732   4.763   2.325   7.678  3.1680  1.5710 -0.4545
  181SOPE  C31320733   4.920   2.208   7.773  0.3922  0.0982  0.1003
  181SOPE  H13X20734   5.001   2.274   7.737 -0.9279  0.5745 -2.1112
  181SOPE  H13Y20735   4.944   2.099   7.771  4.8605  0.9712  0.1637
  181SOPE  C31420736   4.858   2.248   7.906  0.0235  0.3061 -0.1531
  181SOPE  H14X20737   4.766   2.193   7.933 -0.6401  1.8135  0.6859
  181SOPE  H14Y20738   4.819   2.351   7.889 -1.7414 -0.5665 -1.5711
  181SOPE  C31520739   4.954   2.261   8.016 -0.7253  0.4273  0.3496
  181SOPE  H15X20740   5.041   2.325   7.990  0.9083 -1.8584  0.0617
  181SOPE  H15Y20741   5.000   2.164   8.044  1.2009  0.9387 -0.9145
  181SOPE  C31620742   4.890   2.317   8.141 -0.2229  0.2773 -0.6014
  181SOPE  H16X20743   4.824   2.239   8.185  1.0111 -0.6564 -0.3983
  181SOPE  H16Y20744   4.822   2.403   8.120  0.3306  0.8439 -0.1007
  181SOPE  C31720745   4.995   2.352   8.244  0.2217  0.0716 -0.1902
  181SOPE  H17X20746   5.078   2.393   8.182 -0.8471  1.5606 -0.6458
  181SOPE  H17Y20747   5.043   2.258   8.282  1.6248  0.6360 -0.5234
  181SOPE  C31820748   4.954   2.440   8.360  0.0876 -0.5726  0.1676
  181SOPE  H18X20749   5.041   2.468   8.422 -2.7818 -1.3551  4.7930
  181SOPE  H18Y20750   4.888   2.388   8.432 -0.0958 -1.3359 -0.5406
  181SOPE  H18Z20751   4.909   2.527   8.307  1.0030  0.0142  0.3519
  182SOPE     N20752   5.228   3.678   6.330 -0.4000  0.2979 -0.1391
  182SOPE   HN120753   5.322   3.639   6.306 -0.8710 -1.1092  0.2784
  182SOPE   HN220754   5.165   3.644   6.254 -1.1719 -1.2051  1.1394
  182SOPE   HN320755   5.248   3.779   6.321  1.0791  0.0327  0.0163
  182SOPE   C1220756   5.175   3.642   6.463  0.2057  0.2525 -0.3329
  182SOPE  H12A20757   5.110   3.727   6.493  1.7918  1.3099  0.1792
  182SOPE  H12B20758   5.255   3.647   6.540 -1.3611  2.6493  1.2067
  182SOPE   C1120759   5.106   3.504   6.468 -0.4455 -0.1017 -0.1391
  182SOPE  H11A20760   5.065   3.479   6.568  0.4970  2.7904  1.0171
  182SOPE  H11B20761   5.186   3.429   6.455 -0.8993 -0.3000 -2.0053
  182SOPE     P20762   4.857   3.494   6.385  0.0332  0.3449  0.2452
  182SOPE   O1320763   4.789   3.435   6.267  0.2112 -0.0321  0.4761
  182SOPE   O1420764   4.810   3.632   6.425  0.5163 -0.2621 -0.4132
  182SOPE   O1220765   5.015   3.498   6.365 -0.8894  0.0169 -0.4344
  182SOPE   O1120766   4.834   3.388   6.503 -0.1620 -0.6679  0.3071
  182SOPE    C120767   4.711   3.409   6.579 -0.0961  0.0408 -0.2748
  182SOPE    HA20768   4.663   3.314   6.612 -0.8665  0.7762  0.7516
  182SOPE    HB20769   4.637   3.474   6.527 -1.9649 -2.6707 -1.1576
  182SOPE    C220770   4.738   3.478   6.711  0.5545  0.7948 -0.0053
  182SOPE    HS20771   4.773   3.582   6.688 -0.6842  0.8703 -1.6733
  182SOPE   O2120772   4.830   3.391   6.781 -0.3464 -0.0073  0.4698
  182SOPE   C2120773   4.902   3.459   6.878 -0.4141  0.4956 -0.6933
  182SOPE   O2220774   4.889   3.577   6.905  0.1256 -0.1863  0.3724
  182SOPE   C2220775   4.990   3.354   6.949  0.3140 -0.0864  0.2339
  182SOPE   H2R20776   5.096   3.375   6.923 -0.2029  0.7464 -1.2225
  182SOPE   H2S20777   4.976   3.251   6.911 -0.1091  0.6680 -1.6966
  182SOPE    C320778   4.603   3.496   6.787 -0.1856 -0.3542 -0.8778
  182SOPE    HX20779   4.575   3.394   6.819 -0.8949  0.3208  0.6936
  182SOPE    HY20780   4.528   3.544   6.720 -1.5700  1.9149  2.1947
  182SOPE   O3120781   4.614   3.581   6.904 -0.0876  0.3865 -0.7992
  182SOPE   C3120782   4.572   3.705   6.911  0.1012 -0.5143  0.8233
  182SOPE   O3220783   4.516   3.766   6.820  0.4718 -0.1791 -0.2631
  182SOPE   C3220784   4.604   3.753   7.054 -1.3232 -0.4968  0.3523
  182SOPE   H2X20785   4.549   3.845   7.085 -1.6890 -0.2523 -0.9920
  182SOPE   H2Y20786   4.712   3.780   7.046 -1.2158 -1.3143 -1.1371
  182SOPE   C2320787   4.967   3.370   7.103  0.2679 -0.4021 -0.0734
  182SOPE   H3R20788   4.872   3.325   7.140  0.0977  0.5635  0.6803
  182SOPE   H3S20789   4.956   3.477   7.131  0.2279 -0.4571  0.1217
  182SOPE   C2420790   5.080   3.310   7.193  0.3562  0.6128 -0.0567
  182SOPE   H4R20791   5.098   3.202   7.176  0.9949  0.6341  0.4491
  182SOPE   H4S20792   5.170   3.362   7.155  0.1015 -0.0642 -1.6074
  182SOPE   C2520793   5.066   3.338   7.345 -0.4271  0.3135  0.0085
  182SOPE   H5R20794   5.023   3.439   7.359  3.8755  2.3589 -0.5681
  182SOPE   H5S20795   4.999   3.265   7.394  0.1149 -0.6165 -0.6217
  182SOPE   C2620796   5.202   3.355   7.415  0.1069 -0.1035  0.3007
  182SOPE   H6R20797   5.256   3.260   7.397  1.7596  1.0502 -0.9741
  182SOPE   H6S20798   5.270   3.434   7.376 -0.8613  1.1240  1.0545
  182SOPE   C2720799   5.193   3.385   7.562 -0.3849 -0.2680 -0.8592
  182SOPE   H7R20800   5.293   3.418   7.598 -0.3283 -0.7801 -0.5505
  182SOPE   H7S20801   5.135   3.478   7.578 -1.1658 -1.0537  1.0328
  182SOPE   C2820802   5.135   3.270   7.647 -0.0949 -0.5218 -0.2216
  182SOPE   H8R20803   5.107   3.315   7.744 -1.2510 -0.1561 -0.7123
  182SOPE   H8S20804   5.047   3.228   7.593  0.4459 -2.3382  0.2733
  182SOPE   C2920805   5.251   3.167   7.673 -0.7390 -0.6687 -0.0639
  182SOPE   H9120806   5.302   3.118   7.589  1.0106 -0.5620  0.9004
  182SOPE  C21020807   5.301   3.123   7.790 -0.4270 -0.4693  0.3692
  182SOPE  H10120808   5.381   3.048   7.799 -1.4296 -1.5416  0.4654
  182SOPE  C21120809   5.252   3.159   7.931  0.4004 -0.4232  0.3357
  182SOPE  H11R20810   5.142   3.141   7.937  0.5095 -0.6149  1.8341
  182SOPE  H11S20811   5.264   3.269   7.937  3.3584 -0.6525 -0.4784
  182SOPE  C21220812   5.318   3.092   8.056  0.3035  0.1971  0.4480
  182SOPE  H12R20813   5.292   2.984   8.056  0.8843  0.0516 -0.5142
  182SOPE  H12S20814   5.258   3.130   8.142  1.8313 -1.5139  2.3381
  182SOPE  C21320815   5.475   3.126   8.078 -0.4741 -0.0965 -0.4289
  182SOPE  H13R20816   5.476   3.236   8.087  0.5494 -0.1217 -0.1229
  182SOPE  H13S20817   5.523   3.090   7.984  0.7236 -2.4032  1.0019
  182SOPE  C21420818   5.537   3.055   8.203  0.4029  0.7991  0.4993
  182SOPE  H14R20819   5.645   3.080   8.201  0.7064 -0.4704 -3.1901
  182SOPE  H14S20820   5.518   2.946   8.201 -0.7134  0.9779  1.0827
  182SOPE  C21520821   5.486   3.107   8.337 -0.3863  0.3754 -0.3143
  182SOPE  H15R20822   5.394   3.045   8.343 -0.5922  0.8468  1.7186
  182SOPE  H15S20823   5.464   3.216   8.333  1.4397  0.7854  0.5168
  182SOPE  C21620824   5.583   3.073   8.453 -0.1503 -0.1074 -0.4063
  182SOPE  H16R20825   5.649   2.992   8.416  0.7969  1.5405 -2.4177
  182SOPE  H16S20826   5.528   3.041   8.544 -0.0024  0.8676  0.0384
  182SOPE  C21720827   5.672   3.185   8.502 -0.6794 -0.7928 -0.0657
  182SOPE  H17R20828   5.752   3.147   8.569 -0.7629 -2.0800 -0.6788
  182SOPE  H17S20829   5.604   3.259   8.549 -0.8335 -1.1198  0.2290
  182SOPE  C21820830   5.752   3.269   8.404  0.2593 -0.5646  0.6208
  182SOPE  H18R20831   5.822   3.205   8.345 -0.0280 -0.4330  0.1361
  182SOPE  H18S20832   5.818   3.344   8.451  1.4713 -1.1421 -0.1268
  182SOPE  H18T20833   5.678   3.303   8.329  1.9830 -0.4118 -1.0493
  182SOPE   C3320834   4.597   3.639   7.155 -0.6712 -0.1044 -0.3349
  182SOPE   H3X20835   4.673   3.563   7.130  0.3460  0.3737  1.2066
  182SOPE   H3Y20836   4.502   3.582   7.146 -0.3078 -0.5464 -1.4138
  182SOPE   C3420837   4.635   3.673   7.301  0.1087 -0.0573 -0.1414
  182SOPE   H4X20838   4.628   3.583   7.365  1.4251  1.0166  1.5685
  182SOPE   H4Y20839   4.560   3.745   7.340 -0.6798 -0.1911 -1.3911
  182SOPE   C3520840   4.775   3.742   7.317 -0.1516 -0.8178 -0.2481
  182SOPE   H5X20841   4.771   3.835   7.258 -2.1032 -1.7474 -1.6385
  182SOPE   H5Y20842   4.861   3.692   7.268  1.5098  1.3092  0.4055
  182SOPE   C3620843   4.823   3.756   7.468  0.4188  0.0542 -0.2716
  182SOPE   H6X20844   4.922   3.806   7.463  0.5312 -0.2388 -1.0698
  182SOPE   H6Y20845   4.838   3.651   7.502  1.7918 -0.5063 -2.4786
  182SOPE   C3720846   4.714   3.820   7.562  0.0965  0.3588  0.5048
  182SOPE   H7X20847   4.617   3.768   7.568  0.2467 -0.1710 -1.1927
  182SOPE   H7Y20848   4.701   3.922   7.520 -0.9558 -0.7537 -1.9802
  182SOPE   C3820849   4.768   3.835   7.707  0.7799  0.4154  0.1191
  182SOPE   H8X20850   4.687   3.886   7.763  1.1607  0.6680  0.4469
  182SOPE   H8Y20851   4.854   3.905   7.694 -0.1616  0.9292 -4.0326
  182SOPE   C3920852   4.808   3.708   7.786 -0.3338 -0.3145  1.0209
  182SOPE   H9X20853   4.752   3.624   7.740 -0.7124  0.5937 -0.2017
  182SOPE   H9Y20854   4.782   3.723   7.893 -0.9003  0.2652  0.8042
  182SOPE  C31020855   4.966   3.689   7.773  0.4833  0.7124 -0.0182
  182SOPE  H10X20856   5.011   3.782   7.815  0.6344  0.6170  0.0310
  182SOPE  H10Y20857   5.002   3.673   7.670 -0.1634 -2.7118  0.2385
  182SOPE  C31120858   5.022   3.578   7.869  0.2873 -0.3253 -0.1112
  182SOPE  H11X20859   5.123   3.557   7.830  0.3775  2.5964 -1.5787
  182SOPE  H11Y20860   4.950   3.494   7.869 -1.5302  1.1716  0.7378
  182SOPE  C31220861   5.039   3.620   8.020  0.0762  0.2326  0.1091
  182SOPE  H12X20862   4.943   3.646   8.068 -0.4564  0.0118 -0.8346
  182SOPE  H12Y20863   5.114   3.701   8.035  1.4451 -1.3715  2.1180
  182SOPE  C31320864   5.089   3.501   8.090 -0.3587 -0.1206  0.7017
  182SOPE  H13X20865   5.187   3.462   8.055  0.0313 -1.3796  3.0749
  182SOPE  H13Y20866   5.021   3.415   8.071 -1.6344  0.1329  3.8226
  182SOPE  C31420867   5.104   3.513   8.240  0.2691 -0.1204  0.1413
  182SOPE  H14X20868   5.012   3.555   8.286 -2.3169 -3.9721 -1.2337
  182SOPE  H14Y20869   5.188   3.583   8.261 -0.1011  0.4621 -0.3148
  182SOPE  C31520870   5.123   3.380   8.318 -0.4180 -0.1575 -0.5883
  182SOPE  H15X20871   5.208   3.321   8.278  0.6103 -1.2454  2.9718
  182SOPE  H15Y20872   5.033   3.316   8.308 -2.1740  2.3349 -1.3665
  182SOPE  C31620873   5.134   3.416   8.466  0.2016  1.2581 -0.6684
  182SOPE  H16X20874   5.040   3.391   8.519  1.3183 -1.4276  0.1238
  182SOPE  H16Y20875   5.138   3.525   8.486  1.5124  1.6697 -2.9454
  182SOPE  C31720876   5.251   3.342   8.534 -0.2706  0.0955  0.8798
  182SOPE  H17X20877   5.350   3.363   8.487 -0.7616 -0.3412 -0.3620
  182SOPE  H17Y20878   5.227   3.233   8.534  0.2808 -0.0260  1.6577
  182SOPE  C31820879   5.253   3.365   8.689  0.8991 -0.5819 -0.3196
  182SOPE  H18X20880   5.154   3.336   8.729  0.1277 -0.6775 -2.2350
  182SOPE  H18Y20881   5.275   3.469   8.721  1.0098 -1.0972  1.3235
  182SOPE  H18Z20882   5.335   3.303   8.730 -0.1233 -2.7036 -1.3837
  183SOPE     N20883   0.510   0.809   6.151  0.0848 -0.5469  0.5199
  183SOPE   HN120884   0.484   0.892   6.095 -0.8198 -0.8044  0.5423
  183SOPE   HN220885   0.600   0.770   6.118  0.8957  0.4377  1.5108
  183SOPE   HN320886   0.434   0.742   6.128 -0.9480  1.4034 -1.8572
  183SOPE   C1220887   0.513   0.852   6.297  0.3089  0.1292  0.1425
  183SOPE  H12A20888   0.473   0.767   6.356  1.9814 -1.2589 -0.6908
  183SOPE  H12B20889   0.447   0.941   6.292  1.7922  1.1949 -0.7665
  183SOPE   C1120890   0.656   0.896   6.326 -0.4657 -0.0872 -0.0552
  183SOPE  H11A20891   0.725   0.813   6.299 -0.7903 -0.3288 -0.1318
  183SOPE  H11B20892   0.654   0.911   6.437  2.0950 -3.0544  0.4786
  183SOPE     P20893   0.848   1.048   6.248  0.2610  0.3697  0.1376
  183SOPE   O1320894   0.858   1.183   6.183  0.0042 -0.2839 -0.3358
  183SOPE   O1420895   0.931   0.940   6.188 -0.4041 -0.1306  0.0966
  183SOPE   O1220896   0.695   1.010   6.251 -0.3123 -0.0970  0.1373
  183SOPE   O1120897   0.899   1.064   6.401  0.5153  0.0053 -0.2870
  183SOPE    C120898   0.864   1.184   6.478 -0.4666 -0.1846  0.7330
  183SOPE    HA20899   0.775   1.232   6.432  1.1221  0.3821 -1.8462
  183SOPE    HB20900   0.948   1.257   6.482 -0.2090 -0.5165  1.4306
  183SOPE    C220901   0.837   1.144   6.625 -0.4504 -0.8483  0.1300
  183SOPE    HS20902   0.755   1.212   6.656 -0.1421  0.1553 -1.2424
  183SOPE   O2120903   0.947   1.174   6.705 -0.1366 -0.4833 -0.7836
  183SOPE   C2120904   0.959   1.306   6.747 -0.4599  0.4344  0.2628
  183SOPE   O2220905   0.880   1.393   6.730  0.1422  0.0955  0.2451
  183SOPE   C2220906   1.094   1.320   6.816  0.9081  0.6319  0.0987
  183SOPE   H2R20907   1.160   1.325   6.727  0.3459 -0.9010 -0.4219
  183SOPE   H2S20908   1.102   1.228   6.879 -1.9524  0.4462  0.2804
  183SOPE    C320909   0.804   0.993   6.648 -0.1162  0.5155  0.2234
  183SOPE    HX20910   0.865   0.921   6.588 -0.7979 -0.8712  1.1566
  183SOPE    HY20911   0.696   0.994   6.619 -0.0253  2.9046 -0.0777
  183SOPE   O3120912   0.800   0.947   6.785  0.2220 -0.2172  0.3704
  183SOPE   C3120913   0.908   0.903   6.841 -0.6195  0.3046 -0.2918
  183SOPE   O3220914   1.017   0.886   6.790  0.1058  0.4423  0.0682
  183SOPE   C3220915   0.880   0.855   6.986 -0.2206 -0.2226  0.3159
  183SOPE   H2X20916   0.975   0.818   7.030  1.7143  2.9245 -1.0281
  183SOPE   H2Y20917   0.808   0.772   6.969  1.3905 -1.8680  1.3622
  183SOPE   C2320918   1.128   1.441   6.901  0.4925  0.4598 -0.7577
  183SOPE   H3R20919   1.122   1.538   6.847  2.8715  1.0226 -0.0492
  183SOPE   H3S20920   1.237   1.441   6.919  0.2806  1.9024  0.6326
  183SOPE   C2420921   1.046   1.433   7.033  0.0378 -0.0147  0.0727
  183SOPE   H4R20922   0.939   1.428   7.004  0.4882  0.4522 -1.7330
  183SOPE   H4S20923   1.073   1.348   7.099  0.4890  0.7322  0.8689
  183SOPE   C2520924   1.067   1.563   7.126  0.2862  0.2884  0.1414
  183SOPE   H5R20925   1.175   1.567   7.153  0.0285  1.7995  1.0364
  183SOPE   H5S20926   1.036   1.648   7.061 -1.5985 -0.3336  0.2008
  183SOPE   C2620927   0.985   1.570   7.250 -0.8169  0.4083 -0.6828
  183SOPE   H6R20928   1.004   1.671   7.291  1.9670 -0.8122  1.1891
  183SOPE   H6S20929   0.876   1.555   7.234 -0.6440 -1.5036 -0.1824
  183SOPE   C2720930   1.035   1.483   7.366 -0.3277  0.3796 -0.1501
  183SOPE   H7R20931   1.024   1.374   7.344 -0.5314  0.1749  0.9434
  183SOPE   H7S20932   1.143   1.501   7.385 -0.4922  0.6191  0.5588
  183SOPE   C2820933   0.949   1.507   7.494 -0.4084 -0.4429  0.3568
  183SOPE   H8R20934   0.936   1.617   7.503  0.2090 -0.4267  1.0624
  183SOPE   H8S20935   0.845   1.470   7.477 -0.9765  1.8846 -1.3641
  183SOPE   C2920936   1.012   1.449   7.619 -0.7757  0.1234  0.5391
  183SOPE   H9120937   1.002   1.340   7.633 -0.5881  0.3246  2.4489
  183SOPE  C21020938   1.081   1.515   7.712  0.0967  0.2099 -0.9231
  183SOPE  H10120939   1.136   1.452   7.784 -1.6131  0.5556  0.7144
  183SOPE  C21120940   1.116   1.661   7.729 -0.8241  0.4354  0.5907
  183SOPE  H11R20941   1.076   1.723   7.647  0.3322 -1.7693 -1.7301
  183SOPE  H11S20942   1.226   1.675   7.739 -0.2194 -2.0187 -1.8369
  183SOPE  C21220943   1.055   1.714   7.863  0.1827  0.3244 -0.2301
  183SOPE  H12R20944   0.944   1.701   7.865  0.4683 -2.0380  2.0153
  183SOPE  H12S20945   1.061   1.824   7.852  1.1607  0.3590  0.6318
  183SOPE  C21320946   1.118   1.673   7.987 -0.8365 -0.1717  0.2022
  183SOPE  H13R20947   1.228   1.676   7.978 -0.8382  0.4722  0.3471
  183SOPE  H13S20948   1.089   1.567   8.002 -2.4099  0.4981  2.2855
  183SOPE  C21420949   1.069   1.749   8.113 -0.2633  0.1835  0.1165
  183SOPE  H14R20950   0.958   1.740   8.116 -0.2605 -0.7698 -2.0490
  183SOPE  H14S20951   1.080   1.857   8.091  0.3633  0.1014  0.0083
  183SOPE  C21520952   1.137   1.710   8.243  0.4155 -0.1272 -0.1203
  183SOPE  H15R20953   1.150   1.600   8.247  0.0124 -0.1622  0.3875
  183SOPE  H15S20954   1.060   1.736   8.319  1.6891  1.2932  0.6981
  183SOPE  C21620955   1.262   1.783   8.279 -0.3270 -0.6118  0.1217
  183SOPE  H16R20956   1.252   1.891   8.258 -0.4822 -0.2995  1.7357
  183SOPE  H16S20957   1.342   1.738   8.215 -1.3810  1.0131 -2.3989
  183SOPE  C21720958   1.308   1.769   8.426 -0.6596  0.1169  0.4432
  183SOPE  H17R20959   1.290   1.669   8.469  0.5494 -0.0382  0.6164
  183SOPE  H17S20960   1.243   1.828   8.494 -1.5177  0.0974 -0.3379
  183SOPE  C21820961   1.450   1.809   8.462 -0.4047 -0.0693 -0.3772
  183SOPE  H18R20962   1.465   1.790   8.570 -2.4931 -0.0997 -0.0741
  183SOPE  H18S20963   1.469   1.918   8.448 -1.4056  0.1930  0.2425
  183SOPE  H18T20964   1.519   1.745   8.403  1.6674 -0.2110  2.1155
  183SOPE   C3320965   0.825   0.972   7.068 -0.5173  0.2242  0.5842
  183SOPE   H3X20966   0.721   0.998   7.036  0.4258 -0.7998 -3.6252
  183SOPE   H3Y20967   0.881   1.061   7.032  0.7538 -1.5531 -1.9751
  183SOPE   C3420968   0.843   0.959   7.218  0.2237 -0.0860  0.1758
  183SOPE   H4X20969   0.944   0.916   7.241 -1.1207 -1.9322  2.9692
  183SOPE   H4Y20970   0.773   0.883   7.260 -0.4405 -1.0261 -2.5227
  183SOPE   C3520971   0.824   1.101   7.298  1.1449  0.7026 -0.1776
  183SOPE   H5X20972   0.722   1.141   7.277  0.5276 -1.1957 -0.9455
  183SOPE   H5Y20973   0.904   1.170   7.264  1.5005  0.0447 -0.6966
  183SOPE   C3620974   0.855   1.092   7.447  0.0653  0.4960  0.7506
  183SOPE   H6X20975   0.870   1.195   7.487 -1.3646  0.1521  2.2585
  183SOPE   H6Y20976   0.946   1.034   7.473 -0.2641  0.3625  1.6401
  183SOPE   C3720977   0.732   1.039   7.520  0.3418 -0.0071 -0.1609
  183SOPE   H7X20978   0.733   0.928   7.524 -2.7083 -0.0078  2.5885
  183SOPE   H7Y20979   0.637   1.079   7.479 -0.0525 -2.3753 -1.6687
  183SOPE   C3820980   0.736   1.077   7.669  0.1449  0.2541 -0.8504
  183SOPE   H8X20981   0.637   1.045   7.708  1.1890 -2.4798 -0.3752
  183SOPE   H8Y20982   0.751   1.187   7.670  0.0276  0.2618  0.3816
  183SOPE   C3920983   0.844   1.004   7.750 -0.2820  0.6862  0.2947
  183SOPE   H9X20984   0.945   1.036   7.718  0.5475 -0.2181  1.9267
  183SOPE   H9Y20985   0.837   0.896   7.724 -2.1691  0.3263  2.0788
  183SOPE  C31020986   0.825   1.018   7.894  0.0750  0.1805 -0.0793
  183SOPE  H10X20987   0.889   0.947   7.951 -1.3417  0.8437  2.4435
  183SOPE  H10Y20988   0.721   0.993   7.923  0.0928  0.4948  0.2669
  183SOPE  C31120989   0.862   1.162   7.938 -0.2972  0.0349  0.0489
  183SOPE  H11X20990   0.795   1.228   7.879  2.1448  1.7339 -0.9053
  183SOPE  H11Y20991   0.965   1.190   7.907  0.0340 -1.8330 -0.5759
  183SOPE  C31220992   0.848   1.180   8.088 -0.0588  0.1356 -0.7032
  183SOPE  H12X20993   0.909   1.110   8.150 -2.2059 -0.6589  0.5546
  183SOPE  H12Y20994   0.745   1.146   8.112  0.5584  0.1766  2.2866
  183SOPE  C31320995   0.850   1.327   8.129 -0.4811  0.1878 -0.5751
  183SOPE  H13X20996   0.948   1.371   8.099 -0.2959 -0.9564 -1.7126
  183SOPE  H13Y20997   0.849   1.333   8.240  1.0973 -1.9405 -0.4150
  183SOPE  C31420998   0.730   1.413   8.091 -0.0044  0.4741 -0.4752
  183SOPE  H14X20999   0.643   1.375   8.149 -1.1171  0.6167 -2.0166
  183SOPE  H14Y21000   0.715   1.405   7.981 -2.4495 -1.6105 -0.0341
  183SOPE  C31521001   0.748   1.557   8.142 -0.1271  0.0633 -0.3390
  183SOPE  H15X21002   0.817   1.611   8.074 -2.8123  0.9710 -2.4204
  183SOPE  H15Y21003   0.794   1.563   8.243  2.5070 -1.8964 -1.3428
  183SOPE  C31621004   0.614   1.635   8.156 -0.2403  0.1444  0.2027
  183SOPE  H16X21005   0.545   1.611   8.072 -0.1295 -3.0835  0.9669
  183SOPE  H16Y21006   0.634   1.744   8.159 -1.5695  0.3645  2.3479
  183SOPE  C31721007   0.549   1.588   8.284  0.0839 -0.1315  0.2498
  183SOPE  H17X21008   0.629   1.583   8.361 -0.0858  0.5239  0.4645
  183SOPE  H17Y21009   0.499   1.490   8.273 -0.3407  0.6353 -6.3899
  183SOPE  C31821010   0.443   1.687   8.334  0.0879 -0.1292 -0.0329
  183SOPE  H18X21011   0.354   1.690   8.267  0.5245 -0.2289 -0.6200
  183SOPE  H18Y21012   0.484   1.789   8.350  0.2799 -0.1880 -0.1498
  183SOPE  H18Z21013   0.412   1.653   8.435  1.1621 -1.7476 -0.2392
  184SOPE     N21014   6.749   1.461   6.136  0.2980  0.8646 -0.4886
  184SOPE   HN121015   6.650   1.467   6.106 -0.9823 -2.0640  2.9124
  184SOPE   HN221016   6.801   1.534   6.083 -0.3447 -0.0231 -2.3818
  184SOPE   HN321017   6.792   1.376   6.094 -0.0952  0.0323  0.7758
  184SOPE   C1221018   6.781   1.468   6.283  0.0022 -0.0063  0.7689
  184SOPE  H12A21019   6.691   1.449   6.344 -0.5198  0.9481  0.3052
  184SOPE  H12B21020   6.813   1.573   6.299 -0.0841  0.0841  0.3451
  184SOPE   C1121021   6.899   1.366   6.317 -0.2714 -0.3692  0.7526
  184SOPE  H11A21022   6.873   1.260   6.298  1.5398 -0.6587 -0.1596
  184SOPE  H11B21023   6.904   1.385   6.427 -0.2012 -2.9245  1.2224
  184SOPE     P21024   7.132   1.306   6.234 -0.0992  0.0325 -0.3746
  184SOPE   O1321025   7.267   1.370   6.232 -0.1633  0.1953 -0.0943
  184SOPE   O1421026   7.095   1.222   6.118 -0.4229  0.2513  0.1243
  184SOPE   O1221027   7.018   1.413   6.256 -0.5303  0.5439  0.1408
  184SOPE   O1121028   7.116   1.222   6.365 -0.5520 -0.3878 -0.0284
  184SOPE    C121029   7.208   1.216   6.474  0.1921  0.0070 -0.5561
  184SOPE    HA21030   7.293   1.284   6.451  0.4730  0.8374  2.6597
  184SOPE    HB21031   7.243   1.111   6.486 -1.3286 -0.3719  0.7462
  184SOPE    C221032   7.144   1.259   6.606  0.1304  0.5271  0.3911
  184SOPE    HS21033   7.105   1.361   6.592  0.1465  0.8249  2.3819
  184SOPE   O2121034   7.250   1.250   6.702 -0.1178 -0.0241  0.0630
  184SOPE   C2121035   7.254   1.328   6.806  0.2680 -0.2203 -0.4897
  184SOPE   O2221036   7.190   1.428   6.824 -0.2966 -0.2039  0.5038
  184SOPE   C2221037   7.358   1.263   6.899 -0.3053  0.2081  0.2945
  184SOPE   H2R21038   7.457   1.309   6.877 -0.8241  1.5535  0.6938
  184SOPE   H2S21039   7.364   1.153   6.883 -1.5103  0.0417  0.9248
  184SOPE    C321040   7.032   1.160   6.638 -0.3144 -0.3160 -0.4469
  184SOPE    HX21041   7.064   1.055   6.624 -0.5470 -0.4429 -0.0320
  184SOPE    HY21042   6.949   1.182   6.566 -2.3176 -1.1645  1.5328
  184SOPE   O3121043   6.984   1.189   6.778  0.2103 -0.5108 -0.0841
  184SOPE   C3121044   6.867   1.252   6.785  1.0114  0.0924  0.0543
  184SOPE   O3221045   6.783   1.253   6.696 -0.1437 -0.5419 -0.6537
  184SOPE   C3221046   6.848   1.311   6.921  0.4933  0.0966 -0.1963
  184SOPE   H2X21047   6.904   1.407   6.923 -2.2683  1.7948 -0.9354
  184SOPE   H2Y21048   6.891   1.242   6.998  0.3257  1.5258  1.2011
  184SOPE   C2321049   7.334   1.286   7.049  0.3560  0.2764 -0.1029
  184SOPE   H3R21050   7.262   1.369   7.066  1.4268  0.7864  2.0614
  184SOPE   H3S21051   7.431   1.314   7.095  2.0830 -3.1088 -1.5289
  184SOPE   C2421052   7.265   1.172   7.129 -0.2425  0.2115 -0.2031
  184SOPE   H4R21053   7.182   1.130   7.069 -0.0592 -0.1122 -0.2362
  184SOPE   H4S21054   7.341   1.099   7.165  0.3432  1.0494  0.2658
  184SOPE   C2521055   7.214   1.227   7.264 -0.0386 -0.4244  0.8920
  184SOPE   H5R21056   7.224   1.135   7.324 -2.8090 -1.4767 -0.1763
  184SOPE   H5S21057   7.286   1.302   7.304  1.7578 -0.8952 -1.3090
  184SOPE   C2621058   7.066   1.278   7.271 -0.5313  0.1438 -0.1883
  184SOPE   H6R21059   7.055   1.352   7.189 -0.7720 -1.6961 -1.8595
  184SOPE   H6S21060   6.988   1.201   7.253 -0.5930  0.2137 -0.2213
  184SOPE   C2721061   7.041   1.350   7.403  0.6472 -0.1272  0.0264
  184SOPE   H7R21062   7.126   1.421   7.414  0.6131 -0.5139  3.1008
  184SOPE   H7S21063   6.952   1.412   7.382  1.0116  0.3200 -0.2262
  184SOPE   C2821064   7.024   1.258   7.523  0.1069 -0.3319 -0.3387
  184SOPE   H8R21065   6.942   1.189   7.495  1.5595 -2.5551  0.7387
  184SOPE   H8S21066   7.113   1.193   7.536 -0.0136 -0.5466 -0.5923
  184SOPE   C2921067   7.000   1.347   7.642 -0.0657 -0.1855  0.0967
  184SOPE   H9121068   6.927   1.427   7.619 -1.1707 -0.8513  1.2261
  184SOPE  C21021069   7.035   1.334   7.769 -0.5091 -0.0692  0.4579
  184SOPE  H10121070   7.012   1.415   7.840  1.5725  1.7961 -0.9173
  184SOPE  C21121071   7.115   1.214   7.821 -0.6840  0.6261  0.2924
  184SOPE  H11R21072   7.179   1.174   7.740 -1.8882  0.4814 -0.6097
  184SOPE  H11S21073   7.043   1.134   7.850 -1.2937  0.8670 -0.5614
  184SOPE  C21221074   7.216   1.245   7.932  0.4950 -0.0233 -0.2936
  184SOPE  H12R21075   7.268   1.338   7.902 -1.7663  1.5569  0.5426
  184SOPE  H12S21076   7.280   1.154   7.941  1.0666  0.3263 -0.8223
  184SOPE  C21321077   7.158   1.258   8.069 -0.1730  0.0729 -0.9351
  184SOPE  H13R21078   7.070   1.325   8.057 -1.6483 -1.8617 -1.2361
  184SOPE  H13S21079   7.230   1.306   8.138  0.2229 -1.4280 -0.2749
  184SOPE  C21421080   7.117   1.123   8.129 -0.5187 -0.2852 -0.6530
  184SOPE  H14R21081   7.202   1.053   8.114  0.0025 -0.1108  1.3263
  184SOPE  H14S21082   7.037   1.088   8.061 -1.3734  1.4736 -0.5796
  184SOPE  C21521083   7.075   1.127   8.276  0.3311  0.3153 -0.3181
  184SOPE  H15R21084   7.009   1.216   8.280 -0.3279 -0.1717 -0.3322
  184SOPE  H15S21085   7.159   1.139   8.347  1.3694 -1.7262 -1.1644
  184SOPE  C21621086   6.998   1.004   8.322  0.3212  0.4650  0.5256
  184SOPE  H16R21087   6.909   0.986   8.258  1.4321  1.6597 -1.4053
  184SOPE  H16S21088   6.963   1.027   8.425 -0.5588  1.3737  0.0251
  184SOPE  C21721089   7.080   0.870   8.319 -0.0768 -0.0837  0.2149
  184SOPE  H17R21090   7.111   0.861   8.213 -0.7294  3.4162 -0.3617
  184SOPE  H17S21091   7.000   0.797   8.344 -0.6683  0.1169 -1.0370
  184SOPE  C21821092   7.198   0.871   8.408  0.9851 -0.3940  0.1970
  184SOPE  H18R21093   7.251   0.774   8.400  0.1453 -1.0115  1.9000
  184SOPE  H18S21094   7.167   0.865   8.515 -1.1209  0.9943 -0.2848
  184SOPE  H18T21095   7.268   0.951   8.376  0.3462  0.2318  0.3552
  184SOPE   C3321096   6.701   1.332   6.950  0.0267 -0.3888 -0.1005
  184SOPE   H3X21097   6.646   1.240   6.919 -0.1262 -0.2183 -0.3367
  184SOPE   H3Y21098   6.655   1.413   6.890 -0.6529 -0.5330  0.2135
  184SOPE   C3421099   6.682   1.361   7.100  0.1437  0.0368 -0.2169
  184SOPE   H4X21100   6.744   1.292   7.162 -2.3490 -3.5281 -1.5311
  184SOPE   H4Y21101   6.579   1.341   7.135  0.8259  1.3624  2.6899
  184SOPE   C3521102   6.715   1.507   7.144  0.5966  0.1577 -0.0498
  184SOPE   H5X21103   6.688   1.582   7.066  2.0073 -0.7240 -1.4202
  184SOPE   H5Y21104   6.824   1.523   7.158  0.5060  0.7604  0.0049
  184SOPE   C3621105   6.648   1.539   7.276 -0.0834  0.0851 -0.1071
  184SOPE   H6X21106   6.695   1.479   7.357  1.7110 -0.2415 -1.3569
  184SOPE   H6Y21107   6.542   1.510   7.271 -0.0738  0.1058 -0.4184
  184SOPE   C3721108   6.654   1.683   7.319 -0.2736 -0.0846  0.1258
  184SOPE   H7X21109   6.612   1.751   7.243 -1.0868 -0.6954  0.0209
  184SOPE   H7Y21110   6.755   1.719   7.348 -0.5097 -0.4692  1.4365
  184SOPE   C3821111   6.576   1.713   7.449  0.0704  0.0822 -1.3708
  184SOPE   H8X21112   6.468   1.702   7.423 -0.8126  1.7608  1.3632
  184SOPE   H8Y21113   6.585   1.818   7.483 -1.4294 -0.2673  0.1717
  184SOPE   C3921114   6.594   1.611   7.570  0.4853 -0.0519  0.0585
  184SOPE   H9X21115   6.703   1.591   7.581  1.0541  1.8793 -1.7750
  184SOPE   H9Y21116   6.552   1.511   7.546  0.1025  0.1197 -0.0016
  184SOPE  C31021117   6.545   1.662   7.706  0.1943  0.5082  0.3927
  184SOPE  H10X21118   6.434   1.657   7.714  0.2095 -0.4049  0.1148
  184SOPE  H10Y21119   6.566   1.766   7.739  0.8471  0.3150  0.5888
  184SOPE  C31121120   6.609   1.581   7.820  0.3686  0.2206  0.0137
  184SOPE  H11X21121   6.719   1.572   7.807  0.3478 -0.8930  0.5281
  184SOPE  H11Y21122   6.572   1.476   7.826  1.6456 -0.2436 -0.0299
  184SOPE  C31221123   6.604   1.642   7.959 -0.1233 -0.7983  0.7339
  184SOPE  H12X21124   6.498   1.627   7.987  0.3571 -1.7435  2.0966
  184SOPE  H12Y21125   6.633   1.750   7.962  0.9644 -1.1027  1.4562
  184SOPE  C31321126   6.698   1.570   8.053 -0.6070 -0.4401 -0.1624
  184SOPE  H13X21127   6.800   1.594   8.019 -0.0228 -1.4760  0.8236
  184SOPE  H13Y21128   6.674   1.462   8.042 -2.2859 -0.0831 -0.1892
  184SOPE  C31421129   6.692   1.609   8.197 -0.0062  0.1958  0.5999
  184SOPE  H14X21130   6.590   1.609   8.240 -0.8428 -0.2343 -1.3642
  184SOPE  H14Y21131   6.742   1.708   8.204  1.1873 -0.3130 -0.5434
  184SOPE  C31521132   6.766   1.502   8.279  0.1099  0.0658 -0.2869
  184SOPE  H15X21133   6.837   1.448   8.213  0.1506  0.0599 -0.2365
  184SOPE  H15Y21134   6.697   1.422   8.316 -2.0636  1.7430 -0.5755
  184SOPE  C31621135   6.830   1.548   8.408 -0.4023 -0.4868  0.0050
  184SOPE  H16X21136   6.750   1.561   8.484  0.8405 -1.5008  1.5128
  184SOPE  H16Y21137   6.872   1.650   8.396 -1.2304 -0.3197 -1.7963
  184SOPE  C31721138   6.930   1.451   8.470 -0.7941 -0.0446 -0.0204
  184SOPE  H17X21139   6.990   1.508   8.544  0.3313 -0.5439 -0.5354
  184SOPE  H17Y21140   6.988   1.416   8.381 -2.0959 -0.3035 -0.7813
  184SOPE  C31821141   6.863   1.322   8.534  0.3920 -0.6438  0.6930
  184SOPE  H18X21142   6.791   1.280   8.460 -0.9485  2.8656 -0.0776
  184SOPE  H18Y21143   6.826   1.346   8.636  0.5156  1.4383  0.2590
  184SOPE  H18Z21144   6.948   1.251   8.544  0.2950 -1.1335 -1.6375
  185SAPI   C1221145   3.415   5.370  11.022  0.2798 -0.2642  0.1295
  185SAPI    H221146   3.389   5.451  10.951  1.4125  2.2682  2.5129
  185SAPI    O221147   3.437   5.245  10.951 -0.0218  0.0095 -0.3379
  185SAPI   HO221148   3.354   5.216  10.912 -0.8544  1.8917  0.0082
  185SAPI   C1321149   3.540   5.420  11.097 -0.3126 -0.0784  0.0637
  185SAPI    H321150   3.520   5.516  11.149 -0.6209 -0.6238  0.9599
  185SAPI    O321151   3.647   5.447  10.997  0.8342  0.1135  0.6198
  185SAPI   HO321152   3.681   5.360  10.974 -0.2381  0.2608 -1.6780
  185SAPI   C1421153   3.570   5.318  11.206 -0.8383  0.5386 -0.9520
  185SAPI    H421154   3.599   5.224  11.155 -1.9212 -1.7948  2.5782
  185SAPI    O421155   3.687   5.352  11.281 -0.0372  0.8961  0.4593
  185SAPI   HO421156   3.740   5.273  11.297 -0.1858  0.8318  0.6329
  185SAPI   C1521157   3.448   5.304  11.299  0.2384 -0.2683 -0.2445
  185SAPI    H521158   3.440   5.409  11.333 -0.8438 -0.2122 -0.6519
  185SAPI    O521159   3.476   5.216  11.412 -0.6083  0.3501 -0.9108
  185SAPI   HO521160   3.404   5.153  11.421 -0.2403  0.1833  1.3931
  185SAPI   C1621161   3.322   5.265  11.220 -0.1957  0.5816 -0.6792
  185SAPI    H621162   3.333   5.160  11.184 -0.1114  0.0225  0.9235
  185SAPI    O621163   3.212   5.261  11.305 -0.2196  0.0599  0.1318
  185SAPI   HO621164   3.183   5.351  11.326  0.2683  0.1204  0.5392
  185SAPI   C1121165   3.290   5.364  11.103  0.7639  0.6571 -0.0391
  185SAPI    H121166   3.281   5.465  11.148 -2.3094  0.6607 -0.5422
  185SAPI     P21167   3.049   5.421  10.995  0.1309  0.3860  0.1648
  185SAPI   O1321168   3.038   5.504  11.116 -0.2038 -0.4852  0.4137
  185SAPI   O1421169   2.933   5.341  10.948  0.1024 -0.1835  0.1526
  185SAPI   O1221170   3.178   5.318  11.024 -0.1937 -0.1925  0.8061
  185SAPI   O1121171   3.116   5.506  10.878 -0.2870  0.6980 -0.2619
  185SAPI    C121172   3.201   5.448  10.774  0.5657  0.0464  0.0818
  185SAPI    HA21173   3.298   5.501  10.773  0.7764 -0.3502 -0.3915
  185SAPI    HB21174   3.202   5.337  10.778 -0.6712 -0.0316 -1.5323
  185SAPI    C221175   3.127   5.469  10.636  0.4147  0.8939 -0.0612
  185SAPI    HS21176   3.040   5.400  10.636  0.2005  1.1610  0.1780
  185SAPI   O2121177   3.205   5.447  10.522  0.0529 -0.7179 -0.0570
  185SAPI   C2121178   3.231   5.319  10.502 -0.0112 -0.5156  0.5008
  185SAPI   O2221179   3.190   5.227  10.580 -0.1943 -0.2572 -0.2903
  185SAPI   C2221180   3.313   5.297  10.380  0.0387 -0.3114 -0.5489
  185SAPI   H2R21181   3.300   5.388  10.317  0.2178  1.6271  2.1514
  185SAPI   H2S21182   3.421   5.295  10.404  0.5007 -2.0577 -2.5335
  185SAPI    C321183   3.076   5.615  10.634 -0.6986 -0.5334 -0.0701
  185SAPI    HX21184   3.170   5.674  10.633 -1.2126  0.3025  0.3765
  185SAPI    HY21185   3.024   5.637  10.730  2.1484 -0.1797  1.4472
  185SAPI   O3121186   2.996   5.644  10.516  1.4563 -0.6202  0.1587
  185SAPI   C3121187   2.871   5.642  10.541 -0.6643 -0.5311 -1.0785
  185SAPI   O3221188   2.825   5.587  10.638 -0.0428 -0.1698  0.3174
  185SAPI   C3221189   2.798   5.700  10.422 -0.0419  0.1374  0.0881
  185SAPI   H2X21190   2.801   5.811  10.416 -2.4373  0.2082 -0.3301
  185SAPI   H2Y21191   2.689   5.682  10.435 -0.1334  1.0811  0.6526
  185SAPI   C2321192   3.279   5.166  10.298 -0.1946 -0.0760  0.0459
  185SAPI   H3R21193   3.285   5.075  10.362 -2.9260  0.2023  0.7838
  185SAPI   H3S21194   3.351   5.154  10.215 -1.1409 -0.5613 -0.7160
  185SAPI   C2421195   3.137   5.178  10.236 -0.3806 -0.4675  0.0704
  185SAPI   H4R21196   3.066   5.196  10.320  0.0124 -1.0338  0.5278
  185SAPI   H4S21197   3.103   5.082  10.192  1.4014 -0.7259 -0.7853
  185SAPI   C2521198   3.122   5.295  10.142  0.3076 -0.4140 -0.0137
  185SAPI   H5R21199   3.092   5.395  10.175 -1.0459 -0.6305 -0.5657
  185SAPI   C2621200   3.127   5.294  10.006 -0.2504 -0.0215  0.6765
  185SAPI   H6R21201   3.116   5.391   9.955  3.3983 -0.0488 -0.2552
  185SAPI   C2721202   3.165   5.184   9.911 -0.1845 -0.1680  0.7951
  185SAPI   H7R21203   3.137   5.087   9.958  0.4112  0.1700  1.8646
  185SAPI   H7S21204   3.276   5.181   9.897 -0.5607  1.3208 -3.2575
  185SAPI   C2821205   3.100   5.196   9.770  0.5841  0.1000 -0.0078
  185SAPI   H8R21206   2.992   5.207   9.782  0.6891 -1.2325  2.5402
  185SAPI   C2921207   3.145   5.182   9.647  0.2086  0.1006 -0.0216
  185SAPI   H9R21208   3.072   5.206   9.568 -2.2835  0.8973  2.4610
  185SAPI  C21021209   3.284   5.162   9.596 -0.0076  0.1210 -0.4005
  185SAPI  H10R21210   3.297   5.075   9.527 -0.6777 -0.5813  0.3591
  185SAPI  H10S21211   3.353   5.140   9.680  1.4738 -1.6521 -2.0173
  185SAPI  C21121212   3.335   5.281   9.521 -0.2372 -0.0009 -0.2098
  185SAPI  H11R21213   3.310   5.370   9.582 -2.4912  0.5544 -1.8803
  185SAPI  C21221214   3.406   5.298   9.406  0.6104  0.7805  0.0285
  185SAPI  H12R21215   3.439   5.402   9.390 -0.3185  1.7167  3.6815
  185SAPI  C21321216   3.439   5.198   9.295  0.7908 -0.2101  0.8224
  185SAPI  H13R21217   3.347   5.189   9.234  0.7460  1.4288  0.6325
  185SAPI  H13S21218   3.465   5.094   9.326  3.3319  0.0143 -0.3650
  185SAPI  C21421219   3.562   5.255   9.227  0.6758  0.3480 -0.2408
  185SAPI  H14R21220   3.639   5.293   9.296  1.2014  1.0789 -1.2181
  185SAPI  C21521221   3.575   5.269   9.093  0.0086 -0.0503 -0.4324
  185SAPI  H15R21222   3.654   5.337   9.058  0.2005 -0.1144 -0.1268
  185SAPI  C21621223   3.471   5.235   8.987  0.2721 -0.3240 -0.3846
  185SAPI  H16R21224   3.410   5.324   8.959 -1.7605 -2.1727 -2.1033
  185SAPI  H16S21225   3.394   5.172   9.036  0.2939  0.7435  1.0557
  185SAPI  C21721226   3.523   5.166   8.862  0.6826  0.1853 -0.3682
  185SAPI  H17R21227   3.441   5.158   8.787  1.3400  1.3318 -1.2370
  185SAPI  H17S21228   3.550   5.060   8.880 -0.5133  0.0590  0.7658
  185SAPI  C21821229   3.643   5.249   8.801 -0.3799 -0.0368 -0.4482
  185SAPI  H18R21230   3.722   5.231   8.877  1.6464  0.4328 -2.3659
  185SAPI  H18S21231   3.597   5.351   8.799 -5.6500 -2.2631 -1.1393
  185SAPI  C21921232   3.689   5.187   8.671 -0.3877  0.3223 -0.9708
  185SAPI  H19R21233   3.599   5.207   8.609 -0.6578 -2.1827 -1.4300
  185SAPI  H19S21234   3.702   5.078   8.682  0.4643  0.4970 -0.2042
  185SAPI  C22021235   3.818   5.244   8.601  0.5202  0.1314 -0.0830
  185SAPI  H20R21236   3.812   5.355   8.596 -1.4207  0.1604  2.1040
  185SAPI  H20S21237   3.841   5.210   8.498  2.0166  0.6061  0.0816
  185SAPI  H20T21238   3.909   5.225   8.661  1.2912 -0.3439 -1.3844
  185SAPI   C3321239   2.849   5.649  10.283 -0.1016 -0.1938 -0.8215
  185SAPI   H3X21240   2.868   5.539  10.288  0.5638 -0.0757 -0.6909
  185SAPI   H3Y21241   2.947   5.698  10.267 -0.5157  0.4324 -1.4362
  185SAPI   C3421242   2.750   5.685  10.165  0.4663  0.2549 -0.6254
  185SAPI   H4X21243   2.677   5.766  10.188 -1.2989 -0.8433 -2.2925
  185SAPI   H4Y21244   2.670   5.609  10.153  1.3987 -0.7360 -0.6122
  185SAPI   C3521245   2.828   5.718  10.038  0.1706  0.3545  0.0833
  185SAPI   H5X21246   2.917   5.783  10.056 -0.0600  0.4827  0.7485
  185SAPI   H5Y21247   2.763   5.760   9.958 -0.1552 -3.1341 -1.5994
  185SAPI   C3621248   2.882   5.587   9.981  0.1281  0.6616  0.0789
  185SAPI   H6X21249   2.808   5.505   9.968  0.1308  0.4510  1.3670
  185SAPI   H6Y21250   2.955   5.545  10.054 -0.3008 -0.1831  0.0357
  185SAPI   C3721251   2.933   5.600   9.843 -0.4425 -0.0610  0.6738
  185SAPI   H7X21252   2.980   5.503   9.819  1.0625  1.1339 -1.4090
  185SAPI   H7Y21253   3.002   5.686   9.827 -1.4391  0.4603 -0.9934
  185SAPI   C3821254   2.824   5.627   9.729 -0.2167  0.1807 -0.2476
  185SAPI   H8X21255   2.767   5.717   9.762 -1.6882 -1.2824  1.3955
  185SAPI   H8Y21256   2.752   5.542   9.740  1.2576 -1.1515 -0.7172
  185SAPI   C3921257   2.885   5.628   9.588 -0.4803 -0.0806  0.0916
  185SAPI   H9X21258   2.964   5.707   9.592  0.2362 -0.8128  0.5161
  185SAPI   H9Y21259   2.814   5.671   9.514 -0.2854  0.2063  0.0715
  185SAPI  C31021260   2.919   5.484   9.536  0.1004 -0.7008 -0.3550
  185SAPI  H10X21261   2.834   5.417   9.560 -0.6030 -0.1826 -1.3993
  185SAPI  H10Y21262   2.997   5.442   9.604  0.4079 -0.5267 -0.5989
  185SAPI  C31121263   2.966   5.482   9.386  0.6072 -0.1030  0.1154
  185SAPI  H11X21264   2.887   5.516   9.315  0.6928 -0.6732 -0.2627
  185SAPI  H11Y21265   2.981   5.375   9.359  1.9287 -0.1670  1.0393
  185SAPI  C31221266   3.083   5.569   9.350 -0.1732 -0.4148 -1.1469
  185SAPI  H12X21267   3.153   5.568   9.437 -2.4821 -1.9256  0.7639
  185SAPI  H12Y21268   3.040   5.671   9.339  0.6462 -0.0512 -1.0190
  185SAPI  C31321269   3.145   5.521   9.219 -0.1021 -0.8699  0.2600
  185SAPI  H13X21270   3.065   5.526   9.142  1.0962  0.4934 -0.9224
  185SAPI  H13Y21271   3.199   5.424   9.219  1.3971 -0.0846 -1.5876
  185SAPI  C31421272   3.246   5.632   9.176 -0.3651  0.3426 -0.5130
  185SAPI  H14X21273   3.314   5.657   9.260 -0.0171  0.6317 -0.8796
  185SAPI  H14Y21274   3.187   5.720   9.140 -2.0709  0.1761  1.8158
  185SAPI  C31521275   3.339   5.579   9.061  0.5441  0.2492  0.4569
  185SAPI  H15X21276   3.274   5.513   8.998  0.1033 -0.5835  1.7666
  185SAPI  H15Y21277   3.418   5.512   9.100  2.2448  3.0061  1.8371
  185SAPI  C31621278   3.394   5.694   8.981  0.3654  0.3684  0.0386
  185SAPI  H16X21279   3.459   5.752   9.051 -0.8928 -0.2287  1.7410
  185SAPI  H16Y21280   3.312   5.761   8.946  0.5282 -0.1501 -1.3672
  185SAPI  C31721281   3.493   5.632   8.879  0.0185 -0.4702  0.4745
  185SAPI  H17X21282   3.431   5.584   8.799 -0.6235 -0.3356  0.8833
  185SAPI  H17Y21283   3.554   5.560   8.936 -2.5108 -1.4113  2.0974
  185SAPI  C31821284   3.584   5.739   8.821  0.1502  0.2656 -0.3108
  185SAPI  H18X21285   3.551   5.768   8.719 -1.0393  0.2769  0.0777
  185SAPI  H18Y21286   3.688   5.701   8.818 -0.2030 -0.5775 -1.9880
  185SAPI  H18Z21287   3.583   5.834   8.879 -0.3239  0.8245 -1.2259
  186SAPI   C1221288   4.803   3.402  10.749 -0.7926 -0.4620 -0.3091
  186SAPI    H221289   4.731   3.419  10.666  0.0756 -1.5189 -1.3017
  186SAPI    O221290   4.750   3.296  10.831  0.5726 -0.6414  0.3032
  186SAPI   HO221291   4.714   3.240  10.762  0.9368  0.8580 -1.1502
  186SAPI   C1321292   4.943   3.396  10.706  0.2036 -0.0978  0.1071
  186SAPI    H321293   4.974   3.493  10.661 -0.1727  0.5585  1.2356
  186SAPI    O321294   4.935   3.305  10.601  0.1516 -0.1857  0.3117
  186SAPI   HO321295   4.883   3.336  10.527  0.4135 -0.6331 -0.0609
  186SAPI   C1421296   5.046   3.368  10.815 -0.2382 -0.0991  0.4716
  186SAPI    H421297   5.015   3.271  10.859 -2.7514 -0.4466 -1.9066
  186SAPI    O421298   5.177   3.344  10.766 -0.3452 -0.6109  0.1613
  186SAPI   HO421299   5.196   3.429  10.724  0.3081 -1.8738 -2.1556
  186SAPI   C1521300   5.035   3.479  10.916 -0.1378 -0.8461  0.3291
  186SAPI    H521301   5.085   3.563  10.862 -0.3505 -0.2663  1.0272
  186SAPI    O521302   5.110   3.447  11.030 -0.1491  0.2853 -0.0223
  186SAPI   HO521303   5.162   3.524  11.055 -0.5001 -0.5195  3.3848
  186SAPI   C1621304   4.891   3.513  10.959  0.0955  0.0326 -0.0565
  186SAPI    H621305   4.861   3.435  11.032  2.6918  0.5199  1.5657
  186SAPI    O621306   4.901   3.633  11.036  0.0458  0.0419  0.4784
  186SAPI   HO621307   4.822   3.638  11.091 -0.2823  1.0442 -0.0701
  186SAPI   C1121308   4.797   3.531  10.842  0.7685  0.4079  0.7260
  186SAPI    H121309   4.837   3.613  10.779 -0.2257 -0.2018 -0.7421
  186SAPI     P21310   4.574   3.679  10.806 -0.3101  0.0322  0.1288
  186SAPI   O1321311   4.633   3.714  10.671 -0.7977  0.2728 -0.1099
  186SAPI   O1421312   4.554   3.792  10.900  0.4329 -0.2134  0.5825
  186SAPI   O1221313   4.664   3.565  10.883 -0.4863 -0.3939  0.2736
  186SAPI   O1121314   4.441   3.604  10.787  0.0626 -0.0329  0.1083
  186SAPI    C121315   4.429   3.461  10.793 -0.2710  0.0007  0.0646
  186SAPI    HA21316   4.488   3.416  10.875  0.3280  0.9945  0.1895
  186SAPI    HB21317   4.324   3.452  10.829 -0.5134  0.0675 -0.6070
  186SAPI    C221318   4.436   3.388  10.659  0.2040 -0.2153  0.7029
  186SAPI    HS21319   4.542   3.386  10.625  0.1721 -1.3055  0.6352
  186SAPI   O2121320   4.340   3.443  10.572 -0.2179  0.0945 -0.8350
  186SAPI   C2121321   4.374   3.461  10.451  0.2456  0.2157  0.8137
  186SAPI   O2221322   4.486   3.462  10.408 -0.6763  0.4582  0.0884
  186SAPI   C2221323   4.250   3.465  10.358  0.0226 -0.0446 -0.2362
  186SAPI   H2R21324   4.204   3.366  10.378  1.4782 -0.2196  2.5239
  186SAPI   H2S21325   4.189   3.549  10.396  0.0118 -0.7642  1.3526
  186SAPI    C321326   4.398   3.239  10.671  0.8280  0.3350 -0.3885
  186SAPI    HX21327   4.290   3.227  10.695  1.2218 -1.1902  0.6783
  186SAPI    HY21328   4.458   3.196  10.754 -0.2887 -0.2845  0.1006
  186SAPI   O3121329   4.418   3.165  10.544  0.8117  0.4803  0.3311
  186SAPI   C3121330   4.532   3.110  10.526 -0.1554 -0.1697 -0.2671
  186SAPI   O3221331   4.620   3.114  10.612 -0.1297  0.3948  0.1496
  186SAPI   C3221332   4.540   3.059  10.382 -0.3389  0.2683 -0.1382
  186SAPI   H2X21333   4.620   3.120  10.336 -0.8971  0.9255 -0.2364
  186SAPI   H2Y21334   4.440   3.075  10.336 -0.2643  0.8273 -0.1114
  186SAPI   C2321335   4.297   3.479  10.215  0.1561  0.0275  0.1077
  186SAPI   H3R21336   4.348   3.386  10.180  0.4155  0.2923 -0.2262
  186SAPI   H3S21337   4.384   3.547  10.201 -0.4765  1.0892  1.2800
  186SAPI   C2421338   4.178   3.521  10.121 -0.2643  0.2692  0.3661
  186SAPI   H4R21339   4.237   3.518  10.027 -0.1512  2.0111  0.3698
  186SAPI   H4S21340   4.148   3.625  10.146  1.1723  0.7881 -0.0357
  186SAPI   C2521341   4.061   3.426  10.125  0.0866  0.3556  0.1311
  186SAPI   H5R21342   4.015   3.414  10.224  0.2575  1.7334  0.3916
  186SAPI   C2621343   4.011   3.352  10.026  0.4472  0.4444 -0.1021
  186SAPI   H6R21344   3.922   3.290  10.044  1.7014 -2.8208 -4.2681
  186SAPI   C2721345   4.054   3.336   9.881 -0.1571  0.2359 -0.0447
  186SAPI   H7R21346   4.007   3.252   9.826  0.0423 -0.7149  1.2159
  186SAPI   H7S21347   4.164   3.323   9.873 -0.1249  0.8105 -0.6005
  186SAPI   C2821348   4.034   3.467   9.812 -0.0522  0.0197 -0.3911
  186SAPI   H8R21349   4.037   3.559   9.873  1.2805  0.0204 -0.4426
  186SAPI   C2921350   4.012   3.483   9.678 -0.5635  0.0020 -0.3944
  186SAPI   H9R21351   4.006   3.587   9.644 -0.4191 -0.6783 -2.6086
  186SAPI  C21021352   4.016   3.380   9.569 -0.4881 -0.1937  1.1007
  186SAPI  H10R21353   3.973   3.425   9.477  1.4973  1.0439  0.7516
  186SAPI  H10S21354   3.947   3.296   9.592 -2.6387  0.7794 -1.4452
  186SAPI  C21121355   4.154   3.328   9.546  0.1496  0.0423  0.1458
  186SAPI  H11R21356   4.199   3.265   9.625 -1.1914 -0.7564  0.2824
  186SAPI  C21221357   4.221   3.353   9.430 -0.3120 -0.3947  0.2839
  186SAPI  H12R21358   4.325   3.315   9.436 -0.6858 -1.5628 -0.4411
  186SAPI  C21321359   4.179   3.430   9.316  1.4320  0.4981  0.2864
  186SAPI  H13R21360   4.268   3.486   9.281  1.4097 -0.3951 -1.2353
  186SAPI  H13S21361   4.097   3.500   9.340 -0.4485 -2.0132  1.4352
  186SAPI  C21421362   4.124   3.342   9.208  0.5796  0.2157 -0.1518
  186SAPI  H14R21363   4.129   3.233   9.222  3.0169  0.2382 -0.4804
  186SAPI  C21521364   4.075   3.385   9.091  0.7866  0.1646  0.3070
  186SAPI  H15R21365   4.057   3.310   9.012  0.9033 -0.8828  1.2666
  186SAPI  C21621366   4.052   3.531   9.062  0.1142  0.4507 -0.5151
  186SAPI  H16R21367   4.119   3.563   8.979  2.7807 -1.7962  0.6609
  186SAPI  H16S21368   4.084   3.591   9.149  0.1226  0.4424 -0.5123
  186SAPI  C21721369   3.901   3.567   9.034 -0.4497 -0.3823 -0.8169
  186SAPI  H17R21370   3.878   3.675   9.023  0.1095  0.0196  1.6627
  186SAPI  H17S21371   3.843   3.533   9.122  0.9495  1.1175  0.7138
  186SAPI  C21821372   3.821   3.508   8.912  0.4832  0.3570 -0.2638
  186SAPI  H18R21373   3.713   3.522   8.930  0.0801 -2.8642  0.0671
  186SAPI  H18S21374   3.844   3.399   8.922  1.6527  0.7650  1.7553
  186SAPI  C21921375   3.862   3.561   8.782  0.5002  0.3554  0.0156
  186SAPI  H19R21376   3.968   3.543   8.755  0.4592  0.7510 -0.4076
  186SAPI  H19S21377   3.843   3.670   8.791  1.7265  0.5479  0.3855
  186SAPI  C22021378   3.780   3.493   8.679  0.0580 -0.6237 -0.0142
  186SAPI  H20R21379   3.674   3.514   8.701 -0.1187 -2.2638  0.8136
  186SAPI  H20S21380   3.799   3.383   8.679  0.0524 -0.6250 -0.6905
  186SAPI  H20T21381   3.797   3.535   8.578 -0.1555  0.2807  0.3260
  186SAPI   C3321382   4.602   2.915  10.374 -0.1737  0.1256  0.0181
  186SAPI   H3X21383   4.538   2.853  10.440  0.6208  0.2837  0.9509
  186SAPI   H3Y21384   4.706   2.924  10.414  0.2395  1.3886 -1.3135
  186SAPI   C3421385   4.622   2.865  10.232 -0.1946 -0.2026 -0.5177
  186SAPI   H4X21386   4.710   2.908  10.179  0.8938  0.2938  1.6525
  186SAPI   H4Y21387   4.528   2.877  10.173  0.1913  0.7212 -0.9600
  186SAPI   C3521388   4.646   2.710  10.232 -0.0335 -0.8525 -0.7271
  186SAPI   H5X21389   4.555   2.656  10.264  0.5975 -2.3211 -1.3547
  186SAPI   H5Y21390   4.737   2.677  10.287 -0.1707  0.1951  0.1300
  186SAPI   C3621391   4.664   2.648  10.089 -1.0850  0.2188  0.2611
  186SAPI   H6X21392   4.580   2.676  10.022 -0.4713  3.2107  0.6660
  186SAPI   H6Y21393   4.666   2.539  10.109 -0.5124  0.5995  2.4515
  186SAPI   C3721394   4.797   2.695  10.033 -0.3471 -0.5926 -0.6272
  186SAPI   H7X21395   4.878   2.667  10.105  0.3223  0.1482 -1.0795
  186SAPI   H7Y21396   4.792   2.800   9.997 -1.8121  0.0141  1.2699
  186SAPI   C3821397   4.804   2.614   9.903  0.3390  0.4995  0.0157
  186SAPI   H8X21398   4.721   2.635   9.832  0.5993  0.6064 -0.2636
  186SAPI   H8Y21399   4.809   2.508   9.933  0.7674  0.9393  1.5404
  186SAPI   C3921400   4.938   2.648   9.823 -0.5853 -0.0677  0.3956
  186SAPI   H9X21401   5.022   2.621   9.890 -0.7458  2.3656  1.6045
  186SAPI   H9Y21402   4.946   2.758   9.814 -1.9133  0.2265  2.4857
  186SAPI  C31021403   4.954   2.576   9.685 -0.0092  0.0698 -0.8229
  186SAPI  H10X21404   4.944   2.467   9.705 -1.8357  0.5760  1.2200
  186SAPI  H10Y21405   5.059   2.598   9.657  0.7806  0.2344  2.0572
  186SAPI  C31121406   4.853   2.625   9.573  0.3682 -0.0147 -0.1868
  186SAPI  H11X21407   4.844   2.734   9.589  0.7745 -0.3740  2.6787
  186SAPI  H11Y21408   4.752   2.584   9.593  0.4995 -1.9759 -3.1957
  186SAPI  C31221409   4.910   2.577   9.437 -0.5277 -0.1507 -0.7389
  186SAPI  H12X21410   4.923   2.467   9.434 -1.5616 -0.2655 -1.2894
  186SAPI  H12Y21411   5.008   2.627   9.424 -0.8328  1.6345  3.1833
  186SAPI  C31321412   4.833   2.621   9.317  0.1751  0.1017 -0.1323
  186SAPI  H13X21413   4.825   2.731   9.310 -3.4290 -0.1288 -0.9793
  186SAPI  H13Y21414   4.728   2.584   9.325  0.9563 -1.7680  1.8653
  186SAPI  C31421415   4.881   2.548   9.189  0.3114 -0.2263 -0.4240
  186SAPI  H14X21416   4.892   2.440   9.213 -1.8100 -0.2917  0.3705
  186SAPI  H14Y21417   4.986   2.583   9.182 -0.1736  0.8150 -3.0963
  186SAPI  C31521418   4.804   2.577   9.061 -0.5233 -0.7427 -0.1112
  186SAPI  H15X21419   4.694   2.589   9.070 -0.4735  0.0577 -0.5712
  186SAPI  H15Y21420   4.827   2.498   8.987 -2.0114 -2.2167  0.9766
  186SAPI  C31621421   4.851   2.709   8.988 -0.3547 -0.1652 -0.0265
  186SAPI  H16X21422   4.962   2.714   8.982 -0.2076 -1.0121  1.7047
  186SAPI  H16Y21423   4.817   2.790   9.056 -1.7638  0.1817 -1.1241
  186SAPI  C31721424   4.799   2.742   8.846  0.4493  0.4931  0.3888
  186SAPI  H17X21425   4.843   2.838   8.812 -0.5906  1.0839  0.7091
  186SAPI  H17Y21426   4.690   2.762   8.851  0.5513  1.5800 -1.2679
  186SAPI  C31821427   4.815   2.633   8.743 -0.1187 -0.5966  0.0632
  186SAPI  H18X21428   4.922   2.605   8.726 -1.0335 -1.5610 -4.8872
  186SAPI  H18Y21429   4.779   2.670   8.645 -1.9504 -0.4386  0.7889
  186SAPI  H18Z21430   4.768   2.539   8.780 -3.3208  1.1158  0.4348
  187SAPI   C1221431   0.319   4.286   6.017 -0.6024  0.1807  0.3879
  187SAPI    H221432   0.377   4.369   6.064  0.9286 -0.1390 -0.8934
  187SAPI    O221433   0.190   4.316   5.981  0.4830  0.6346 -0.1195
  187SAPI   HO221434   0.154   4.347   6.064 -0.7425  1.6848 -1.0174
  187SAPI   C1321435   0.392   4.248   5.890 -0.7871 -0.0024 -0.2750
  187SAPI    H321436   0.493   4.210   5.917 -1.1122 -1.3255 -0.8805
  187SAPI    O321437   0.417   4.355   5.798 -0.0922 -0.5107 -0.5468
  187SAPI   HO321438   0.331   4.360   5.755 -0.2902  1.0829  0.0179
  187SAPI   C1421439   0.321   4.125   5.831  0.5018  0.6872 -0.0001
  187SAPI    H421440   0.221   4.156   5.795  0.3779  0.3954  0.0980
  187SAPI    O421441   0.387   4.088   5.707  0.1155  0.4488 -0.3116
  187SAPI   HO421442   0.470   4.053   5.740 -1.5802 -2.0805  1.4730
  187SAPI   C1521443   0.309   4.013   5.931 -0.3382 -0.5602 -0.3901
  187SAPI    H521444   0.414   3.983   5.950 -0.0650  0.5549 -0.0924
  187SAPI    O521445   0.241   3.902   5.871 -0.5181  0.2030 -0.2244
  187SAPI   HO521446   0.151   3.924   5.846 -0.5733  1.0140  0.6658
  187SAPI   C1621447   0.240   4.050   6.065  0.5727 -0.0076  0.4817
  187SAPI    H621448   0.132   4.063   6.046  0.8120 -0.7710 -1.5023
  187SAPI    O621449   0.254   3.947   6.158  0.6321 -0.4276 -0.3445
  187SAPI   HO621450   0.165   3.912   6.173  1.2549 -1.4602  1.0100
  187SAPI   C1121451   0.309   4.179   6.124 -0.6395 -0.4781  0.4520
  187SAPI    H121452   0.406   4.144   6.162 -0.8977 -2.9853 -1.1040
  187SAPI     P21453   0.314   4.298   6.362  0.3368 -0.1425  0.0264
  187SAPI   O1321454   0.228   4.377   6.453 -0.4066 -0.4822  0.3496
  187SAPI   O1421455   0.434   4.370   6.312 -0.4335 -0.2301  0.0308
  187SAPI   O1221456   0.238   4.239   6.233  0.0371 -0.2267 -0.3307
  187SAPI   O1121457   0.357   4.166   6.447 -0.0004 -0.2098 -0.0250
  187SAPI    C121458   0.261   4.066   6.488  0.2944  0.2034  0.4561
  187SAPI    HA21459   0.166   4.122   6.493  1.0209  1.5247 -0.0817
  187SAPI    HB21460   0.244   3.992   6.407  2.6272 -2.7424  2.5462
  187SAPI    C221461   0.279   4.005   6.628  0.2938 -1.0701 -0.0419
  187SAPI    HS21462   0.173   3.995   6.661  0.1282  0.6351  0.0129
  187SAPI   O2121463   0.334   4.100   6.715  0.0748 -0.3468 -0.3377
  187SAPI   C2121464   0.271   4.206   6.741  0.5931  0.4696 -0.1361
  187SAPI   O2221465   0.160   4.235   6.696  0.5030  0.3028 -0.0968
  187SAPI   C2221466   0.337   4.272   6.863  0.0770  0.2359 -0.6706
  187SAPI   H2R21467   0.284   4.238   6.955  0.1407 -0.2348 -0.8061
  187SAPI   H2S21468   0.444   4.243   6.865  0.6372  2.1429 -1.7941
  187SAPI    C321469   0.364   3.875   6.626  0.2622  0.5250  0.1244
  187SAPI    HX21470   0.448   3.892   6.555 -0.2900 -0.0640 -0.6915
  187SAPI    HY21471   0.291   3.807   6.577  0.6871  0.9272 -1.0833
  187SAPI   O3121472   0.401   3.831   6.758  0.1712  0.0572 -0.2362
  187SAPI   C3121473   0.524   3.860   6.805 -0.9870 -0.2122 -0.0539
  187SAPI   O3221474   0.603   3.931   6.750  0.1447  0.2570 -0.1453
  187SAPI   C3221475   0.545   3.797   6.943 -0.2438  0.0517 -0.1668
  187SAPI   H2X21476   0.471   3.715   6.961  0.4785 -0.7591 -0.8379
  187SAPI   H2Y21477   0.524   3.870   7.024 -1.8548  0.4048 -0.8881
  187SAPI   C2321478   0.343   4.428   6.863  0.6397 -0.1376 -0.0807
  187SAPI   H3R21479   0.290   4.473   6.776  0.0662  0.6506  0.6701
  187SAPI   H3S21480   0.443   4.475   6.874  0.6899 -0.5985  1.5895
  187SAPI   C2421481   0.260   4.486   6.983 -0.0940  0.2110 -0.1774
  187SAPI   H4R21482   0.165   4.429   6.981  0.0140 -0.0111  0.5280
  187SAPI   H4S21483   0.226   4.589   6.963 -0.8559 -0.1967 -0.9786
  187SAPI   C2521484   0.331   4.462   7.115 -0.2543  0.1858  0.0293
  187SAPI   H5R21485   0.408   4.384   7.118 -0.9982 -0.5174  2.1234
  187SAPI   C2621486   0.301   4.524   7.230  0.0856  0.4294 -0.4595
  187SAPI   H6R21487   0.366   4.495   7.314  2.0990 -1.1067 -2.4957
  187SAPI   C2721488   0.193   4.627   7.260 -0.3304  0.3223 -0.1083
  187SAPI   H7R21489   0.131   4.661   7.173  3.6260  2.1326 -2.3427
  187SAPI   H7S21490   0.258   4.715   7.282  2.0250 -0.9382 -1.8224
  187SAPI   C2821491   0.105   4.604   7.379 -0.1186  0.1587 -0.5613
  187SAPI   H8R21492   0.003   4.567   7.364  0.2988 -1.2794  0.0753
  187SAPI   C2921493   0.138   4.632   7.503  0.1960  0.0147  0.8043
  187SAPI   H9R21494   0.055   4.619   7.574  0.4262 -1.5672  0.7923
  187SAPI  C21021495   0.262   4.693   7.555 -0.2440 -0.2507  0.3346
  187SAPI  H10R21496   0.265   4.798   7.517 -0.0415 -0.6253 -0.7118
  187SAPI  H10S21497   0.346   4.635   7.512  0.5100 -0.1728  1.6856
  187SAPI  C21121498   0.256   4.692   7.704  0.4271  0.0193 -0.2580
  187SAPI  H11R21499   0.174   4.644   7.760  1.7578 -2.6996 -0.5473
  187SAPI  C21221500   0.341   4.763   7.777 -0.4047 -0.6353  0.3427
  187SAPI  H12R21501   0.322   4.769   7.885  0.8479  0.5164  0.5236
  187SAPI  C21321502   0.450   4.857   7.726 -0.1729  0.0874 -0.3179
  187SAPI  H13R21503   0.480   4.830   7.622  1.5540  1.2819 -0.1616
  187SAPI  H13S21504   0.550   4.836   7.772  0.2019  1.9148 -0.2880
  187SAPI  C21421505   0.411   5.001   7.721  0.5092  0.2758  0.4545
  187SAPI  H14R21506   0.352   5.019   7.630 -0.8974 -0.5045  1.2025
  187SAPI  C21521507   0.433   5.095   7.818  0.1745  0.0194 -0.6010
  187SAPI  H15R21508   0.399   5.198   7.804  3.0917  1.1511  0.1386
  187SAPI  C21621509   0.497   5.064   7.950  0.3173 -0.0958  0.1744
  187SAPI  H16R21510   0.577   5.140   7.964  0.8930 -0.8714  1.1128
  187SAPI  H16S21511   0.534   4.959   7.956  0.8217  0.0602 -0.1793
  187SAPI  C21721512   0.407   5.099   8.075  0.3032  0.0926  0.5070
  187SAPI  H17R21513   0.392   5.209   8.077  2.9467  0.5036 -0.2080
  187SAPI  H17S21514   0.465   5.081   8.168  0.1892 -0.4563  0.4734
  187SAPI  C21821515   0.275   5.023   8.083  0.1782  0.5052  0.6478
  187SAPI  H18R21516   0.285   4.912   8.076  0.0221  0.6644 -2.9462
  187SAPI  H18S21517   0.223   5.048   7.988  1.5461  0.4939 -0.1160
  187SAPI  C21921518   0.180   5.072   8.193  0.3269  0.2521 -0.1958
  187SAPI  H19R21519   0.144   5.175   8.172 -0.9264  0.2629  1.9106
  187SAPI  H19S21520   0.230   5.071   8.292  0.3233 -0.0145 -0.1952
  187SAPI  C22021521   0.067   4.972   8.203  0.0331 -0.4040  0.4603
  187SAPI  H20R21522   0.020   4.947   8.105 -0.4037 -0.3608  0.6599
  187SAPI  H20S21523  -0.015   5.011   8.267 -2.8535 -1.9050 -2.1793
  187SAPI  H20T21524   0.096   4.878   8.255  0.3251 -0.3123  0.4627
  187SAPI   C3321525   0.689   3.736   6.963  0.8130  0.0221  0.2079
  187SAPI   H3X21526   0.750   3.749   6.871 -0.8808  1.0801 -0.7926
  187SAPI   H3Y21527   0.698   3.631   6.998  0.6077  0.9160  3.0707
  187SAPI   C3421528   0.754   3.814   7.083  0.1309  0.2098  0.5382
  187SAPI   H4X21529   0.766   3.921   7.058  0.3690  0.5887  2.2068
  187SAPI   H4Y21530   0.855   3.768   7.084 -1.1715 -2.8045 -1.0223
  187SAPI   C3521531   0.688   3.788   7.226  1.1562  0.2458 -0.7309
  187SAPI   H5X21532   0.675   3.679   7.245  2.2019  0.0156 -1.3056
  187SAPI   H5Y21533   0.583   3.825   7.219  0.7625 -0.6079  0.5775
  187SAPI   C3621534   0.766   3.846   7.335 -0.2744 -0.4893  0.0102
  187SAPI   H6X21535   0.778   3.956   7.322  3.6986 -0.5632  2.2204
  187SAPI   H6Y21536   0.866   3.800   7.349 -0.6721 -0.9179  1.5177
  187SAPI   C3721537   0.700   3.838   7.471  1.2337  1.1560 -0.0074
  187SAPI   H7X21538   0.667   3.735   7.495  4.6286 -0.6706 -2.7757
  187SAPI   H7Y21539   0.607   3.899   7.478  0.8441  0.4801  0.8109
  187SAPI   C3821540   0.781   3.904   7.586  0.2889 -0.1808 -0.8874
  187SAPI   H8X21541   0.820   3.997   7.538  0.5705 -1.2672 -2.8031
  187SAPI   H8Y21542   0.869   3.837   7.599 -0.6700 -0.9289  2.2993
  187SAPI   C3921543   0.714   3.914   7.725  0.2414 -0.4677 -1.2527
  187SAPI   H9X21544   0.698   3.810   7.761  1.6889  0.3942  1.9967
  187SAPI   H9Y21545   0.620   3.974   7.725 -0.0029 -0.8376 -0.0431
  187SAPI  C31021546   0.814   3.977   7.818 -0.4093 -1.2523  0.4337
  187SAPI  H10X21547   0.861   4.065   7.769  0.4135 -1.4423  0.8728
  187SAPI  H10Y21548   0.893   3.899   7.817  1.7952  0.9247  0.8583
  187SAPI  C31121549   0.753   4.000   7.958  0.1568 -0.1445  0.4273
  187SAPI  H11X21550   0.727   3.897   7.988  2.0049 -1.0463 -0.9815
  187SAPI  H11Y21551   0.659   4.060   7.965  0.3215  0.0853  0.6598
  187SAPI  C31221552   0.859   4.045   8.061 -0.5415 -0.2959 -0.8260
  187SAPI  H12X21553   0.957   3.992   8.069 -0.9295 -0.9882 -0.6448
  187SAPI  H12Y21554   0.811   4.038   8.161 -1.7131  1.6692 -1.2278
  187SAPI  C31321555   0.888   4.191   8.064 -0.3096  0.1340 -0.0212
  187SAPI  H13X21556   0.786   4.236   8.073 -0.4524 -0.2255  0.1620
  187SAPI  H13Y21557   0.940   4.212   7.969  2.8925 -2.2680  1.1205
  187SAPI  C31421558   0.981   4.235   8.179  0.4227  0.1400  0.5208
  187SAPI  H14X21559   1.033   4.327   8.146  0.4483  0.0585  0.3358
  187SAPI  H14Y21560   1.061   4.159   8.184  0.7580  0.4385 -0.3013
  187SAPI  C31521561   0.900   4.271   8.305 -0.2414  0.1829 -0.0968
  187SAPI  H15X21562   0.842   4.182   8.340  0.0326 -0.1949 -0.5911
  187SAPI  H15Y21563   0.822   4.347   8.285  1.4802  2.1375  0.5630
  187SAPI  C31621564   0.988   4.303   8.433 -0.1125 -0.3445 -0.0382
  187SAPI  H16X21565   1.079   4.239   8.437  0.9570  1.1376 -0.5708
  187SAPI  H16Y21566   0.926   4.286   8.524  0.9674  4.2376  1.6764
  187SAPI  C31721567   1.030   4.444   8.443  0.3540  0.8804  0.6249
  187SAPI  H17X21568   0.951   4.505   8.394  0.3385  0.3725  0.0105
  187SAPI  H17Y21569   1.127   4.437   8.387 -1.2584  0.2705 -2.2058
  187SAPI  C31821570   1.053   4.491   8.586  0.3053 -0.4139  0.3238
  187SAPI  H18X21571   1.160   4.474   8.611  1.1019 -0.6335 -2.9658
  187SAPI  H18Y21572   0.986   4.432   8.652 -0.1844 -0.4177 -0.1734
  187SAPI  H18Z21573   1.025   4.598   8.596  0.2215 -0.5300  1.3889
  188SAPI   C1221574   1.960   1.405   6.681  0.3867  0.3890 -0.1446
  188SAPI    H221575   1.972   1.360   6.781  2.5720  1.9776  0.3467
  188SAPI    O221576   1.834   1.370   6.618  0.0472 -0.0594 -0.6848
  188SAPI   HO221577   1.833   1.274   6.619  0.9278 -0.0681  0.1412
  188SAPI   C1321578   1.975   1.559   6.700 -0.1815 -0.2318  1.0234
  188SAPI    H321579   2.067   1.570   6.761 -0.4312 -0.9753  1.5386
  188SAPI    O321580   1.864   1.620   6.768  0.0635 -0.4176 -0.0788
  188SAPI   HO321581   1.790   1.626   6.708 -0.1605 -3.2060 -0.1395
  188SAPI   C1421582   1.991   1.617   6.557  0.6946  0.5193  0.1524
  188SAPI    H421583   1.898   1.596   6.499  2.0706  0.2926 -2.0177
  188SAPI    O421584   2.020   1.759   6.570  0.3702  0.1444 -0.0735
  188SAPI   HO421585   1.964   1.806   6.508  0.5219  0.5305  0.0803
  188SAPI   C1521586   2.103   1.546   6.468 -0.3104 -0.5042  0.0670
  188SAPI    H521587   2.194   1.557   6.531 -0.6714  2.2066  0.1776
  188SAPI    O521588   2.109   1.612   6.340  0.0830  0.3520  0.0396
  188SAPI   HO521589   2.028   1.651   6.306 -0.9217 -0.1570  1.7928
  188SAPI   C1621590   2.073   1.395   6.456  1.2901 -0.1794  0.6309
  188SAPI    H621591   1.981   1.386   6.395  0.2614  0.0052  2.1377
  188SAPI    O621592   2.170   1.332   6.374  0.2392  0.1941  0.5090
  188SAPI   HO621593   2.186   1.247   6.417 -0.9937  0.3498  1.3145
  188SAPI   C1121594   2.071   1.340   6.594  0.1146 -0.1173  0.0634
  188SAPI    H121595   2.159   1.383   6.645 -1.3879  2.0369  0.9144
  188SAPI     P21596   2.147   1.095   6.684 -0.0656 -0.3316 -0.0024
  188SAPI   O1321597   2.290   1.134   6.699 -0.0904  0.1246  0.3085
  188SAPI   O1421598   2.116   0.962   6.628 -0.1176  0.4182  0.3492
  188SAPI   O1221599   2.068   1.198   6.586 -0.3697  0.0221  0.3318
  188SAPI   O1121600   2.064   1.112   6.822  0.3118  0.7322  0.1336
  188SAPI    C121601   1.939   1.044   6.834 -0.8035 -0.0842 -0.4385
  188SAPI    HA21602   1.869   1.129   6.848  0.4582  0.7025  1.1661
  188SAPI    HB21603   1.909   0.990   6.741 -1.9935  2.6375 -1.6847
  188SAPI    C221604   1.942   0.960   6.967 -0.1271  0.0853  0.0091
  188SAPI    HS21605   1.850   0.898   6.963 -0.1771  0.2693 -1.8807
  188SAPI   O2121606   1.949   1.050   7.087 -0.0261  0.1611 -0.5940
  188SAPI   C2121607   1.853   1.137   7.110  1.1914 -0.1200 -0.0709
  188SAPI   O2221608   1.751   1.152   7.046  0.3110  0.5497  0.6497
  188SAPI   C2221609   1.887   1.224   7.228 -0.3613 -0.4391 -0.5862
  188SAPI   H2R21610   1.945   1.161   7.299  1.5724 -0.2908 -2.0028
  188SAPI   H2S21611   1.952   1.302   7.183  0.4279 -0.3368  0.6923
  188SAPI    C321612   2.066   0.863   6.963  0.2448 -0.0758 -0.3638
  188SAPI    HX21613   2.146   0.939   6.958 -1.7655  2.1739  0.3673
  188SAPI    HY21614   2.052   0.798   6.874  1.5776  1.3467 -1.6532
  188SAPI   O3121615   2.076   0.791   7.082 -0.2565  0.1700 -0.4061
  188SAPI   C3121616   2.171   0.704   7.081 -0.2096 -1.1120 -0.5012
  188SAPI   O3221617   2.260   0.690   6.999  0.0997 -0.4837 -0.1107
  188SAPI   C3221618   2.154   0.617   7.205 -0.1977 -0.3047  0.2730
  188SAPI   H2X21619   2.059   0.561   7.192 -0.9108  0.7279  0.9063
  188SAPI   H2Y21620   2.148   0.691   7.288 -0.1184 -1.3626  1.2422
  188SAPI   C2321621   1.773   1.300   7.301  0.0331  0.6333  1.0634
  188SAPI   H3R21622   1.704   1.223   7.341 -1.2178  0.6355 -1.0279
  188SAPI   H3S21623   1.713   1.358   7.228  0.9854  0.1686 -0.0942
  188SAPI   C2421624   1.835   1.387   7.416  0.1725  0.0689  0.2478
  188SAPI   H4R21625   1.752   1.442   7.465  0.3889  0.9679 -0.3873
  188SAPI   H4S21626   1.896   1.466   7.368  0.1664  1.3433  2.2500
  188SAPI   C2521627   1.934   1.314   7.510  0.4707 -0.4987 -0.2244
  188SAPI   H5R21628   2.035   1.291   7.474  0.5924 -0.2607 -0.0343
  188SAPI   C2621629   1.912   1.287   7.643  0.6324  0.6386  1.5666
  188SAPI   H6R21630   1.990   1.248   7.710  0.6489  1.9068  2.2936
  188SAPI   C2721631   1.781   1.320   7.718 -0.1180 -0.4292  0.4094
  188SAPI   H7R21632   1.701   1.272   7.659 -0.1852  0.7271 -0.4551
  188SAPI   H7S21633   1.761   1.429   7.721  0.6964 -0.2731  0.3592
  188SAPI   C2821634   1.777   1.258   7.855 -0.6331  0.6066  0.9034
  188SAPI   H8R21635   1.702   1.178   7.862  0.7418 -0.5838  2.5666
  188SAPI   C2921636   1.850   1.290   7.969 -0.5672 -0.3450 -0.2681
  188SAPI   H9R21637   1.842   1.231   8.062  0.1024 -1.1220 -0.7028
  188SAPI  C21021638   1.949   1.403   7.986 -0.0681 -0.1178  0.7239
  188SAPI  H10R21639   1.938   1.455   8.084 -0.8015 -1.2532  1.2671
  188SAPI  H10S21640   1.942   1.475   7.902  0.2231 -1.1594 -0.1995
  188SAPI  C21121641   2.092   1.354   7.972  0.1690 -0.0191 -0.4029
  188SAPI  H11R21642   2.122   1.336   7.868  0.7851  2.1292 -0.6288
  188SAPI  C21221643   2.176   1.319   8.066 -0.4981 -0.2860 -0.1408
  188SAPI  H12R21644   2.277   1.285   8.038 -0.6211  0.8450 -2.0971
  188SAPI  C21321645   2.163   1.327   8.217 -0.4085  0.8516 -0.2644
  188SAPI  H13R21646   2.218   1.243   8.265 -0.7820  2.0428  2.3348
  188SAPI  H13S21647   2.055   1.311   8.239 -0.2858 -0.5149 -0.5911
  188SAPI  C21421648   2.203   1.462   8.275 -0.3723 -0.3952 -0.0930
  188SAPI  H14R21649   2.202   1.534   8.192  0.2431  0.6646  0.8148
  188SAPI  C21521650   2.229   1.502   8.403  0.6616  0.7163 -0.4487
  188SAPI  H15R21651   2.262   1.606   8.417  0.5420  0.6840  0.0983
  188SAPI  C21621652   2.225   1.425   8.533  0.3550  0.0099  0.3536
  188SAPI  H16R21653   2.314   1.453   8.594  0.2862  0.8103  0.0938
  188SAPI  H16S21654   2.225   1.316   8.515  3.6032  0.1407 -0.8061
  188SAPI  C21721655   2.110   1.470   8.620  0.0467 -0.0154  0.4576
  188SAPI  H17R21656   2.110   1.580   8.632 -2.3913 -0.0428  1.0232
  188SAPI  H17S21657   2.137   1.439   8.724  2.5965 -1.0881 -0.4878
  188SAPI  C21821658   1.972   1.410   8.596  0.3246  0.4819  0.5341
  188SAPI  H18R21659   1.970   1.308   8.639 -0.4936 -0.5439 -1.8502
  188SAPI  H18S21660   1.960   1.407   8.485 -1.0707 -1.6076  0.7303
  188SAPI  C21921661   1.852   1.503   8.640 -0.3905  0.3696  1.7983
  188SAPI  H19R21662   1.865   1.600   8.589  0.7415 -0.4929  0.4008
  188SAPI  H19S21663   1.864   1.514   8.750  0.5197  0.9462  1.6476
  188SAPI  C22021664   1.716   1.454   8.613  0.2906 -0.6218 -0.2771
  188SAPI  H20R21665   1.642   1.536   8.625  1.1554 -0.0811  1.4461
  188SAPI  H20S21666   1.691   1.378   8.690  2.6884 -0.9272  0.2126
  188SAPI  H20T21667   1.702   1.414   8.510  1.7874 -1.5828 -0.1188
  188SAPI   C3321668   2.275   0.514   7.219 -0.3398 -0.0998  0.1684
  188SAPI   H3X21669   2.367   0.574   7.240 -2.0313  2.8562 -0.5277
  188SAPI   H3Y21670   2.282   0.452   7.127  1.0118 -0.4254  0.4788
  188SAPI   C3421671   2.242   0.414   7.332  0.2744 -0.1429  0.5871
  188SAPI   H4X21672   2.308   0.326   7.319  2.0665  1.5607 -2.3199
  188SAPI   H4Y21673   2.138   0.377   7.314  0.5153  1.0013 -3.8559
  188SAPI   C3521674   2.262   0.478   7.466 -1.0750 -0.3174 -0.6104
  188SAPI   H5X21675   2.209   0.576   7.465  3.1758  2.2018  2.4085
  188SAPI   H5Y21676   2.367   0.505   7.490 -1.2291 -1.4064  1.4104
  188SAPI   C3621677   2.197   0.400   7.577  0.6383 -0.8860 -0.2960
  188SAPI   H6X21678   2.240   0.301   7.604 -0.1748 -1.0182  0.5530
  188SAPI   H6Y21679   2.093   0.380   7.543  0.9995 -1.8970 -0.8052
  188SAPI   C3721680   2.203   0.485   7.711 -0.4133  0.0451  0.5944
  188SAPI   H7X21681   2.164   0.589   7.698  0.6247  0.7702  3.0722
  188SAPI   H7Y21682   2.313   0.483   7.721 -0.4275 -1.8683  0.3808
  188SAPI   C3821683   2.135   0.422   7.827 -0.6913  0.7877 -0.5687
  188SAPI   H8X21684   2.170   0.317   7.825 -1.5028  0.5307 -1.5306
  188SAPI   H8Y21685   2.028   0.420   7.797 -0.8618  2.9749 -0.1959
  188SAPI   C3921686   2.143   0.501   7.962 -0.0519  0.0085  0.5084
  188SAPI   H9X21687   2.110   0.604   7.937  1.6204  0.2088 -0.9024
  188SAPI   H9Y21688   2.251   0.506   7.985  0.4430 -1.0521 -1.4795
  188SAPI  C31021689   2.064   0.438   8.074  0.8316 -0.0999  0.8899
  188SAPI  H10X21690   2.098   0.333   8.060  1.3339  0.1654  0.0981
  188SAPI  H10Y21691   1.958   0.450   8.045  1.0211 -1.8780 -0.6116
  188SAPI  C31121692   2.093   0.495   8.209  0.2440  0.0700 -0.4584
  188SAPI  H11X21693   2.036   0.428   8.278 -2.0750  1.4588 -0.9928
  188SAPI  H11Y21694   2.052   0.598   8.212 -0.7799 -0.3402 -0.3937
  188SAPI  C31221695   2.243   0.480   8.250  0.9831  0.3302  0.1604
  188SAPI  H12X21696   2.306   0.557   8.200  0.2036 -0.1216 -1.5540
  188SAPI  H12Y21697   2.277   0.383   8.209  0.0789  0.4555 -0.9140
  188SAPI  C31321698   2.269   0.474   8.401 -0.2079  0.3370 -0.5471
  188SAPI  H13X21699   2.193   0.414   8.455  0.0072 -0.1108 -0.7427
  188SAPI  H13Y21700   2.263   0.577   8.442  0.7161 -0.2870  1.2381
  188SAPI  C31421701   2.406   0.424   8.455 -0.1083 -0.2199 -0.1048
  188SAPI  H14X21702   2.490   0.481   8.410  0.8935 -0.9146  0.8621
  188SAPI  H14Y21703   2.411   0.315   8.432  1.3779  0.0340 -1.0261
  188SAPI  C31521704   2.432   0.434   8.607  0.0635 -0.8390  0.1841
  188SAPI  H15X21705   2.338   0.450   8.663 -0.5507 -0.2232 -1.0106
  188SAPI  H15Y21706   2.492   0.525   8.625 -1.1752 -0.1178  0.7157
  188SAPI  C31621707   2.515   0.321   8.665 -0.3057  0.3631  0.3016
  188SAPI  H16X21708   2.599   0.296   8.597  0.1635 -0.1989  1.0737
  188SAPI  H16Y21709   2.452   0.230   8.674 -0.7388  0.6853  0.5814
  188SAPI  C31721710   2.557   0.352   8.803 -0.1158  0.2527  0.4339
  188SAPI  H17X21711   2.471   0.375   8.870  0.0540 -0.8505  1.0423
  188SAPI  H17Y21712   2.631   0.434   8.815 -1.9372  1.4765  4.1721
  188SAPI  C31821713   2.611   0.229   8.872 -0.2381 -0.1774 -0.6141
  188SAPI  H18X21714   2.545   0.139   8.872  2.1059 -1.9675  0.5787
  188SAPI  H18Y21715   2.659   0.252   8.969  2.5629 -0.9878 -1.7526
  188SAPI  H18Z21716   2.699   0.192   8.814  0.7057  0.9686  0.0778
  189POPC     N21717   1.403   2.183  10.812 -0.0760 -0.1272  0.2547
  189POPC   C1221718   1.558   2.201  10.816  0.0175 -0.5749 -0.5197
  189POPC  H12A21719   1.583   2.239  10.913  1.9023  0.4757 -1.4020
  189POPC  H12B21720   1.585   2.278  10.745 -0.4174 -1.4269 -1.6335
  189POPC   C1321721   1.367   2.149  10.671  0.2984  0.1334  0.7887
  189POPC  H13A21722   1.267   2.112  10.655  0.2841  1.1992 -1.7696
  189POPC  H13B21723   1.392   2.228  10.602  1.6771 -1.8870 -1.0396
  189POPC  H13C21724   1.420   2.065  10.630  2.8023  1.7224  0.6593
  189POPC   C1421725   1.352   2.071  10.902  0.0234 -0.2656 -0.7221
  189POPC  H14A21726   1.384   2.091  11.003  1.2324 -0.3180 -1.0917
  189POPC  H14B21727   1.247   2.043  10.903 -0.6274  2.0930  0.3391
  189POPC  H14C21728   1.398   1.978  10.873 -1.3666 -1.2585  0.1717
  189POPC   C1521729   1.337   2.310  10.843  0.3218  0.3141 -0.1895
  189POPC  H15A21730   1.353   2.334  10.947  2.2457 -0.7588 -0.2254
  189POPC  H15B21731   1.231   2.301  10.821  0.6958 -1.4073 -1.3998
  189POPC  H15C21732   1.376   2.390  10.782  0.4232  0.1352 -0.3625
  189POPC   C1121733   1.649   2.082  10.779  0.8294 -0.3795  0.0011
  189POPC  H11A21734   1.753   2.117  10.763 -0.1352  2.9601  0.7118
  189POPC  H11B21735   1.625   2.057  10.673 -0.1536  0.6863 -0.0356
  189POPC     P21736   1.720   1.922  10.977 -0.3834 -0.1396  0.3221
  189POPC   O1321737   1.646   1.838  11.072  0.3960  0.3583 -0.4916
  189POPC   O1421738   1.782   2.048  11.034  0.0113 -0.1393 -0.2892
  189POPC   O1221739   1.621   1.965  10.857  0.0504  0.8809 -0.1290
  189POPC   O1121740   1.836   1.839  10.912  0.0717  0.2793 -0.6248
  189POPC    C121741   1.823   1.770  10.784  0.1252 -0.1592  0.2807
  189POPC    HA21742   1.720   1.730  10.768  0.1326  0.7794 -2.2652
  189POPC    HB21743   1.889   1.680  10.791  2.8516  1.7839  0.2509
  189POPC    C221744   1.882   1.838  10.655  0.1258 -0.3637 -0.0890
  189POPC    HS21745   1.801   1.894  10.605 -0.0813  0.9058  1.6240
  189POPC   O2121746   1.936   1.743  10.557  0.0660  0.4518  0.4462
  189POPC   C2121747   1.834   1.662  10.505  0.1024 -0.5436 -0.1271
  189POPC   O2221748   1.717   1.670  10.540 -0.0019 -0.5673  0.1727
  189POPC   C2221749   1.905   1.558  10.416 -0.2891 -0.3797  0.1676
  189POPC   H2R21750   1.966   1.487  10.476  0.1363  0.2643  0.5067
  189POPC   H2S21751   1.980   1.608  10.351  0.4403  0.9145  1.9699
  189POPC    C321752   1.991   1.950  10.686  0.1065  0.7183  0.0115
  189POPC    HX21753   2.069   1.900  10.748 -1.0235  0.0779  0.9357
  189POPC    HY21754   1.945   2.027  10.751 -1.7831  0.0253 -0.4891
  189POPC   O3121755   2.041   2.002  10.568 -0.3376 -0.0574  0.0258
  189POPC   C3121756   1.973   2.101  10.504  0.0401 -0.0267 -0.2361
  189POPC   O3221757   1.870   2.151  10.544  0.6698 -0.5730 -0.5963
  189POPC   C3221758   2.048   2.150  10.384 -0.1085  0.1359 -0.2036
  189POPC   H2X21759   2.146   2.096  10.382 -0.0006  0.2359  1.7902
  189POPC   H2Y21760   2.076   2.251  10.421  1.9624 -1.3459  2.4428
  189POPC   C2321761   1.818   1.475  10.325 -0.4514  0.3106 -0.0660
  189POPC   H3R21762   1.742   1.537  10.272  0.8333  2.3837  0.4613
  189POPC   H3S21763   1.772   1.386  10.372 -0.8600 -2.0127 -4.5800
  189POPC   C2421764   1.902   1.416  10.210 -1.1300  0.3904  0.6722
  189POPC   H4R21765   1.932   1.508  10.155 -0.8752 -0.2376 -0.2552
  189POPC   H4S21766   1.848   1.360  10.131  0.9777  0.9734 -1.2316
  189POPC   C2521767   2.028   1.336  10.250 -0.1533  1.0196  1.0216
  189POPC   H5R21768   1.991   1.238  10.286  1.2079  0.1807  0.1961
  189POPC   H5S21769   2.089   1.395  10.321  1.0519  1.5109 -0.3877
  189POPC   C2621770   2.113   1.314  10.128  0.9893 -0.4567 -0.1620
  189POPC   H6R21771   2.212   1.269  10.154  1.7057  0.9780 -0.3616
  189POPC   H6S21772   2.128   1.409  10.074  2.3990  0.3951  1.6774
  189POPC   C2721773   2.054   1.210  10.024 -0.1565 -0.3407 -0.4241
  189POPC   H7R21774   1.943   1.211  10.037 -0.1754  3.2939 -0.4466
  189POPC   H7S21775   2.086   1.105  10.043 -3.4636 -1.5333 -1.0524
  189POPC   C2821776   2.098   1.245   9.883 -0.0606  0.0699 -0.4003
  189POPC   H8R21777   2.067   1.349   9.857  2.4132  0.8967 -0.2170
  189POPC   H8S21778   2.048   1.169   9.820 -0.7431 -1.2654  1.7102
  189POPC   C2921779   2.243   1.221   9.874  0.6479 -0.5178  0.7063
  189POPC   H9121780   2.298   1.296   9.932 -1.5959  3.1663 -1.7766
  189POPC  C21021781   2.306   1.129   9.811 -0.3642  0.2965  0.2861
  189POPC  H10121782   2.416   1.134   9.818 -0.1008 -3.0479 -0.5622
  189POPC  C21121783   2.243   1.015   9.730 -0.2487  0.3242  0.1272
  189POPC  H11R21784   2.137   0.992   9.754 -0.3198 -0.0668 -0.5429
  189POPC  H11S21785   2.295   0.917   9.741 -2.4573 -0.8092  0.6388
  189POPC  C21221786   2.243   1.039   9.578  0.2345  0.1129 -0.1995
  189POPC  H12R21787   2.334   1.025   9.516 -0.3920  2.0170 -1.6153
  189POPC  H12S21788   2.229   1.149   9.574 -2.4953 -0.2079 -0.3022
  189POPC  C21321789   2.118   0.987   9.506  0.0794 -0.6689  0.0906
  189POPC  H13R21790   2.040   1.031   9.571  1.2216 -0.2854  1.2291
  189POPC  H13S21791   2.113   0.877   9.526 -0.6599 -0.7085 -0.3333
  189POPC  C21421792   2.108   1.013   9.355 -0.5079  0.7540  0.6475
  189POPC  H14R21793   2.024   0.951   9.315 -0.2878  2.0113 -1.7806
  189POPC  H14S21794   2.203   0.985   9.306 -0.7565  0.5978  0.2489
  189POPC  C21521795   2.065   1.156   9.333 -0.4139 -0.2897  0.1485
  189POPC  H15R21796   2.130   1.242   9.357 -3.1356  2.3798 -1.6110
  189POPC  H15S21797   1.963   1.173   9.374 -0.2842 -0.2158  0.4347
  189POPC  C21621798   2.035   1.188   9.184  0.2609  0.2276  0.5412
  189POPC  H16R21799   1.959   1.270   9.186 -0.1596 -0.1768  1.2188
  189POPC  H16S21800   1.985   1.102   9.135 -0.7847  0.7732  0.6212
  189POPC  C21721801   2.149   1.230   9.096  0.1744 -0.1551  0.3663
  189POPC  H17R21802   2.213   1.140   9.078  0.5587  0.4795 -1.5352
  189POPC  H17S21803   2.204   1.299   9.163 -0.3218  1.5241 -0.9192
  189POPC  C21821804   2.115   1.308   8.965 -0.4597  0.7520  0.1967
  189POPC  H18R21805   2.088   1.407   9.007  4.0688  1.8931  0.6716
  189POPC  H18S21806   2.041   1.262   8.895 -1.0161  0.0278  1.2384
  189POPC  H18T21807   2.214   1.316   8.917 -0.5075  1.3739  0.2004
  189POPC   C3321808   1.974   2.144  10.252  0.4202 -0.2299 -0.4158
  189POPC   H3X21809   2.036   2.216  10.193 -2.2053  1.9989 -0.5725
  189POPC   H3Y21810   1.876   2.195  10.261  0.6789  0.3339 -0.7510
  189POPC   C3421811   1.978   2.006  10.177 -0.0051 -0.0516 -0.2316
  189POPC   H4X21812   1.918   1.943  10.246 -1.2196  0.6696 -0.6139
  189POPC   H4Y21813   2.082   1.967  10.169  0.8095  2.1953 -1.0143
  189POPC   C3521814   1.922   2.009  10.037  0.4976  0.1137  0.4372
  189POPC   H5X21815   1.956   2.093   9.973 -0.1166  0.5269  0.6487
  189POPC   H5Y21816   1.814   2.029  10.054  0.4917  1.9625 -1.5702
  189POPC   C3621817   1.947   1.876   9.966  0.2424 -0.1970 -0.5463
  189POPC   H6X21818   1.917   1.792  10.031 -0.6693 -0.6786 -1.5864
  189POPC   H6Y21819   2.057   1.873   9.952  0.5250 -0.8296  1.6865
  189POPC   C3721820   1.880   1.863   9.829  0.4080 -0.6498  0.4353
  189POPC   H7X21821   1.770   1.850   9.831  0.3351 -0.0144  0.6479
  189POPC   H7Y21822   1.919   1.766   9.790  1.8529 -0.4900  1.4395
  189POPC   C3821823   1.928   1.968   9.735 -0.2195  0.7816  0.6462
  189POPC   H8X21824   2.035   1.991   9.752  0.4721 -2.7215  1.3366
  189POPC   H8Y21825   1.870   2.059   9.761 -2.2810 -0.4790  0.5876
  189POPC   C3921826   1.892   1.952   9.592 -0.2147  0.0673 -0.1293
  189POPC   H9X21827   1.784   1.926   9.585 -0.5796  1.4340  0.3944
  189POPC   H9Y21828   1.957   1.865   9.567  1.6589  0.6704  2.3994
  189POPC  C31021829   1.921   2.073   9.508 -0.5426  0.7217  0.2063
  189POPC  H10X21830   2.006   2.135   9.545 -0.2997 -0.9794  2.6503
  189POPC  H10Y21831   1.831   2.138   9.505 -0.5604  0.6043 -2.3059
  189POPC  C31121832   1.937   2.042   9.357  0.7649  0.2109  0.9733
  189POPC  H11X21833   1.847   1.990   9.319  2.2034 -2.5946  1.3180
  189POPC  H11Y21834   2.013   1.961   9.356  0.4559 -0.0793  0.9561
  189POPC  C31221835   1.976   2.151   9.252 -0.0848  0.3555  0.6557
  189POPC  H12X21836   2.087   2.148   9.259 -0.0191 -0.2436 -0.5878
  189POPC  H12Y21837   1.946   2.254   9.281  0.9971  1.1170 -0.8843
  189POPC  C31321838   1.932   2.127   9.113  0.6564 -0.1424 -0.6946
  189POPC  H13X21839   1.821   2.116   9.122  0.7096  1.6161  3.0449
  189POPC  H13Y21840   1.966   2.028   9.075 -1.9348 -1.8622  1.2232
  189POPC  C31421841   1.975   2.227   9.012  0.0100 -0.0623 -0.5659
  189POPC  H14X21842   2.085   2.230   9.002 -0.1177  0.6461 -1.8677
  189POPC  H14Y21843   1.947   2.328   9.048  1.1923 -0.1140  0.5294
  189POPC  C31521844   1.900   2.209   8.880  0.0041  0.0070 -0.6561
  189POPC  H15X21845   1.792   2.235   8.889  0.1096  0.1738  0.1075
  189POPC  H15Y21846   1.893   2.103   8.848  1.5775 -1.0550  2.4363
  189POPC  C31621847   1.963   2.300   8.772  0.3365 -1.1125 -0.2099
  189POPC  H16X21848   2.069   2.324   8.794  0.7334 -1.7680 -1.3839
  189POPC  H16Y21849   1.916   2.401   8.766  0.4972 -0.9530  1.0096
  189POPC  H16Z21850   1.951   2.263   8.668  1.7782  0.2278 -0.8815
  190POPC     N21851   4.246   4.891  10.896  0.6437 -0.3078 -0.3143
  190POPC   C1221852   4.104   4.866  10.945  0.3587  0.3173 -0.3528
  190POPC  H12A21853   4.100   4.766  10.986  0.5524  1.1506  1.7916
  190POPC  H12B21854   4.038   4.879  10.861 -0.0684 -0.5509 -0.1563
  190POPC   C1321855   4.255   5.021  10.821 -0.1449 -0.2398 -0.3025
  190POPC  H13A21856   4.242   5.108  10.883  0.4491  0.3903 -1.0551
  190POPC  H13B21857   4.349   5.030  10.767 -0.5483 -1.2197 -1.1849
  190POPC  H13C21858   4.175   5.026  10.748 -1.0296  0.9410  0.7409
  190POPC   C1421859   4.350   4.902  11.002 -0.4212  0.0217 -0.1778
  190POPC  H14A21860   4.330   4.982  11.071 -0.4342  0.6398 -0.8935
  190POPC  H14B21861   4.372   4.810  11.055  0.8744 -0.0503 -0.7977
  190POPC  H14C21862   4.444   4.936  10.960 -1.1500  1.4363 -0.7008
  190POPC   C1521863   4.285   4.777  10.813 -0.0556 -0.0159  0.3406
  190POPC  H15A21864   4.389   4.797  10.791 -0.1719  2.2414  1.7092
  190POPC  H15B21865   4.223   4.774  10.725  0.6959 -2.2313 -0.1663
  190POPC  H15C21866   4.276   4.681  10.862 -1.0746 -0.9519 -1.6193
  190POPC   C1121867   4.034   4.956  11.062  0.7953  0.0111  0.8716
  190POPC  H11A21868   4.106   4.955  11.146 -0.1566  1.0500  1.7112
  190POPC  H11B21869   3.932   4.915  11.075  0.3884 -0.7141 -3.6612
  190POPC     P21870   3.952   5.197  11.093 -0.1469  0.3036 -0.2043
  190POPC   O1321871   4.030   5.324  11.097  1.1901  0.0152 -0.5488
  190POPC   O1421872   3.911   5.148  11.225  0.2124  0.0965  0.5643
  190POPC   O1221873   4.030   5.088  11.007  0.2208 -0.2186  0.3942
  190POPC   O1121874   3.817   5.229  11.013 -0.2720 -0.2931 -0.1593
  190POPC    C121875   3.773   5.147  10.907  0.1863  0.5043 -0.1640
  190POPC    HA21876   3.665   5.162  10.888  0.5158  0.2357 -2.3909
  190POPC    HB21877   3.796   5.039  10.920  0.5647  0.5837 -0.1665
  190POPC    C221878   3.828   5.189  10.765 -0.8010  0.1425 -0.2644
  190POPC    HS21879   3.937   5.166  10.770 -0.7690  0.6592  1.6460
  190POPC   O2121880   3.795   5.327  10.728 -0.7698  0.2695 -0.7352
  190POPC   C2121881   3.891   5.387  10.665  0.3496 -0.1733  0.2141
  190POPC   O2221882   4.002   5.341  10.650 -0.4636 -0.2056  0.4081
  190POPC   C2221883   3.838   5.524  10.615  0.2283  0.5177 -0.1428
  190POPC   H2R21884   3.929   5.579  10.586  1.0274 -0.5423  0.3174
  190POPC   H2S21885   3.765   5.559  10.691 -2.3333 -0.4974 -2.0402
  190POPC    C321886   3.784   5.102  10.659 -0.3076 -0.6787  0.4163
  190POPC    HX21887   3.680   5.125  10.629 -0.8987  0.5609  3.3178
  190POPC    HY21888   3.785   4.999  10.701 -1.4435 -0.3064  1.3702
  190POPC   O3121889   3.873   5.107  10.546 -0.3364  0.6304  1.0408
  190POPC   C3121890   3.988   5.031  10.549 -0.6139  0.1645  0.1063
  190POPC   O3221891   4.022   4.955  10.633  0.3557  0.2253  0.1555
  190POPC   C3221892   4.069   5.065  10.425 -0.5498  0.9283 -0.6784
  190POPC   H2X21893   4.155   4.996  10.429  1.3847  3.3074 -0.0341
  190POPC   H2Y21894   4.110   5.168  10.434  0.6551  0.3401  0.9183
  190POPC   C2321895   3.755   5.504  10.479  0.1099 -0.0758 -0.5805
  190POPC   H3R21896   3.707   5.602  10.456 -0.2300 -0.1626 -0.2428
  190POPC   H3S21897   3.678   5.429  10.506  1.8008 -2.0234 -0.9980
  190POPC   C2421898   3.842   5.440  10.369  0.6544 -0.0229 -0.3030
  190POPC   H4R21899   3.860   5.333  10.393 -1.4145 -0.3962 -0.3092
  190POPC   H4S21900   3.931   5.506  10.374  1.4769 -1.1761  0.5530
  190POPC   C2521901   3.786   5.457  10.229  0.4794 -0.0064 -0.1174
  190POPC   H5R21902   3.860   5.410  10.160  1.1589  1.1522 -0.1957
  190POPC   H5S21903   3.773   5.567  10.215 -0.8250 -0.0855  0.4751
  190POPC   C2621904   3.656   5.378  10.208  0.1695  0.5551 -0.4852
  190POPC   H6R21905   3.575   5.436  10.257 -0.4741 -0.5435 -0.2347
  190POPC   H6S21906   3.665   5.283  10.265  1.7292 -0.1496 -1.9041
  190POPC   C2721907   3.617   5.335  10.068 -0.1759  0.1109  0.6410
  190POPC   H7R21908   3.510   5.312  10.086 -0.3800  0.1559 -0.4817
  190POPC   H7S21909   3.673   5.247  10.029 -1.5278  0.0098 -1.1026
  190POPC   C2821910   3.650   5.444   9.965  0.1093  0.0540  0.1245
  190POPC   H8R21911   3.757   5.475   9.971  0.1366 -0.4179  2.9277
  190POPC   H8S21912   3.592   5.534   9.995  0.1773  0.7936 -1.8704
  190POPC   C2921913   3.609   5.395   9.828  0.1485 -0.5146 -0.4214
  190POPC   H9121914   3.499   5.385   9.825 -0.1296  1.2557  2.4095
  190POPC  C21021915   3.689   5.366   9.719  0.3114 -0.3615 -1.0276
  190POPC  H10121916   3.643   5.334   9.624  1.1416 -1.3222 -1.1201
  190POPC  C21121917   3.840   5.370   9.708  0.6681 -0.3066 -0.1951
  190POPC  H11R21918   3.882   5.295   9.638 -2.5975 -0.3153 -2.2371
  190POPC  H11S21919   3.889   5.368   9.808 -1.7306 -0.0187  1.0278
  190POPC  C21221920   3.887   5.511   9.665 -0.0736  0.1357  0.2572
  190POPC  H12R21921   3.997   5.521   9.662 -0.1121  1.2893  1.9212
  190POPC  H12S21922   3.846   5.587   9.735  0.9918  0.1179  0.9039
  190POPC  C21321923   3.843   5.558   9.527  0.0460 -0.1998  0.1072
  190POPC  H13R21924   3.879   5.663   9.523  0.3482 -0.2527  1.4530
  190POPC  H13S21925   3.732   5.551   9.521  0.1004 -0.1195 -1.3538
  190POPC  C21421926   3.913   5.476   9.411  0.2354 -0.1911 -0.2883
  190POPC  H14R21927   3.854   5.382   9.402 -2.2481  1.3771 -0.8333
  190POPC  H14S21928   4.008   5.440   9.455  0.2985 -1.3630 -1.3740
  190POPC  C21521929   3.947   5.537   9.273 -0.4316 -0.4752  0.4058
  190POPC  H15R21930   3.986   5.465   9.198 -2.8737 -1.1816 -0.2495
  190POPC  H15S21931   4.039   5.598   9.275  1.8325 -3.7557 -0.2088
  190POPC  C21621932   3.839   5.625   9.204 -0.0280 -0.3749 -0.2340
  190POPC  H16R21933   3.816   5.710   9.272 -1.3161 -1.8924  1.2868
  190POPC  H16S21934   3.752   5.563   9.174  0.0835 -1.1783  1.0465
  190POPC  C21721935   3.905   5.693   9.080 -0.8397  0.6095 -0.3303
  190POPC  H17R21936   4.002   5.733   9.117 -0.7953 -1.2453  1.6698
  190POPC  H17S21937   3.849   5.780   9.039 -0.8116  0.2248 -1.1884
  190POPC  C21821938   3.925   5.593   8.974 -0.0272 -0.1564  1.0059
  190POPC  H18R21939   3.964   5.656   8.891 -1.4966 -1.6553 -0.8369
  190POPC  H18S21940   3.827   5.553   8.943 -0.6711  3.1914 -1.6448
  190POPC  H18T21941   3.995   5.511   9.000 -0.4288 -1.0269 -0.6308
  190POPC   C3321942   3.990   5.066  10.297 -0.1945  0.1651 -0.1276
  190POPC   H3X21943   3.921   5.152  10.287  0.7568  0.6894 -2.6306
  190POPC   H3Y21944   3.927   4.974  10.297 -0.3691  0.2834  0.5586
  190POPC   C3421945   4.059   5.057  10.162  0.0603 -0.0154  0.3503
  190POPC   H4X21946   4.107   4.958  10.175  1.3044  0.2867 -1.6732
  190POPC   H4Y21947   4.139   5.133  10.145 -1.2841  1.3618  0.0318
  190POPC   C3521948   3.970   5.039  10.038  0.2982  0.2394 -0.2063
  190POPC   H5X21949   3.893   5.118  10.032 -0.6153 -0.1347  4.3217
  190POPC   H5Y21950   3.919   4.940  10.035  1.4586 -0.3460 -0.9126
  190POPC   C3621951   4.047   5.048   9.911 -0.4775  0.3714 -0.1494
  190POPC   H6X21952   4.143   4.994   9.903 -0.0095  1.4235 -2.0304
  190POPC   H6Y21953   4.078   5.154   9.900 -1.2479  0.3090 -3.5838
  190POPC   C3721954   3.966   5.027   9.781  0.1989  0.9371  0.1041
  190POPC   H7X21955   3.874   5.087   9.794  0.5020  1.2215  0.9398
  190POPC   H7Y21956   3.933   4.921   9.777 -0.6969  1.1632  1.3672
  190POPC   C3821957   4.047   5.067   9.660  0.3384  0.5266 -1.3950
  190POPC   H8X21958   4.124   4.990   9.641  0.9206  0.6788  0.2878
  190POPC   H8Y21959   4.087   5.171   9.663 -0.5947  0.8714  1.2928
  190POPC   C3921960   3.955   5.057   9.536 -0.2247 -0.3635 -0.0824
  190POPC   H9X21961   3.866   5.115   9.567 -0.1447 -0.2043 -0.1486
  190POPC   H9Y21962   3.922   4.952   9.544 -0.6425 -0.2588 -0.4100
  190POPC  C31021963   4.017   5.091   9.405 -0.4871 -0.0523 -0.2549
  190POPC  H10X21964   4.098   5.025   9.367 -1.2963  0.2579 -2.6292
  190POPC  H10Y21965   4.052   5.196   9.404  0.7356 -0.4344  0.8497
  190POPC  C31121966   3.910   5.073   9.296 -0.5582 -0.6904  0.2341
  190POPC  H11X21967   3.818   5.136   9.293 -0.8480 -1.0738  0.8947
  190POPC  H11Y21968   3.850   4.980   9.305  0.4924 -1.5541 -1.3038
  190POPC  C31221969   3.981   5.079   9.154  0.4166  0.3964  0.0586
  190POPC  H12X21970   4.087   5.046   9.157  0.0640 -0.7058  0.7921
  190POPC  H12Y21971   3.998   5.186   9.132  0.3675  0.9299  2.5021
  190POPC  C31321972   3.918   4.997   9.041  0.2385 -0.4510  0.0817
  190POPC  H13X21973   3.815   5.035   9.025 -0.5037 -2.5134 -0.2974
  190POPC  H13Y21974   3.917   4.887   9.062  1.7075 -0.7413 -1.3036
  190POPC  C31421975   3.998   4.999   8.914  0.6440  0.2336 -0.2670
  190POPC  H14X21976   4.105   4.981   8.938  0.5387 -0.6613 -0.4686
  190POPC  H14Y21977   3.990   5.103   8.876  0.7374  0.6023  0.6830
  190POPC  C31521978   3.944   4.903   8.809  0.0548 -0.4094  0.1934
  190POPC  H15X21979   3.835   4.900   8.792 -0.5140  1.1758  3.1940
  190POPC  H15Y21980   3.961   4.803   8.853  2.3538 -0.6536 -1.1770
  190POPC  C31621981   4.025   4.906   8.687 -0.0031  0.0176 -0.1730
  190POPC  H16X21982   4.022   5.004   8.634  0.0321  0.3123  0.3705
  190POPC  H16Y21983   3.990   4.825   8.619  0.2117 -0.1814 -0.0462
  190POPC  H16Z21984   4.128   4.878   8.718 -0.2158 -0.1788  0.3592
  191POPC     N21985   4.604   6.368   6.262 -0.1646  1.1239 -0.2581
  191POPC   C1221986   4.453   6.365   6.284  0.4551 -0.5778  0.6474
  191POPC  H12A21987   4.422   6.468   6.277 -0.6160 -1.0157 -1.6885
  191POPC  H12B21988   4.434   6.323   6.381  0.1571  0.2729  0.9636
  191POPC   C1321989   4.682   6.439   6.370  0.4718  0.5622  0.0347
  191POPC  H13A21990   4.789   6.429   6.366  0.4834 -0.1522  1.6717
  191POPC  H13B21991   4.660   6.545   6.377 -3.2976 -0.2146  1.5257
  191POPC  H13C21992   4.647   6.404   6.466  0.8481 -1.7733 -0.6490
  191POPC   C1421993   4.653   6.225   6.250 -0.3761  0.4724 -0.5289
  191POPC  H14A21994   4.577   6.172   6.195  1.1705 -0.1676 -2.0965
  191POPC  H14B21995   4.744   6.223   6.192  1.0177  0.9466  1.5920
  191POPC  H14C21996   4.671   6.173   6.343 -2.1763 -0.2725 -0.5781
  191POPC   C1521997   4.638   6.447   6.140  0.2656 -0.2089  0.2596
  191POPC  H15A21998   4.588   6.543   6.141 -0.0038 -0.3429 -0.5152
  191POPC  H15B21999   4.594   6.395   6.057 -0.4526 -1.5425  1.4537
  191POPC  H15C22000   4.743   6.474   6.144 -0.0200  0.7186  2.5261
  191POPC   C1122001   4.366   6.290   6.184  0.2227 -0.3811  0.2756
  191POPC  H11A22002   4.403   6.302   6.080 -0.6241 -0.8767 -0.0961
  191POPC  H11B22003   4.265   6.337   6.188 -0.1629 -0.8948 -2.3071
  191POPC     P22004   4.272   6.101   6.328  0.2433  0.0912 -0.2687
  191POPC   O1322005   4.324   5.972   6.364  0.1373 -0.0332 -0.2580
  191POPC   O1422006   4.134   6.108   6.281 -0.6346 -0.3779 -0.1405
  191POPC   O1222007   4.369   6.150   6.208 -0.9579 -0.0520  0.5166
  191POPC   O1122008   4.279   6.194   6.451  0.3804  0.6911  0.0428
  191POPC    C122009   4.382   6.173   6.557 -0.0856  0.2165  0.5061
  191POPC    HA22010   4.481   6.173   6.506 -0.0007 -2.8644  0.5581
  191POPC    HB22011   4.364   6.077   6.610  3.6294 -2.2397 -2.4097
  191POPC    C222012   4.371   6.284   6.661 -0.1365  0.2281 -0.7659
  191POPC    HS22013   4.263   6.281   6.684 -0.2929  1.5887 -1.2460
  191POPC   O2122014   4.413   6.415   6.606  0.9132 -0.0578 -0.6075
  191POPC   C2122015   4.337   6.516   6.630 -0.1700 -0.4716 -0.4167
  191POPC   O2222016   4.236   6.513   6.700  0.1205  0.0779  0.3345
  191POPC   C2222017   4.388   6.641   6.563 -0.0044 -0.2305  0.5956
  191POPC   H2R22018   4.338   6.659   6.466  2.6772 -3.8153 -1.5423
  191POPC   H2S22019   4.497   6.629   6.547 -0.0329 -1.8850  1.5261
  191POPC    C322020   4.454   6.259   6.786 -0.4221  0.1131 -0.1643
  191POPC    HX22021   4.432   6.340   6.858  1.6699 -0.4851  1.1847
  191POPC    HY22022   4.562   6.269   6.765 -0.1597  3.1030  2.2037
  191POPC   O3122023   4.424   6.132   6.850 -0.2435  0.1233 -0.2463
  191POPC   C3122024   4.308   6.116   6.913 -0.0105 -0.0614  0.2996
  191POPC   O3222025   4.227   6.204   6.937  0.2648 -0.3371 -0.6598
  191POPC   C3222026   4.302   5.970   6.945  0.6676  0.2594  0.0115
  191POPC   H2X22027   4.405   5.928   6.951  1.2247  1.5898 -0.1006
  191POPC   H2Y22028   4.245   5.921   6.863 -0.1196  0.7739  0.2515
  191POPC   C2322029   4.356   6.765   6.650  0.2545  0.1081 -0.0709
  191POPC   H3R22030   4.246   6.773   6.666  0.5363  0.8083  1.5543
  191POPC   H3S22031   4.376   6.854   6.587  0.0673  0.3745  0.2466
  191POPC   C2422032   4.440   6.774   6.781 -0.5791  0.8403 -0.2120
  191POPC   H4R22033   4.545   6.744   6.765 -1.1485 -2.2958  1.4574
  191POPC   H4S22034   4.402   6.712   6.866  1.1357 -1.3896 -1.0218
  191POPC   C2522035   4.444   6.919   6.836  0.1536  0.1610  0.2623
  191POPC   H5R22036   4.345   6.947   6.879  1.2515 -1.0777  3.7930
  191POPC   H5S22037   4.454   6.994   6.754 -1.6797 -0.0455 -0.1704
  191POPC   C2622038   4.546   6.933   6.952  1.1234 -0.3730  0.0845
  191POPC   H6R22039   4.558   7.041   6.975 -0.1602 -0.3617  0.7388
  191POPC   H6S22040   4.648   6.900   6.923  0.9717 -0.1842 -0.6645
  191POPC   C2722041   4.523   6.862   7.088 -0.4318  0.2349  0.4446
  191POPC   H7R22042   4.475   6.762   7.079 -0.4394  0.1858  1.0227
  191POPC   H7S22043   4.443   6.923   7.134 -0.1974  0.3863  0.6490
  191POPC   C2822044   4.648   6.864   7.182  0.2154 -0.2907 -0.2206
  191POPC   H8R22045   4.671   6.973   7.174 -0.2940 -0.2036 -0.5321
  191POPC   H8S22046   4.733   6.807   7.139  0.3281 -1.0648  1.0019
  191POPC   C2922047   4.606   6.836   7.323 -0.4115  0.3333 -0.5286
  191POPC   H9122048   4.584   6.729   7.328  0.2429  0.0900 -2.2250
  191POPC  C21022049   4.578   6.908   7.430  0.2543 -0.1798  0.5711
  191POPC  H10122050   4.567   6.853   7.525  0.1810  0.2985  0.8403
  191POPC  C21122051   4.579   7.064   7.440  0.1865  0.4837 -0.2849
  191POPC  H11R22052   4.474   7.098   7.427 -0.9057 -1.9385  1.6663
  191POPC  H11S22053   4.632   7.115   7.357  0.5930 -1.3221 -1.1719
  191POPC  C21222054   4.629   7.101   7.578 -0.0818 -0.5137 -0.0645
  191POPC  H12R22055   4.651   7.210   7.569 -1.7569 -0.2113 -0.6739
  191POPC  H12S22056   4.718   7.042   7.608  1.1791  0.6892 -1.3139
  191POPC  C21322057   4.522   7.096   7.684 -0.1565 -0.2732  0.6197
  191POPC  H13R22058   4.478   6.994   7.697  0.2141 -0.9756 -3.2936
  191POPC  H13S22059   4.449   7.174   7.654  1.3264  0.4776 -1.1438
  191POPC  C21422060   4.581   7.124   7.825 -0.3968 -0.5206 -0.3743
  191POPC  H14R22061   4.595   7.234   7.841  0.2465 -0.5351 -0.8467
  191POPC  H14S22062   4.675   7.072   7.854  0.3488 -0.0163 -1.8568
  191POPC  C21522063   4.474   7.099   7.934 -0.5790  0.8744 -0.5555
  191POPC  H15R22064   4.462   6.989   7.932  2.1649  0.4661  1.2823
  191POPC  H15S22065   4.384   7.158   7.907 -1.8295 -0.0479  1.5312
  191POPC  C21622066   4.520   7.132   8.075  0.3340 -0.1334 -0.4053
  191POPC  H16R22067   4.443   7.129   8.155  2.4829  0.1886  1.6878
  191POPC  H16S22068   4.574   7.228   8.081  0.8802 -0.5722  2.4163
  191POPC  C21722069   4.611   7.015   8.116  0.1455 -0.1071  0.5850
  191POPC  H17R22070   4.688   7.003   8.037 -3.1250 -1.3283 -2.5829
  191POPC  H17S22071   4.560   6.917   8.128  2.4223 -1.2248  1.3925
  191POPC  C21822072   4.670   7.047   8.252 -0.5087  0.3536 -0.2604
  191POPC  H18R22073   4.599   7.098   8.320 -1.4399  0.6593 -1.4456
  191POPC  H18S22074   4.745   7.129   8.250 -0.6986  0.5074 -1.6877
  191POPC  H18T22075   4.722   6.959   8.295  0.3581  1.4228  0.9348
  191POPC   C3322076   4.209   5.954   7.066 -0.5349 -0.4018 -0.0937
  191POPC   H3X22077   4.176   5.849   7.083  2.1511 -1.6151 -1.9277
  191POPC   H3Y22078   4.114   6.010   7.060  0.2131  0.7295 -1.7568
  191POPC   C3422079   4.291   5.995   7.195  0.4821 -0.3621 -0.6192
  191POPC   H4X22080   4.394   5.954   7.184 -0.0776 -1.5963 -1.3942
  191POPC   H4Y22081   4.243   5.934   7.274  0.8286 -0.9172 -0.8316
  191POPC   C3522082   4.281   6.147   7.238 -0.2498  0.3511  0.5096
  191POPC   H5X22083   4.179   6.171   7.274  0.4995  2.4524  1.3608
  191POPC   H5Y22084   4.295   6.216   7.152  0.2594  2.1849  2.0227
  191POPC   C3622085   4.377   6.188   7.347 -0.0009  0.1910  1.2587
  191POPC   H6X22086   4.371   6.296   7.371 -1.3723  0.6741 -1.1323
  191POPC   H6Y22087   4.479   6.191   7.302  0.6982  1.3823  2.8664
  191POPC   C3722088   4.368   6.104   7.471  0.3217 -0.2386 -0.0785
  191POPC   H7X22089   4.373   5.995   7.448  2.0238 -0.2551  0.3300
  191POPC   H7Y22090   4.265   6.123   7.506 -0.4373 -0.6597 -1.9825
  191POPC   C3822091   4.471   6.133   7.581 -0.1595 -0.7232 -0.8001
  191POPC   H8X22092   4.475   6.242   7.602  0.5808 -0.3064 -3.0145
  191POPC   H8Y22093   4.570   6.089   7.556 -0.2889 -1.0157 -0.8041
  191POPC   C3922094   4.431   6.058   7.704  0.0699  0.6444 -0.3048
  191POPC   H9X22095   4.398   5.953   7.689 -2.9575  1.3857  0.8843
  191POPC   H9Y22096   4.333   6.093   7.740 -0.3417 -2.2293  1.4967
  191POPC  C31022097   4.547   6.053   7.806 -0.4439 -0.4515 -0.5347
  191POPC  H10X22098   4.629   6.003   7.750 -1.0234 -2.2054  0.1531
  191POPC  H10Y22099   4.517   5.978   7.883 -2.0315 -0.5459 -1.2329
  191POPC  C31122100   4.576   6.181   7.882 -0.2814  0.4646 -0.5348
  191POPC  H11X22101   4.586   6.269   7.815  0.1810  1.4440  0.8210
  191POPC  H11Y22102   4.676   6.172   7.929  0.8789  1.2951 -2.7358
  191POPC  C31222103   4.488   6.203   8.008  0.4183 -1.3703 -0.6965
  191POPC  H12X22104   4.520   6.137   8.091 -0.3179  1.4817  1.9518
  191POPC  H12Y22105   4.381   6.186   7.986 -0.2519 -0.4452  1.7042
  191POPC  C31322106   4.505   6.344   8.061  0.7433 -0.0734 -0.4885
  191POPC  H13X22107   4.458   6.421   7.997 -0.5978  1.4750  2.2791
  191POPC  H13Y22108   4.611   6.378   8.064  0.5553  0.5075 -0.3623
  191POPC  C31422109   4.450   6.360   8.206 -0.7882 -0.2125 -0.1136
  191POPC  H14X22110   4.490   6.283   8.275  1.4288  0.3996 -0.6618
  191POPC  H14Y22111   4.339   6.359   8.207 -0.8590  0.0413 -2.7364
  191POPC  C31522112   4.482   6.508   8.247  0.0476 -0.4602  0.2687
  191POPC  H15X22113   4.446   6.575   8.166  3.4895  0.1835 -0.8108
  191POPC  H15Y22114   4.592   6.523   8.248 -0.2873  2.1434  0.4670
  191POPC  C31622115   4.422   6.560   8.382  1.5499 -0.4827 -0.6802
  191POPC  H16X22116   4.476   6.517   8.469 -0.5076  0.7719  1.2990
  191POPC  H16Y22117   4.312   6.543   8.383  1.5680 -0.7232 -2.2041
  191POPC  H16Z22118   4.429   6.671   8.392 -0.3995 -0.5799  2.3657
  192POPC     N22119   2.902   1.846   6.304 -0.2740  0.8124 -0.9832
  192POPC   C1222120   2.971   1.979   6.293  0.2839 -0.8743  0.6583
  192POPC  H12A22121   2.976   2.006   6.189  2.3307  0.2252  1.0108
  192POPC  H12B22122   3.072   1.960   6.326 -0.1427 -1.1426  1.8412
  192POPC   C1322123   2.996   1.735   6.261  0.4096 -0.2561 -0.3622
  192POPC  H13A22124   3.059   1.758   6.176 -0.6539 -0.6295 -1.2682
  192POPC  H13B22125   3.068   1.717   6.339  1.7202  1.0296 -1.2461
  192POPC  H13C22126   2.942   1.645   6.237  0.7287 -0.5265 -0.0620
  192POPC   C1422127   2.849   1.810   6.440  0.6285 -0.0567 -0.0669
  192POPC  H14A22128   2.928   1.815   6.513 -1.5613  0.1533  2.3573
  192POPC  H14B22129   2.772   1.879   6.469 -1.0934 -2.1293  0.3821
  192POPC  H14C22130   2.804   1.712   6.446  0.2258 -0.1216 -3.3294
  192POPC   C1522131   2.785   1.842   6.212  0.0136 -0.3727  0.2277
  192POPC  H15A22132   2.716   1.761   6.229 -1.0953  0.1011 -1.8640
  192POPC  H15B22133   2.824   1.848   6.112 -1.3458  1.6691 -0.2073
  192POPC  H15C22134   2.730   1.935   6.221 -2.1562 -1.6544  0.4707
  192POPC   C1122135   2.908   2.105   6.352 -0.3543  0.4422 -0.4126
  192POPC  H11A22136   2.980   2.190   6.351  1.4627 -1.0662 -0.5038
  192POPC  H11B22137   2.893   2.075   6.458  2.6790 -2.1584 -0.6669
  192POPC     P22138   2.797   2.207   6.139  0.0598 -0.1669 -0.3539
  192POPC   O1322139   2.667   2.266   6.109 -0.4926  0.1208 -0.5989
  192POPC   O1422140   2.871   2.131   6.039 -0.0652 -0.0309  0.1528
  192POPC   O1222141   2.785   2.137   6.283  0.1386  0.2700  0.7503
  192POPC   O1122142   2.894   2.329   6.174 -0.8128  0.0302 -0.5591
  192POPC    C122143   2.846   2.433   6.262 -0.0926 -0.4909  0.3550
  192POPC    HA22144   2.814   2.389   6.359 -1.3554 -0.1868  0.0836
  192POPC    HB22145   2.768   2.491   6.209 -0.7033 -0.7499  0.9658
  192POPC    C222146   2.960   2.528   6.314  0.1818 -0.0807  0.2366
  192POPC    HS22147   3.000   2.580   6.224 -0.0445  1.4618  1.0128
  192POPC   O2122148   3.070   2.451   6.374  0.7768  0.3109  0.7888
  192POPC   C2122149   3.173   2.515   6.423  0.5421 -0.0905  0.0824
  192POPC   O2222150   3.195   2.635   6.417 -0.4682 -0.1953 -0.0011
  192POPC   C2222151   3.261   2.415   6.500 -0.4557 -0.1644 -0.2546
  192POPC   H2R22152   3.324   2.359   6.428  1.2171  2.3952 -0.8328
  192POPC   H2S22153   3.184   2.355   6.553 -1.3277  0.5758 -0.6564
  192POPC    C322154   2.891   2.630   6.412  0.0526  0.3851  0.2226
  192POPC    HX22155   2.805   2.673   6.357  0.7220  1.6192  0.1133
  192POPC    HY22156   2.964   2.713   6.426 -0.4700  0.6956  1.1646
  192POPC   O3122157   2.858   2.571   6.532 -0.5134  0.3786  0.2244
  192POPC   C3122158   2.731   2.578   6.579  0.2605 -0.4233 -0.2767
  192POPC   O3222159   2.641   2.631   6.522 -0.8359 -0.2004  0.2283
  192POPC   C3222160   2.726   2.520   6.721  0.9888 -0.3497 -0.1551
  192POPC   H2X22161   2.642   2.448   6.724  0.7338 -0.0194  0.7032
  192POPC   H2Y22162   2.707   2.609   6.785 -2.8941 -0.3093 -1.2529
  192POPC   C2322163   3.356   2.490   6.600  0.2058 -0.6198 -0.0136
  192POPC   H3R22164   3.398   2.587   6.566  0.5023 -0.7843 -0.1212
  192POPC   H3S22165   3.446   2.431   6.628 -0.2936 -0.8098  1.2264
  192POPC   C2422166   3.277   2.520   6.730  0.4101 -0.4193  0.2015
  192POPC   H4R22167   3.263   2.426   6.787 -3.1261 -1.4006 -2.0661
  192POPC   H4S22168   3.177   2.551   6.691  0.4191 -0.9969 -0.2891
  192POPC   C2522169   3.335   2.640   6.813 -0.7548  0.7082 -0.5406
  192POPC   H5R22170   3.285   2.619   6.910  0.8578 -0.7115  0.0051
  192POPC   H5S22171   3.289   2.733   6.772 -1.3913  0.1552 -1.0896
  192POPC   C2622172   3.492   2.637   6.821  0.2240  0.3079 -0.7366
  192POPC   H6R22173   3.526   2.648   6.716  0.6490  0.4784 -0.5782
  192POPC   H6S22174   3.522   2.533   6.848  3.4778  1.4831  0.2782
  192POPC   C2722175   3.564   2.737   6.912 -0.2016 -0.1013 -0.6155
  192POPC   H7R22176   3.553   2.838   6.866  0.5437  0.0421 -0.4893
  192POPC   H7S22177   3.674   2.721   6.906 -0.0335  1.5916 -2.8548
  192POPC   C2822178   3.516   2.746   7.062  0.2384 -0.4154  0.0074
  192POPC   H8R22179   3.405   2.737   7.061  0.0573  1.2853  1.8740
  192POPC   H8S22180   3.540   2.848   7.098 -4.8138  0.7847  0.3486
  192POPC   C2922181   3.569   2.622   7.140  0.0499 -0.8084  0.3940
  192POPC   H9122182   3.545   2.525   7.095 -3.8272  0.3359 -0.2463
  192POPC  C21022183   3.629   2.634   7.260 -0.1074  0.5141  0.1912
  192POPC  H10122184   3.661   2.547   7.320 -0.5335  1.4825  1.8265
  192POPC  C21122185   3.655   2.762   7.333 -0.3273  0.0612  0.0203
  192POPC  H11R22186   3.588   2.841   7.293  1.7329  1.5125 -0.6230
  192POPC  H11S22187   3.756   2.799   7.306  0.3352 -2.7876 -1.7014
  192POPC  C21222188   3.642   2.764   7.487 -0.0960 -0.4344 -0.3037
  192POPC  H12R22189   3.690   2.674   7.531  1.2856  0.5203  0.1721
  192POPC  H12S22190   3.534   2.748   7.511 -0.1944 -1.9851 -1.6454
  192POPC  C21322191   3.709   2.892   7.553  0.0745  0.3684 -0.5932
  192POPC  H13R22192   3.678   2.979   7.490  2.2366  2.8108  1.6080
  192POPC  H13S22193   3.816   2.871   7.537 -0.4298 -1.6552 -1.5151
  192POPC  C21422194   3.674   2.925   7.698 -0.1636  0.0966  0.2052
  192POPC  H14R22195   3.583   2.988   7.691 -0.8473 -0.8402  0.4786
  192POPC  H14S22196   3.754   2.988   7.741  0.0231  0.5923 -0.8412
  192POPC  C21522197   3.635   2.801   7.777  0.1101 -0.5380  0.5383
  192POPC  H15R22198   3.687   2.704   7.756 -1.8649 -1.5067 -0.0364
  192POPC  H15S22199   3.528   2.779   7.754  0.3545 -1.7219  0.4617
  192POPC  C21622200   3.628   2.814   7.927  0.4624  0.2301 -0.3326
  192POPC  H16R22201   3.726   2.851   7.965  0.5575  2.2287 -2.4433
  192POPC  H16S22202   3.605   2.718   7.978 -0.2164 -0.0266 -1.1134
  192POPC  C21722203   3.517   2.901   7.983  0.1061  0.6276  0.1256
  192POPC  H17R22204   3.494   2.972   7.901 -0.7920  0.3293  0.1215
  192POPC  H17S22205   3.563   2.954   8.070  1.5278  0.4325 -0.4834
  192POPC  C21822206   3.397   2.814   8.023  0.0927  0.6518  0.7554
  192POPC  H18R22207   3.344   2.760   7.941  1.5695  2.0158 -1.1321
  192POPC  H18S22208   3.315   2.877   8.065 -0.5751 -0.5935  1.3441
  192POPC  H18T22209   3.420   2.736   8.099  0.3107  1.9525  2.0410
  192POPC   C3322210   2.849   2.426   6.756  0.8597  0.1821  0.5155
  192POPC   H3X22211   2.950   2.467   6.735  0.8991  0.2875  0.9028
  192POPC   H3Y22212   2.837   2.338   6.689 -1.2274  0.5168  0.4199
  192POPC   C3422213   2.844   2.382   6.901 -0.0278 -0.3497 -0.5624
  192POPC   H4X22214   2.921   2.305   6.921 -0.4505 -0.7088 -0.3047
  192POPC   H4Y22215   2.746   2.339   6.931  0.7131 -2.9291 -1.6969
  192POPC   C3522216   2.857   2.499   7.004  0.4061  0.3846  0.1593
  192POPC   H5X22217   2.795   2.589   6.979  1.3611  1.1452  0.4934
  192POPC   H5Y22218   2.965   2.524   7.010  0.5223 -0.6332  2.6126
  192POPC   C3622219   2.805   2.453   7.135  0.1159  0.7174  0.0351
  192POPC   H6X22220   2.855   2.356   7.156  2.6325  2.1492  0.9711
  192POPC   H6Y22221   2.697   2.432   7.127  0.5067 -0.9193 -0.9903
  192POPC   C3722222   2.827   2.550   7.253  0.7610 -0.0982  0.4577
  192POPC   H7X22223   2.747   2.627   7.260  1.2827  0.6735 -1.7951
  192POPC   H7Y22224   2.928   2.594   7.242  0.7060 -0.1087 -0.1032
  192POPC   C3822225   2.826   2.484   7.386  0.9038  0.6690 -0.3116
  192POPC   H8X22226   2.906   2.409   7.408 -0.6848 -0.1684  3.0173
  192POPC   H8Y22227   2.739   2.415   7.393  1.0091  0.5032 -0.6258
  192POPC   C3922228   2.821   2.576   7.506  0.0155  0.1169 -0.4691
  192POPC   H9X22229   2.726   2.631   7.494  0.0111  0.1194 -0.4204
  192POPC   H9Y22230   2.906   2.644   7.483  1.5001 -1.8463 -0.8738
  192POPC  C31022231   2.851   2.504   7.632  0.8940 -0.6885 -0.5245
  192POPC  H10X22232   2.955   2.466   7.623  1.1442  0.1315 -1.1793
  192POPC  H10Y22233   2.779   2.421   7.644 -0.3700  0.3657 -0.6747
  192POPC  C31122234   2.839   2.606   7.753 -0.3731 -0.4362  0.7692
  192POPC  H11X22235   2.860   2.541   7.841  1.3406  1.6914  1.9821
  192POPC  H11Y22236   2.736   2.646   7.764 -0.4825 -0.7499  0.8825
  192POPC  C31222237   2.946   2.703   7.759 -0.1631  0.2455  0.5476
  192POPC  H12X22238   2.937   2.773   7.673 -0.9524  0.2942  0.6738
  192POPC  H12Y22239   3.049   2.663   7.747 -0.6461 -1.7390  2.6594
  192POPC  C31322240   2.922   2.789   7.888  0.6552  0.0540  0.2312
  192POPC  H13X22241   2.818   2.826   7.891  0.2325 -1.0462 -0.4126
  192POPC  H13Y22242   3.004   2.864   7.886  0.4526  0.2911  0.7702
  192POPC  C31422243   2.952   2.702   8.014 -1.2818  0.2835 -0.1768
  192POPC  H14X22244   3.032   2.628   7.995  1.2111  2.0778  2.8890
  192POPC  H14Y22245   2.865   2.635   8.031 -0.6532 -0.1581  1.3409
  192POPC  C31522246   3.002   2.773   8.136  0.3600  0.3211  0.1429
  192POPC  H15X22247   2.933   2.845   8.185  1.6478  1.4868  0.2873
  192POPC  H15Y22248   3.083   2.844   8.108  0.7102  0.3893  1.2891
  192POPC  C31622249   3.072   2.677   8.243 -0.1750  0.3731 -0.2900
  192POPC  H16X22250   3.132   2.743   8.310  0.1763  1.6669 -1.8329
  192POPC  H16Y22251   3.136   2.608   8.184 -0.5882 -0.9217  0.7590
  192POPC  H16Z22252   2.997   2.622   8.303 -0.0248  2.1141  1.5286
  193SOD    SOD22253   6.577   5.673   4.762  0.8925 -0.3474  0.6895
  194SOD    SOD22254   5.596   5.094   5.679 -0.7477 -0.1742  0.6285
  195SOD    SOD22255   1.806   5.959  11.650 -0.4876  0.1308  0.2068
  196SOD    SOD22256   4.454   2.891   3.543  0.6576  0.1157 -0.1668
  197SOD    SOD22257   0.370   5.707   4.981  0.0680  0.4371 -0.5692
  198SOD    SOD22258   6.122   2.941  14.207 -0.5738  0.1438  0.1953
  199SOD    SOD22259   1.615   0.103   4.535  0.3175 -0.0132  0.5723
  200SOD    SOD22260   1.748   0.151   5.770 -0.0592 -0.0863 -0.1871
  201SOD    SOD22261   4.987   0.295  11.803  0.3692  0.4096 -0.3571
  202SOD    SOD22262   1.281   5.804  12.161  0.2849 -0.1501 -0.0245
  203SOD    SOD22263   1.149   1.881   2.328 -0.4242  0.3055 -0.1606
  204SOD    SOD22264   0.011   4.519   3.512 -0.3170 -0.4113  0.1449
  205SOD    SOD22265   2.681   5.096  11.480 -0.5865 -0.4579 -0.0852
  206SOD    SOD22266   1.669   3.909   2.836  0.2050  0.3445  0.2808
  207SOD    SOD22267   0.417   0.271   5.974 -0.1210  0.4846 -0.2368
  208SOD    SOD22268   6.118   6.028  16.336  0.0159  0.1497  0.6475
  209SOD    SOD22269   5.555   6.343   2.365 -0.3351 -0.3035  0.4064
  210SOD    SOD22270   0.510   2.057  15.000 -0.2173 -0.0648 -0.9261
  211SOD    SOD22271   0.895   3.858   5.438  0.4628  0.0330  0.6175
  212SOD    SOD22272   2.391   6.569  16.407  0.2853 -0.0894 -0.1280
  213SOD    SOD22273   4.593   2.673  15.926 -0.0801  0.0551  0.5882
  214SOD    SOD22274   4.144   0.237  10.597  0.0385 -0.4197 -0.3667
  215SOD    SOD22275   3.283   0.060   3.396  0.4851 -0.0882 -0.2863
  216SOD    SOD22276   5.411   1.994   5.096  0.1555 -0.1253 -0.1957
  217SOD    SOD22277   3.516   0.950   2.050 -0.0854  0.5184 -0.1848
  218SOD    SOD22278   5.348   4.275   0.915 -0.1258  0.1739  0.2002
  219SOD    SOD22279   4.217   1.192  13.626 -0.5194 -0.4024  0.0075
  220SOD    SOD22280   1.049   6.646   3.077  0.1713 -0.0508  0.0599
  221SOD    SOD22281   3.931   6.164   5.112  0.1522  0.2065 -0.2066
  222SOD    SOD22282   3.957   6.329   0.150  0.0317 -0.0283  0.1830
  223SOD    SOD22283   0.419   2.642  15.929 -0.6342  0.1713 -0.0988
  224SOD    SOD22284   5.283   1.211  16.337  0.2786 -0.5695 -0.6704
  225SOD    SOD22285   6.734   3.799  10.871  0.0613 -0.1163 -0.1367
  226SOD    SOD22286   4.937   1.437   3.438  0.6156 -0.2497  0.0127
  227SOD    SOD22287   5.796   6.288  17.166  0.0366  0.0077 -0.2906
  228SOD    SOD22288   1.278   1.381  11.333 -0.2851 -0.2009 -0.1571
  229SOD    SOD22289   4.452   4.433  14.443  0.2142 -0.2182 -0.1068
  230SOD    SOD22290   0.286   4.695  14.600  0.3475  0.3262  0.0044
  231SOD    SOD22291   4.299   0.385   5.930  0.0718 -0.4183  0.1485
  232SOD    SOD22292   2.303   4.690  11.702  0.4828  0.0991 -0.0622
  233SOD    SOD22293   4.234   5.392   0.080  0.4731 -0.0850 -0.2214
  234SOD    SOD22294   4.842   2.154  11.844 -0.4090 -0.5323  0.1694
  235SOD    SOD22295   2.580   5.964  10.959  0.2835 -0.2551 -0.2008
  236SOD    SOD22296   2.929   1.911  11.685 -0.0787  0.0370 -0.1134
  237SOD    SOD22297   2.918   2.509   4.917  0.1952 -0.4423  0.0711
  238SOD    SOD22298   5.257   4.094  10.854 -0.2987 -0.7728  0.2906
  239SOD    SOD22299   2.208   2.684   2.262 -0.3580 -0.7313 -0.4141
  240SOD    SOD22300   3.205   0.551  12.112  0.2626 -0.0696 -0.1941
  241SOD    SOD22301   4.461   4.553   6.312  0.1092  0.3070  0.0576
  242SOD    SOD22302   1.482   3.748   6.505 -0.2775 -0.1282 -0.1319
  243SOD    SOD22303   1.676   5.044   0.283  0.2292  0.0130 -0.3884
  244SOD    SOD22304   0.235   0.842  16.059 -0.3280  0.1087  0.2718
  245SOD    SOD22305   4.803   2.157   2.516 -0.4943 -0.0141 -0.2345
  246SOD    SOD22306   1.559   6.260   5.160  0.4250 -0.1165 -0.0779
  247SOD    SOD22307   6.683   4.265  16.886 -0.5651  0.0653  0.3390
  248SOD    SOD22308   6.263   2.089   3.466  0.3933  0.0564 -0.2942
  249SOD    SOD22309   1.968   2.519   3.530  0.2756  0.3406 -0.1893
  250SOD    SOD22310   2.298   3.892   5.862  0.0725  0.5889  0.1340
  251SOD    SOD22311   6.406   1.044  12.290 -0.3121  0.0831  0.2481
  252SOD    SOD22312   1.913   5.560  14.006  0.0696 -0.0659  0.9035
  253SOD    SOD22313   5.467   2.547  13.201  0.5646  0.3623 -0.1767
  254SOD    SOD22314   5.347   4.745  12.929  0.3343  0.5064  0.3188
  255SOD    SOD22315   1.191   2.310  11.328 -0.9949  0.1935 -0.0743
  256SOD    SOD22316   2.505   0.346  15.072 -0.1186 -0.4699 -0.1134
  257SOD    SOD22317   0.345   4.674  12.066 -0.0534  0.5424  0.2994
  258SOD    SOD22318   4.939   5.439  12.658  0.0628 -0.0742 -0.1851
  259SOD    SOD22319   5.867   2.497   5.632  0.0316 -0.0753 -0.4169
  260SOD    SOD22320   5.674   3.753   5.651  0.2940  0.4523  0.2326
  261SOD    SOD22321   0.058   1.711  13.684  0.2195  0.0025 -0.4317
  262SOD    SOD22322   1.042   4.318  11.864 -0.3104  0.4926  0.3219
  263SOD    SOD22323   1.316   5.145  10.383  0.1167  0.0424 -0.4938
  264SOD    SOD22324   2.262   5.187   6.074  0.0649 -0.6560 -0.1152
  265SOD    SOD22325   1.422   5.018   6.456 -0.3997 -0.1686 -0.4670
  266SOD    SOD22326   6.161   2.177  13.010  0.6898 -0.9179 -0.1470
  267SOD    SOD22327   1.030   5.095  15.075  0.2787 -0.3275  0.7482
  268SOD    SOD22328   4.963   1.689  10.979 -0.4663  0.1886  0.1957
  269SOD    SOD22329   3.748   1.302   6.175 -0.1381 -0.0452 -0.1434
  270CLA    CLA22330   1.062   2.407   2.736  0.0357 -0.1309  0.2337
  271CLA    CLA22331   1.226   0.499   4.904 -0.3121  0.0348 -0.0838
  272CLA    CLA22332   1.862   2.248   5.208  0.3167 -0.0228  0.1820
  273CLA    CLA22333   6.612   2.539   2.841  0.4631 -0.0830 -0.1261
  274CLA    CLA22334   2.247   3.812  14.491  0.0974  0.4267  0.2731
  275CLA    CLA22335   2.951   4.477   1.840  0.3126  0.0108  0.0268
  276CLA    CLA22336   3.352   0.708  14.876 -0.0309 -0.3985 -0.1772
  277CLA    CLA22337   5.446   1.766  16.589 -0.4264  0.1026  0.0210
  278CLA    CLA22338   6.172   3.367   0.219  0.0171  0.3066  0.0254
  279CLA    CLA22339   0.345   3.909  11.951  0.2706 -0.0838  0.4383
  280CLA    CLA22340   2.465   6.559  15.032  0.2644 -0.5754 -0.1443
  281CLA    CLA22341   5.719   1.860   2.715  0.3859  0.2997 -0.0630
  282CLA    CLA22342   3.635   5.755   4.304  0.0284 -0.0066 -0.4106
  283CLA    CLA22343   6.622   2.651   0.930 -0.0642  0.1173  0.2355
  284CLA    CLA22344   1.814   5.657  15.022  0.1424  0.3246  0.3955
  285CLA    CLA22345   2.710   6.724  12.482 -0.3473  0.1862  0.5557
  286CLA    CLA22346   3.125   0.518   4.575  0.1739 -0.1559 -0.2203
  287CLA    CLA22347   2.427   5.866  12.404 -0.1377 -0.1187 -0.5033
  288CLA    CLA22348   2.920   6.181  15.577 -0.3357 -0.4380  0.2134
  289CLA    CLA22349   4.824   5.977   1.801  0.3343  0.1208  0.4552
  290CLA    CLA22350   3.046   5.413  11.597 -0.3957 -0.2008  0.0374
  291CLA    CLA22351   5.672   6.004  15.240  0.3672  0.2453  0.2369
  292CLA    CLA22352   5.225   2.418  12.782  0.1548  0.0630  0.0003
  293CLA    CLA22353   1.092   5.375   1.456  0.2820 -0.0038  0.2547
  294CLA    CLA22354   5.812   5.086   0.744 -0.0118 -0.0758 -0.1556
  295CLA    CLA22355   4.018   0.706   4.758  0.0218  0.2162  0.0832
  296CLA    CLA22356   2.717   1.212   4.666 -0.2502 -0.2246  0.1576
  297CLA    CLA22357   4.745   5.854   0.385 -0.1726  0.2250  0.8805
  298CLA    CLA22358   1.103   0.755  15.442  0.1625 -0.2550  0.1292
  299CLA    CLA22359   3.858   1.873   2.501 -0.1324 -0.5205 -0.2937
  300CLA    CLA22360   5.166   4.568   4.560  0.1653  0.2716  0.4161
  301CLA    CLA22361   4.270   6.261   2.881 -0.1915  0.2081 -0.1063
  302CLA    CLA22362   4.807   0.267  14.684  0.1479 -0.0544 -0.1985
  303CLA    CLA22363   0.529   2.652  15.417 -0.3389  0.1182  0.0088
  304CLA    CLA22364   5.455   2.507   5.169  0.0474 -0.0601  0.3180
  305CLA    CLA22365   1.809   4.015   5.091  0.3811 -0.1238  0.1529
  306CLA    CLA22366   4.960   5.088  11.700  0.2600 -0.3107  0.2750
  307CLA    CLA22367   0.276   3.247  13.526 -0.1545  0.2569 -0.5159
  308CLA    CLA22368   6.363   5.833  13.396 -0.5771 -0.3299 -0.1334
  309CLA    CLA22369   4.069   3.642  14.539 -0.5141 -0.3745  0.1489
  310CLA    CLA22370   6.678   4.015  12.121 -0.0438 -0.0967  0.2260
  311CLA    CLA22371   2.033   3.168  16.939 -0.2440 -0.3119 -0.2247
  312CLA    CLA22372   1.339   6.628   3.486  0.0227  0.1200  0.1709
  313CLA    CLA22373   2.601   2.871   0.647  0.1739  0.1322  0.3692
  314CLA    CLA22374   4.387   1.178  11.030 -0.0067 -0.3089  0.0659
  315CLA    CLA22375   1.313   1.725  12.538  0.0234 -0.3652  0.2870
  316CLA    CLA22376   5.616   3.985  14.699 -0.1557  0.0593  0.4385
  317CLA    CLA22377   0.308   4.018  14.752  0.5053 -0.3256  0.1941
  318CLA    CLA22378   6.486   3.784   4.368  0.2717 -0.3159 -0.1413
  319CLA    CLA22379   2.440   5.243  16.081 -0.1317  0.5597 -0.3412
  320CLA    CLA22380   0.210   1.324  13.354 -0.1416 -0.4666  0.3498
  321CLA    CLA22381   6.633   0.308  15.394  0.7751  0.2235  0.1475
  322CLA    CLA22382   4.126   4.639   2.382 -0.0266  0.3096  0.1742
  323TIP3   OH222383   1.084   3.366  12.055 -0.0019  0.3753 -0.3092
  323TIP3    H122384   1.025   3.430  12.095 -0.4494 -1.0925  1.4530
  323TIP3    H222385   1.114   3.408  11.974  0.1862  3.0193  1.1009
  324TIP3   OH222386   5.095   6.629   1.439 -0.0915  0.2913  0.5449
  324TIP3    H122387   5.172   6.675   1.472  0.5760  0.3708 -1.0814
  324TIP3    H222388   5.124   6.539   1.427 -0.3215  0.2580  0.2202
  325TIP3   OH222389   1.594   5.250  11.676  0.1115 -0.2505 -0.6490
  325TIP3    H122390   1.552   5.190  11.614 -0.3791 -0.4136 -0.1685
  325TIP3    H222391   1.688   5.235  11.664 -0.0067 -3.0039  1.2522
  326TIP3   OH222392   0.276   5.133   1.931  0.4537  0.4234 -0.2922
  326TIP3    H122393   0.247   5.150   2.021  1.4625 -1.5701  0.4224
  326TIP3    H222394   0.232   5.052   1.907 -0.1838  1.1941 -1.7964
  327TIP3   OH222395   4.524   1.961  12.147  0.4650  0.4068  0.4042
  327TIP3    H122396   4.462   1.973  12.219  0.3546 -1.1835  0.5981
  327TIP3    H222397   4.609   1.985  12.184  0.2531  0.6080  0.7579
  328TIP3   OH222398   5.863   2.581  11.886  0.2455  0.1618  0.1755
  328TIP3    H122399   5.829   2.663  11.920 -1.2007 -0.0489 -0.7150
  328TIP3    H222400   5.958   2.588  11.895  0.0453  1.3040  1.4810
  329TIP3   OH222401   1.516   5.163  13.309 -0.0836 -0.1936 -0.2126
  329TIP3    H122402   1.584   5.217  13.270 -0.6054  0.1881 -0.6046
  329TIP3    H222403   1.490   5.210  13.388  0.4016 -0.5551  0.1653
  330TIP3   OH222404   3.122   3.033  11.648 -0.2449  0.0107  0.3912
  330TIP3    H122405   3.094   2.943  11.633 -0.7741  0.1979  0.2490
  330TIP3    H222406   3.197   3.025  11.707 -0.2947 -0.5210  0.3855
  331TIP3   OH222407   4.858   0.446  11.674  0.0409  0.0056  0.5310
  331TIP3    H122408   4.771   0.410  11.655 -0.9362  1.7237  1.6028
  331TIP3    H222409   4.873   0.510  11.606  0.1286  0.2541  0.7826
  332TIP3   OH222410   4.876   1.888  13.147 -0.3065  0.2460  0.5291
  332TIP3    H122411   4.819   1.926  13.081 -0.2896 -1.7164 -0.6533
  332TIP3    H222412   4.964   1.919  13.125 -0.4499  0.4552  0.2667
  333TIP3   OH222413   1.452   3.655   0.369 -0.2342  0.0297  0.2190
  333TIP3    H122414   1.456   3.671   0.274  2.4922  0.2559  0.3344
  333TIP3    H222415   1.490   3.568   0.381 -2.4511 -0.8647  0.9355
  334TIP3   OH222416   2.076   4.423  14.125 -0.6031 -0.1332 -0.5886
  334TIP3    H122417   2.002   4.482  14.139  0.3833  1.2946 -1.2624
  334TIP3    H222418   2.150   4.468  14.165  0.2516 -0.7131 -1.4944
  335TIP3   OH222419   1.457   1.829   1.206  0.3715 -0.4195  0.0730
  335TIP3    H122420   1.486   1.739   1.223 -0.1087 -1.0037 -2.0410
  335TIP3    H222421   1.511   1.858   1.132 -0.2891  0.6045 -0.0169
  336TIP3   OH222422   6.771   3.423   4.057  0.1149 -0.4007 -0.2666
  336TIP3    H122423   6.825   3.392   4.130 -1.1736  1.7669  1.6651
  336TIP3    H222424   6.812   3.505   4.031 -0.4944 -0.2647 -0.7836
  337TIP3   OH222425   1.426   2.414  15.718  0.2189 -0.3787  0.6281
  337TIP3    H122426   1.330   2.418  15.724  0.1851  0.3063 -0.2773
  337TIP3    H222427   1.444   2.327  15.683 -0.2281  0.4900 -1.8816
  338TIP3   OH222428   4.955   4.545  14.767  0.1664  0.0853 -0.2394
  338TIP3    H122429   4.894   4.489  14.719  0.3007  0.4219 -0.8077
  338TIP3    H222430   5.032   4.550  14.711  0.0770  1.0010 -0.2806
  339TIP3   OH222431   6.436   5.805   2.426 -0.2913 -0.7217  1.0279
  339TIP3    H122432   6.517   5.827   2.471 -0.4917  0.6370  0.7333
  339TIP3    H222433   6.453   5.720   2.384  1.1162 -0.2221  0.5920
  340TIP3   OH222434   4.504   5.127  16.319  0.1702 -0.3980  0.0268
  340TIP3    H122435   4.558   5.115  16.397 -1.1280  1.2927  1.2320
  340TIP3    H222436   4.464   5.042  16.304  0.0959 -0.6386  1.4836
  341TIP3   OH222437   4.631   3.102   1.651  0.1832 -0.3129  0.2493
  341TIP3    H122438   4.679   3.180   1.679  1.8300 -1.7938  1.6846
  341TIP3    H222439   4.541   3.117   1.681  0.7731  0.4489  1.6712
  342TIP3   OH222440   1.546   5.674  13.716 -0.2051 -0.0261  0.1707
  342TIP3    H122441   1.455   5.649  13.699 -0.9889  1.1844  2.3416
  342TIP3    H222442   1.566   5.741  13.650 -1.0570  0.0665  0.0023
  343TIP3   OH222443   2.616   3.206   1.429  0.3424 -0.3703 -0.1616
  343TIP3    H122444   2.630   3.295   1.461 -1.5625 -0.3671  0.7064
  343TIP3    H222445   2.527   3.206   1.394  0.9379 -1.4794 -1.7406
  344TIP3   OH222446   3.478   6.293  11.084  0.1950 -0.1900 -0.0579
  344TIP3    H122447   3.398   6.247  11.060 -0.5985  1.0177  0.2239
  344TIP3    H222448   3.458   6.386  11.070  0.6458  0.3460  2.5188
  345TIP3   OH222449   0.716   6.573  17.078 -0.1802  0.1488 -0.3639
  345TIP3    H122450   0.810   6.565  17.091 -0.6653 -0.5416  3.1522
  345TIP3    H222451   0.685   6.483  17.069 -0.5223  0.3715 -1.4560
  346TIP3   OH222452   4.029   2.088  12.496  0.3994  0.0815 -0.1467
  346TIP3    H122453   4.026   2.062  12.588  1.4205  0.1317 -0.0895
  346TIP3    H222454   4.051   2.182  12.499  1.8402 -0.2293 -0.4598
  347TIP3   OH222455   2.476   3.455  14.854  0.2788 -0.4199 -0.6753
  347TIP3    H122456   2.456   3.526  14.915  1.4981 -0.4240 -0.2693
  347TIP3    H222457   2.482   3.377  14.908  0.5858 -0.5587 -0.9106
  348TIP3   OH222458   3.522   5.267  16.518 -0.1807  0.4173 -0.3091
  348TIP3    H122459   3.540   5.317  16.598  0.5582  0.8430 -0.7317
  348TIP3    H222460   3.567   5.183  16.532  1.2733  1.0689 -0.9051
  349TIP3   OH222461   4.293   2.262  12.722 -0.2302  0.7631  0.2692
  349TIP3    H122462   4.319   2.283  12.811 -2.0264 -0.8963  1.2292
  349TIP3    H222463   4.357   2.198  12.692  0.5407  1.5340  0.2480
  350TIP3   OH222464   6.724   0.157  12.665  0.2004  0.0406 -0.4712
  350TIP3    H122465   6.697   0.182  12.753 -0.3769 -0.9768 -0.3477
  350TIP3    H222466   6.725   0.239  12.616  2.9578  0.9991  1.1007
  351TIP3   OH222467   4.797   2.512  11.455 -0.0817 -0.2980  0.0396
  351TIP3    H122468   4.815   2.589  11.401  2.7618 -1.0763 -0.2283
  351TIP3    H222469   4.710   2.526  11.490 -1.7352  0.6208 -4.1716
  352TIP3   OH222470   3.650   4.390  11.989 -0.0719 -0.1229  0.4102
  352TIP3    H122471   3.638   4.330  11.915  1.5246  0.8243 -0.6728
  352TIP3    H222472   3.722   4.351  12.040 -0.8622 -0.5363  1.2155
  353TIP3   OH222473   0.058   1.345  15.905 -0.2203  0.4479  0.0808
  353TIP3    H122474   0.014   1.424  15.937  1.0802  1.5957 -0.9314
  353TIP3    H222475   0.123   1.377  15.842 -0.4704 -1.5227 -1.2110
  354TIP3   OH222476   5.887   1.554  15.502 -0.1668  0.0034  0.1019
  354TIP3    H122477   5.886   1.520  15.592 -1.0251  1.9516  0.8444
  354TIP3    H222478   5.915   1.645  15.511  1.6036 -0.3256 -1.8258
  355TIP3   OH222479   2.896   3.008  14.191  0.3932  0.2904 -0.4124
  355TIP3    H122480   2.936   3.087  14.225 -0.0365  0.9444 -1.4034
  355TIP3    H222481   2.860   3.033  14.106 -0.3858 -0.7770 -0.4209
  356TIP3   OH222482   6.381   5.119   1.412  0.6809 -0.3404 -0.1951
  356TIP3    H122483   6.438   5.170   1.354 -0.1058  1.1019  0.2666
  356TIP3    H222484   6.434   5.103   1.490  1.0495 -0.5150 -0.4791
  357TIP3   OH222485   4.043   0.227   5.190 -0.1355  0.0540  0.1814
  357TIP3    H122486   4.013   0.207   5.102 -1.5581 -1.6059  1.0208
  357TIP3    H222487   3.999   0.164   5.246  1.9976  0.0355  1.9146
  358TIP3   OH222488   1.294   3.137   4.411  0.3153 -1.0652 -0.0204
  358TIP3    H122489   1.241   3.073   4.364 -0.1853 -0.6026 -0.0881
  358TIP3    H222490   1.275   3.120   4.503 -1.3853  0.3013 -0.0886
  359TIP3   OH222491   6.344   6.019   4.124  0.1686 -0.0595  0.1561
  359TIP3    H122492   6.261   5.974   4.141 -0.4458  0.8899 -0.2964
  359TIP3    H222493   6.340   6.042   4.032  0.5471  0.7883  0.3498
  360TIP3   OH222494   3.898   5.760  12.314 -0.5297  0.3613 -0.0934
  360TIP3    H122495   3.814   5.759  12.268  0.1269 -0.9336 -1.2593
  360TIP3    H222496   3.964   5.760  12.245  0.4422  1.0571  0.8264
  361TIP3   OH222497   0.906   5.600   4.654  0.4136 -1.0585  0.7096
  361TIP3    H122498   0.914   5.622   4.562 -0.3228 -0.0929  0.8664
  361TIP3    H222499   0.989   5.628   4.693 -0.4734  1.4407  0.8947
  362TIP3   OH222500   2.907   6.383  17.170  0.0356  0.3034  0.0232
  362TIP3    H122501   2.835   6.402  17.110 -0.5600  0.4760  0.7852
  362TIP3    H222502   2.875   6.311  17.225  0.0705  1.0049  0.9905
  363TIP3   OH222503   3.489   5.892  16.875  0.5535  0.1297  0.3987
  363TIP3    H122504   3.420   5.954  16.850 -0.9919 -2.5842 -2.3315
  363TIP3    H222505   3.555   5.901  16.807 -0.2580 -2.0470 -0.7224
  364TIP3   OH222506   2.869   0.041   0.398  0.0325  0.7882  0.1551
  364TIP3    H122507   2.792  -0.016   0.397  0.6374 -0.1791  3.4855
  364TIP3    H222508   2.844   0.114   0.454  1.5116  0.4781  1.2534
  365TIP3   OH222509   4.157   4.483   5.138 -0.6295 -0.0267  0.1235
  365TIP3    H122510   4.091   4.501   5.071 -1.7833  1.0516  1.5091
  365TIP3    H222511   4.112   4.499   5.221  1.1822  0.0538  1.1240
  366TIP3   OH222512   5.089   6.573  15.637  0.2436  0.4526 -0.2702
  366TIP3    H122513   5.000   6.608  15.636  0.8832  2.1673  0.6833
  366TIP3    H222514   5.113   6.572  15.730  1.9989  2.0893 -0.6746
  367TIP3   OH222515   4.960   2.746  13.680 -0.1160  0.3070 -0.0120
  367TIP3    H122516   4.871   2.775  13.700 -0.5571 -0.4811 -0.8057
  367TIP3    H222517   4.949   2.674  13.618  1.0456 -0.3495  0.5282
  368TIP3   OH222518   4.478   2.796  11.624 -0.2338  0.1470 -0.5770
  368TIP3    H122519   4.504   2.744  11.548 -0.1178 -1.6283  0.6686
  368TIP3    H222520   4.469   2.733  11.695 -0.7521  1.7379  0.8001
  369TIP3   OH222521   0.999   3.000   2.841 -0.3873  0.0539  0.2624
  369TIP3    H122522   1.014   3.021   2.933  1.5964 -0.3095  0.0348
  369TIP3    H222523   1.042   2.916   2.828  2.1646  1.5956 -1.7553
  370TIP3   OH222524   3.812   1.802  10.553 -0.0171 -0.9958 -0.2573
  370TIP3    H122525   3.727   1.773  10.586 -0.5330  0.2284 -0.4746
  370TIP3    H222526   3.853   1.723  10.520 -1.2650 -1.5248 -0.5809
  371TIP3   OH222527   3.671   3.470  16.990  0.6084  0.1247  0.0611
  371TIP3    H122528   3.686   3.441  17.080 -0.2899 -0.0953  0.1443
  371TIP3    H222529   3.575   3.473  16.982  0.6908  1.2307 -0.5345
  372TIP3   OH222530   3.972   0.958  14.762  0.3034 -0.7333  0.6050
  372TIP3    H122531   3.975   0.935  14.855 -0.7884  0.1799  0.8657
  372TIP3    H222532   4.059   0.996  14.745 -0.0444  0.5867  1.6475
  373TIP3   OH222533   5.267   3.011  16.452  0.1937  0.2207 -0.2817
  373TIP3    H122534   5.217   2.939  16.493 -0.3398  0.8631  0.2007
  373TIP3    H222535   5.350   3.011  16.498  1.0360 -1.4652 -1.7113
  374TIP3   OH222536   2.857   0.392  15.276 -0.7427 -0.3991 -0.3073
  374TIP3    H122537   2.853   0.304  15.313 -1.7344 -0.1001  0.3137
  374TIP3    H222538   2.844   0.378  15.182  2.6550 -1.2393 -0.6905
  375TIP3   OH222539   1.267   3.598  16.907 -0.0998  0.5175 -0.1878
  375TIP3    H122540   1.184   3.598  16.954 -0.9239  2.3730 -1.5968
  375TIP3    H222541   1.274   3.510  16.869 -1.1876  0.2204  0.3020
  376TIP3   OH222542   3.263   5.089  10.803  0.9245 -0.1750 -0.1404
  376TIP3    H122543   3.177   5.052  10.824  1.5011 -2.4120 -1.4762
  376TIP3    H222544   3.248   5.138  10.722  0.8149 -0.3186 -0.2098
  377TIP3   OH222545   2.825   2.319  12.197  0.1409 -0.3231  0.2872
  377TIP3    H122546   2.901   2.260  12.199 -0.1669 -0.7058  0.5712
  377TIP3    H222547   2.850   2.387  12.134  0.1669 -1.2038 -0.6638
  378TIP3   OH222548   2.052   1.810   2.891 -0.0247  0.1687 -0.5578
  378TIP3    H122549   1.960   1.787   2.873  0.1713  0.5688 -2.0735
  378TIP3    H222550   2.099   1.727   2.885 -0.1773  0.0733 -0.4464
  379TIP3   OH222551   4.696   3.934   4.784  0.1085 -0.1238 -0.0420
  379TIP3    H122552   4.704   3.996   4.857  5.0664  0.2722 -0.7801
  379TIP3    H222553   4.659   3.986   4.712 -1.0368  0.4982  0.9834
  380TIP3   OH222554   0.833   2.884   2.471 -0.0307  0.5191  0.4835
  380TIP3    H122555   0.831   2.856   2.380 -0.7540 -1.1442  0.9892
  380TIP3    H222556   0.903   2.832   2.511 -0.7061  0.1521  1.2082
  381TIP3   OH222557   3.555   1.850  11.132  0.4723 -0.0444 -0.0144
  381TIP3    H122558   3.587   1.834  11.043  2.9494  1.1440  0.6088
  381TIP3    H222559   3.491   1.920  11.121 -0.5643 -1.1328 -1.0706
  382TIP3   OH222560   6.455   5.860   3.753  0.0867 -0.0964 -0.7660
  382TIP3    H122561   6.361   5.863   3.772  0.4070 -0.6414  1.0731
  382TIP3    H222562   6.466   5.783   3.698 -0.5967  0.1690 -1.2764
  383TIP3   OH222563   1.610   6.203   5.681  0.0561  0.2378 -0.3472
  383TIP3    H122564   1.675   6.215   5.612 -0.4640  0.4591 -0.8080
  383TIP3    H222565   1.601   6.108   5.690 -1.1985  0.1835 -1.8681
  384TIP3   OH222566   6.179   4.403  15.744  0.2407 -0.5186 -0.0968
  384TIP3    H122567   6.258   4.364  15.705  0.2510  0.1190 -0.7175
  384TIP3    H222568   6.120   4.415  15.670  0.2644  0.7112  0.0799
  385TIP3   OH222569   0.487   2.524   5.549 -0.5423 -0.5202  0.5703
  385TIP3    H122570   0.405   2.488   5.583 -1.0742 -0.9033 -1.0900
  385TIP3    H222571   0.530   2.450   5.507 -0.7622  0.3270 -1.2016
  386TIP3   OH222572   1.355   1.201  13.599 -0.4003 -0.0295  0.6155
  386TIP3    H122573   1.327   1.135  13.535 -1.6626  0.1175  0.9898
  386TIP3    H222574   1.447   1.180  13.617 -0.3702 -0.7740 -0.3795
  387TIP3   OH222575   3.536   0.072   6.658  0.5054 -0.6023  0.4772
  387TIP3    H122576   3.475   0.029   6.719 -0.1736 -1.4000 -0.7503
  387TIP3    H222577   3.479   0.119   6.597  1.1861  0.2321  0.4765
  388TIP3   OH222578   4.655   0.438   4.038 -0.2087 -0.3831  0.0788
  388TIP3    H122579   4.654   0.491   4.118  1.7861 -0.0757 -0.0598
  388TIP3    H222580   4.657   0.348   4.069  0.1479 -0.2745  0.3772
  389TIP3   OH222581   6.359   5.759   5.663 -0.1051 -0.8650  0.1142
  389TIP3    H122582   6.421   5.717   5.722  0.4172 -2.0657 -1.2576
  389TIP3    H222583   6.381   5.725   5.577 -0.5772  1.1970 -0.8439
  390TIP3   OH222584   1.556   0.243   0.040 -0.3467 -0.0251  0.0653
  390TIP3    H122585   1.619   0.311   0.016 -0.9549 -0.1315 -1.8941
  390TIP3    H222586   1.471   0.280   0.015 -0.9211 -0.4859  1.3208
  391TIP3   OH222587   5.126   4.700  16.282 -0.4323 -0.1477 -0.0472
  391TIP3    H122588   5.096   4.619  16.242  0.4824  0.2544 -1.6190
  391TIP3    H222589   5.218   4.684  16.303 -0.9118 -0.3667  1.9845
  392TIP3   OH222590   4.486   4.800  12.992 -0.4697 -0.2810 -0.5856
  392TIP3    H122591   4.562   4.750  13.023 -0.0126  1.3047  0.8870
  392TIP3    H222592   4.450   4.840  13.070 -2.0938  0.0015 -1.4672
  393TIP3   OH222593   0.715   4.400  12.749 -0.4792  0.1975  0.2417
  393TIP3    H122594   0.679   4.319  12.713 -0.2182  0.7089 -1.2102
  393TIP3    H222595   0.773   4.372  12.819  0.3256 -0.9307 -0.8617
  394TIP3   OH222596   0.372   3.317  12.256  0.2467 -0.0832  0.4745
  394TIP3    H122597   0.404   3.394  12.302  1.0037 -0.8011  1.1560
  394TIP3    H222598   0.287   3.299  12.296  0.3679  0.0014  0.7696
  395TIP3   OH222599   4.915   1.026  14.005 -0.0533 -0.4238 -0.1934
  395TIP3    H122600   4.927   0.952  14.065 -0.1718 -0.0441  0.2971
  395TIP3    H222601   4.857   0.992  13.936 -0.1446 -0.7719  0.0533
  396TIP3   OH222602   4.889   0.068   5.313 -0.3466  0.0870  0.1195
  396TIP3    H122603   4.835   0.145   5.296 -0.0900  0.1035 -0.6318
  396TIP3    H222604   4.905   0.030   5.227  0.3205 -0.2672  0.3941
  397TIP3   OH222605   3.582   2.667   2.347 -0.4298 -0.0758  0.6988
  397TIP3    H122606   3.638   2.692   2.274  0.4616  0.3781  1.5238
  397TIP3    H222607   3.493   2.688   2.318  0.0799  1.8498  0.4573
  398TIP3   OH222608   1.841   2.095  12.210 -0.0349 -1.1411 -0.8174
  398TIP3    H122609   1.824   2.001  12.216 -1.2850 -0.7920  2.0481
  398TIP3    H222610   1.757   2.136  12.231  1.5675  0.5618  2.7490
  399TIP3   OH222611   2.514   6.321   3.240  0.8754  0.1039 -0.1138
  399TIP3    H122612   2.456   6.263   3.289  1.1601 -1.6028 -1.7613
  399TIP3    H222613   2.467   6.340   3.159  0.4667  2.8041  0.6835
  400TIP3   OH222614   5.310   1.523  11.246 -0.1827 -0.0588  1.0249
  400TIP3    H122615   5.313   1.509  11.340 -1.1168 -0.8422  0.9477
  400TIP3    H222616   5.218   1.510  11.222 -0.1799  1.3247  0.1841
  401TIP3   OH222617   1.289   0.559   1.372 -0.5540 -0.2413  0.1300
  401TIP3    H122618   1.257   0.471   1.353  1.0346 -0.6984 -0.5665
  401TIP3    H222619   1.379   0.545   1.403 -0.7615  1.0429  1.3598
  402TIP3   OH222620   5.981   2.317  11.759 -0.1987  1.0122 -0.0995
  402TIP3    H122621   6.070   2.311  11.793 -0.1397  0.4740 -0.3365
  402TIP3    H222622   5.989   2.296  11.666 -0.5439  1.1722 -0.1691
  403TIP3   OH222623   4.144   1.927  13.413 -0.5327  0.2646 -0.0817
  403TIP3    H122624   4.137   1.896  13.504  0.7403  1.0339  0.2912
  403TIP3    H222625   4.061   1.902  13.373 -0.4964 -1.4604  0.8686
  404TIP3   OH222626   0.489   3.328  12.656  0.1794  0.2458  0.0072
  404TIP3    H122627   0.432   3.389  12.609 -1.2902 -0.1306  1.2751
  404TIP3    H222628   0.500   3.367  12.743  2.7755  0.8769 -0.5597
  405TIP3   OH222629   3.706   1.619  14.303 -0.3204  0.1026  0.1751
  405TIP3    H122630   3.784   1.598  14.354 -1.2512  0.3529  1.7725
  405TIP3    H222631   3.718   1.711  14.278 -1.0088  0.7667  2.1783
  406TIP3   OH222632   4.602   2.641   4.704 -0.4125  0.0229  0.2538
  406TIP3    H122633   4.686   2.687   4.696  0.7610 -2.4187 -2.4646
  406TIP3    H222634   4.612   2.586   4.781 -0.2146  1.0648  0.9852
  407TIP3   OH222635   1.413   0.428  13.069  0.0461  0.1435 -0.7831
  407TIP3    H122636   1.329   0.457  13.104 -0.2071 -0.6503 -0.7189
  407TIP3    H222637   1.390   0.359  13.006  0.7342 -1.1771  0.3843
  408TIP3   OH222638   0.457   1.536  15.168  0.0059 -0.5872 -0.4090
  408TIP3    H122639   0.489   1.491  15.090  2.2379 -0.0953  0.1830
  408TIP3    H222640   0.388   1.594  15.136  0.5024 -0.8051 -1.9133
  409TIP3   OH222641   4.595   6.222  15.515 -0.0660  0.2052  0.1702
  409TIP3    H122642   4.633   6.272  15.443  2.4989 -1.1177  0.5372
  409TIP3    H222643   4.660   6.154  15.534 -1.9799 -1.2264  1.8544
  410TIP3   OH222644   3.620   3.484  10.753 -0.1138  0.4825 -0.4594
  410TIP3    H122645   3.716   3.487  10.761 -0.2687  0.9317  1.4675
  410TIP3    H222646   3.602   3.397  10.718  0.8432 -0.9031  2.2893
  411TIP3   OH222647   1.958   6.608  14.538  0.2727 -0.3686  0.1048
  411TIP3    H122648   2.020   6.663  14.585 -1.9657  2.7129 -0.3560
  411TIP3    H222649   1.969   6.633  14.446 -1.6041  0.2331  0.0167
  412TIP3   OH222650   4.544   0.107  16.801  0.1213  0.2877  0.4183
  412TIP3    H122651   4.621   0.051  16.806 -0.6793 -0.9177 -0.3791
  412TIP3    H222652   4.541   0.135  16.709 -2.3860 -2.6238 -0.4765
  413TIP3   OH222653   4.739   0.414  14.195  0.2869  0.3397  0.0378
  413TIP3    H122654   4.814   0.385  14.247  0.9810  0.0418 -1.1131
  413TIP3    H222655   4.687   0.334  14.183  0.7549  0.1541 -0.7580
  414TIP3   OH222656   6.275   0.218   1.202 -0.2728  0.0079  0.2620
  414TIP3    H122657   6.257   0.163   1.278  1.0156 -0.2276  0.4077
  414TIP3    H222658   6.323   0.161   1.142 -1.8941 -0.0335 -1.0618
  415TIP3   OH222659   0.043   0.728  11.678  0.2276 -0.3451  0.1191
  415TIP3    H122660   0.009   0.682  11.755  0.6935 -1.1346 -0.1443
  415TIP3    H222661   0.034   0.821  11.700  1.3357 -0.5676  1.5727
  416TIP3   OH222662   1.446   5.893  15.806 -0.2604 -0.2448  0.1727
  416TIP3    H122663   1.386   5.859  15.740 -1.9467 -0.0068  1.5455
  416TIP3    H222664   1.433   5.836  15.882  1.2465 -0.1811  0.4950
  417TIP3   OH222665   2.259   0.892  14.614 -0.4260 -0.1078 -0.6145
  417TIP3    H122666   2.336   0.881  14.670 -1.4983  0.6175  1.0287
  417TIP3    H222667   2.291   0.944  14.540  1.1342 -1.5372 -0.9904
  418TIP3   OH222668   0.116   5.162  13.028  0.0524 -0.5416  0.2516
  418TIP3    H122669   0.057   5.180  13.102  0.2268  0.7830  0.0691
  418TIP3    H222670   0.074   5.205  12.953  0.5391 -0.7841 -0.1603
  419TIP3   OH222671   2.941   0.714  13.536 -0.0401  0.4975  0.0613
  419TIP3    H122672   3.013   0.739  13.479  0.3717 -0.9332 -0.0624
  419TIP3    H222673   2.864   0.758  13.498  0.2881 -0.1467 -1.3816
  420TIP3   OH222674   0.390   4.246   1.035  0.4624 -0.0336 -0.3215
  420TIP3    H122675   0.452   4.316   1.013  0.0593  0.5589  0.4078
  420TIP3    H222676   0.438   4.189   1.095  1.0182 -0.7629 -1.4376
  421TIP3   OH222677   4.332   5.562  12.391  0.3261  0.3833  0.1178
  421TIP3    H122678   4.238   5.575  12.375  0.8428  2.7861 -1.3137
  421TIP3    H222679   4.367   5.536  12.306  1.0658  0.1547  0.4920
  422TIP3   OH222680   0.004   4.778   1.654 -0.0141 -0.1570 -0.3249
  422TIP3    H122681  -0.058   4.721   1.701 -0.1816  2.6424  3.0862
  422TIP3    H222682  -0.050   4.823   1.589 -0.4786 -1.5440 -0.9396
  423TIP3   OH222683   6.005   6.634   1.832  0.3347  0.3852  0.2894
  423TIP3    H122684   6.028   6.723   1.806 -0.1691  0.7297  1.0327
  423TIP3    H222685   5.953   6.644   1.911  0.1339 -0.5616  0.2860
  424TIP3   OH222686   2.296   0.016   6.104 -0.1582 -0.2861  0.7518
  424TIP3    H122687   2.342   0.099   6.118 -0.0551 -0.3327  0.6880
  424TIP3    H222688   2.308  -0.032   6.186 -0.0776 -0.3061  0.7283
  425TIP3   OH222689   2.775   2.870   1.658 -0.2979 -0.6578  0.0079
  425TIP3    H122690   2.763   2.775   1.658  1.0439 -0.8400 -0.0142
  425TIP3    H222691   2.776   2.894   1.566 -2.6837 -0.3387  0.0540
  426TIP3   OH222692   0.839   4.790  15.326 -0.6401 -0.3590 -0.3690
  426TIP3    H122693   0.780   4.718  15.303  0.5651 -1.8709  1.0679
  426TIP3    H222694   0.927   4.757  15.305 -0.1128  0.9077 -0.2113
  427TIP3   OH222695   6.259   6.176   6.394 -0.3612  0.1280  0.5732
  427TIP3    H122696   6.239   6.268   6.380 -1.6561 -0.5114 -2.1175
  427TIP3    H222697   6.195   6.147   6.459 -0.5921  0.8849  0.6864
  428TIP3   OH222698   4.299   5.688  16.801  0.4020 -0.4961 -0.1195
  428TIP3    H122699   4.235   5.623  16.828  0.3978  0.3720  2.0444
  428TIP3    H222700   4.354   5.701  16.878  1.0594  1.2608 -0.8649
  429TIP3   OH222701   2.664   4.872   0.885 -0.8123 -0.0917  0.3672
  429TIP3    H122702   2.627   4.887   0.972 -1.2892  0.1848  0.1169
  429TIP3    H222703   2.692   4.958   0.855 -2.0311  0.0529 -0.3768
  430TIP3   OH222704   3.016   2.501  11.176 -0.0243 -0.1129 -0.0748
  430TIP3    H122705   3.084   2.554  11.133 -0.7144 -0.0712 -1.1407
  430TIP3    H222706   2.993   2.435  11.111 -1.3865  0.2067  0.0587
  431TIP3   OH222707   4.232   3.803   1.586  0.6690  0.0531  0.6027
  431TIP3    H122708   4.177   3.859   1.642 -1.7491  0.1958 -1.7855
  431TIP3    H222709   4.187   3.719   1.585  2.6935 -1.0669  1.7807
  432TIP3   OH222710   3.214   4.675   0.078  0.1087  0.1826 -0.4605
  432TIP3    H122711   3.167   4.599   0.043  1.5892 -1.5616  1.2338
  432TIP3    H222712   3.146   4.739   0.099 -1.0850 -0.2429 -2.8787
  433TIP3   OH222713   0.998   4.282   4.371  0.8122 -0.3959 -0.3663
  433TIP3    H122714   1.092   4.300   4.376  0.8334 -0.3038 -1.0072
  433TIP3    H222715   0.958   4.369   4.364  0.6783 -0.4362 -0.1155
  434TIP3   OH222716   4.043   3.032   6.175  0.3507  0.1202  0.2542
  434TIP3    H122717   4.114   3.001   6.230  0.1516  0.1736  0.5384
  434TIP3    H222718   4.054   3.127   6.172  0.5483  0.0884 -0.0540
  435TIP3   OH222719   3.195   5.045  13.066 -0.0633 -0.4019  0.5632
  435TIP3    H122720   3.229   5.032  13.154  1.1726 -1.0348  0.0089
  435TIP3    H222721   3.272   5.041  13.010 -1.0458 -1.7655 -0.7287
  436TIP3   OH222722   1.068   1.263  10.669  0.2024  0.2614 -0.1204
  436TIP3    H122723   0.978   1.270  10.638  0.4944  1.9670 -0.6302
  436TIP3    H222724   1.061   1.218  10.753 -0.9896 -0.8345 -0.7912
  437TIP3   OH222725   6.111   6.324   2.915  0.1515 -0.0548 -0.3551
  437TIP3    H122726   6.069   6.397   2.868  0.2143 -1.0772 -2.0448
  437TIP3    H222727   6.185   6.299   2.859 -0.6458 -2.2560 -0.4736
  438TIP3   OH222728   3.181   2.731  12.708  0.2559  0.1835  0.9445
  438TIP3    H122729   3.178   2.637  12.689 -1.3570  0.5540 -0.7795
  438TIP3    H222730   3.123   2.743  12.783  0.6882 -0.2236  1.3469
  439TIP3   OH222731   2.312   1.799   3.960  0.4116  0.6342 -0.0711
  439TIP3    H122732   2.399   1.764   3.980  0.5124  1.0195  0.1812
  439TIP3    H222733   2.270   1.810   4.045  1.0900  2.9060  0.0270
  440TIP3   OH222734   5.775   4.936  16.059  0.2142  0.1409  0.1580
  440TIP3    H122735   5.815   4.915  15.975 -1.0080 -0.9068 -0.1851
  440TIP3    H222736   5.741   5.024  16.048  0.0578  0.0049 -0.4517
  441TIP3   OH222737   3.769   6.458  13.775  0.5962 -0.1589 -0.5235
  441TIP3    H122738   3.723   6.471  13.692  1.6520 -0.7384 -1.2169
  441TIP3    H222739   3.764   6.542  13.819  0.8621  0.4382 -1.6106
  442TIP3   OH222740   2.826   3.383  16.357 -0.3863 -0.0203 -0.4034
  442TIP3    H122741   2.829   3.478  16.370  0.6115 -0.1147  0.1299
  442TIP3    H222742   2.733   3.361  16.356 -0.6024  0.8616  0.2044
  443TIP3   OH222743   4.136   5.857  16.404 -0.4247  0.0703 -0.2255
  443TIP3    H122744   4.135   5.888  16.314  0.6731  1.0241  0.0766
  443TIP3    H222745   4.179   5.771  16.399 -1.9204 -0.6494 -0.8313
  444TIP3   OH222746   5.041   5.718  11.124 -0.7439 -0.2445 -0.0191
  444TIP3    H122747   5.003   5.660  11.190 -2.8623  1.2175  0.1007
  444TIP3    H222748   4.994   5.697  11.044  1.6637 -1.8559 -1.0617
  445TIP3   OH222749   2.115   4.060  14.927 -0.1122  0.3063  0.0529
  445TIP3    H122750   2.134   4.030  15.016 -0.4488 -1.6974 -0.5212
  445TIP3    H222751   2.200   4.061  14.883  0.0521  1.2855  0.3741
  446TIP3   OH222752   2.868   5.041  15.383  0.3491  0.3643  0.0448
  446TIP3    H122753   2.790   5.059  15.330  1.1185  1.3449 -0.7904
  446TIP3    H222754   2.837   4.985  15.454 -1.2859  1.4065  0.1822
  447TIP3   OH222755   2.340   0.421  11.307 -0.3392  0.3332 -0.5305
  447TIP3    H122756   2.245   0.412  11.319 -0.1543  0.6333  1.3885
  447TIP3    H222757   2.362   0.353  11.244 -1.8370  0.2933 -1.0445
  448TIP3   OH222758   5.379   4.223   1.776 -0.5170 -0.2563  0.6819
  448TIP3    H122759   5.320   4.274   1.830  0.1425 -0.2447  1.3975
  448TIP3    H222760   5.376   4.135   1.813  0.6542 -0.0328  1.3328
  449TIP3   OH222761   3.005   2.144   4.542 -0.7439 -0.1007 -0.8557
  449TIP3    H122762   3.032   2.134   4.451 -0.8397  1.4776 -1.0694
  449TIP3    H222763   3.066   2.209   4.578 -2.0683  0.9023 -0.3898
  450TIP3   OH222764   1.018   1.074  13.997  0.2064  0.1282  1.1863
  450TIP3    H122765   1.087   1.041  13.939 -0.2392  1.5815 -0.2212
  450TIP3    H222766   0.980   0.996  14.037  0.8541 -0.8727 -0.1171
  451TIP3   OH222767   4.434   6.263  12.313  0.0179 -0.5829 -0.2748
  451TIP3    H122768   4.492   6.192  12.342 -1.1187 -0.6070  2.0992
  451TIP3    H222769   4.481   6.343  12.335  0.1830 -0.5965 -0.5745
  452TIP3   OH222770   3.009   1.195  14.860  0.9262  0.4979 -0.1018
  452TIP3    H122771   2.915   1.195  14.880  1.7971 -0.1767  4.8085
  452TIP3    H222772   3.026   1.109  14.823  0.2792 -1.3162  3.5405
  453TIP3   OH222773   0.321   6.150  16.557  0.1897 -0.1227 -0.2150
  453TIP3    H122774   0.415   6.145  16.575  0.1607 -0.4298 -0.1421
  453TIP3    H222775   0.316   6.155  16.461  0.2378 -1.3269 -0.2916
  454TIP3   OH222776   1.453   5.450   2.985 -0.1229 -0.5804  0.3035
  454TIP3    H122777   1.373   5.476   3.029 -0.2311  1.6931 -1.1369
  454TIP3    H222778   1.523   5.493   3.034  0.0391 -0.9218  0.3719
  455TIP3   OH222779   2.769   0.194   3.662 -0.8023 -0.4042 -0.7805
  455TIP3    H122780   2.749   0.252   3.589 -0.2795 -0.8942 -1.3144
  455TIP3    H222781   2.826   0.245   3.719 -1.4059  0.0647 -0.5805
  456TIP3   OH222782   0.329   5.772  17.077  0.2701 -0.2354 -0.4758
  456TIP3    H122783   0.368   5.711  17.014 -1.2956  0.2754 -1.9839
  456TIP3    H222784   0.306   5.849  17.025 -0.9933  0.2352  0.7271
  457TIP3   OH222785   5.713   0.297   3.701 -0.2503 -0.2203  0.3668
  457TIP3    H122786   5.685   0.309   3.792 -0.6415  1.5643  0.0301
  457TIP3    H222787   5.703   0.203   3.685 -1.5429 -0.3264  1.7173
  458TIP3   OH222788   3.246   6.058  15.640 -0.6830 -0.7554  0.3141
  458TIP3    H122789   3.306   6.034  15.569  0.6616  1.1772  0.7667
  458TIP3    H222790   3.176   6.108  15.597  1.0775  2.0179  0.5114
  459TIP3   OH222791   5.960   5.336   1.625 -0.2453  0.1108 -0.0413
  459TIP3    H122792   5.881   5.290   1.596 -1.0105  0.4818  1.4395
  459TIP3    H222793   6.032   5.285   1.589 -1.1263 -1.0598 -0.1650
  460TIP3   OH222794   0.526   4.851   3.735  0.0044 -0.3368 -0.1095
  460TIP3    H122795   0.498   4.873   3.824  0.4644 -1.3530  0.2907
  460TIP3    H222796   0.617   4.881   3.730 -0.7347  1.8655 -1.0188
  461TIP3   OH222797   3.644   6.053   0.222  0.0708 -0.2997 -0.3248
  461TIP3    H122798   3.581   5.982   0.229 -0.3565  0.0894 -0.1791
  461TIP3    H222799   3.593   6.132   0.239  0.3486  0.1254 -1.3864
  462TIP3   OH222800   6.130   4.196  14.161 -0.4908 -0.2348  0.6229
  462TIP3    H122801   6.096   4.109  14.180  1.9130 -1.5913 -0.9877
  462TIP3    H222802   6.078   4.226  14.086 -1.4461 -0.1959  1.2986
  463TIP3   OH222803   0.354   4.125  10.934  0.1437  0.8094  0.1703
  463TIP3    H122804   0.324   4.042  10.899 -0.4322  1.6795 -1.4618
  463TIP3    H222805   0.275   4.177  10.946  0.5561  1.3790  0.4841
  464TIP3   OH222806   4.953   3.268  13.636 -0.3805  0.1765  0.4663
  464TIP3    H122807   4.994   3.326  13.572 -0.8211 -0.3772 -0.3464
  464TIP3    H222808   5.021   3.249  13.700  0.3146  0.0980 -0.2909
  465TIP3   OH222809   6.653   1.076  11.267 -0.3638 -0.0052 -0.0271
  465TIP3    H122810   6.623   1.110  11.183  0.3218  1.3805  0.2646
  465TIP3    H222811   6.578   1.027  11.301 -0.2162 -1.6512 -1.9929
  466TIP3   OH222812   5.666   4.737   3.206  0.0544 -0.5073  0.1265
  466TIP3    H122813   5.758   4.760   3.214  0.2026 -0.3345 -1.7401
  466TIP3    H222814   5.651   4.732   3.111 -2.0149  0.1422  0.3971
  467TIP3   OH222815   2.215   4.223  12.554  0.0595 -0.3861  0.0202
  467TIP3    H122816   2.128   4.198  12.523  1.1781 -3.4996 -0.7910
  467TIP3    H222817   2.241   4.295  12.497 -1.5045 -0.1943 -0.4747
  468TIP3   OH222818   6.354   6.080  15.419 -0.6934  0.1196  0.1495
  468TIP3    H122819   6.425   6.104  15.359  1.0028  0.1115  2.1034
  468TIP3    H222820   6.383   5.998  15.460 -1.8048  0.1378  1.0066
  469TIP3   OH222821   1.242   3.442   3.982 -0.2286 -0.0218  0.1384
  469TIP3    H122822   1.216   3.519   4.033 -2.7379 -1.2217  0.7327
  469TIP3    H222823   1.286   3.386   4.046  0.7878  0.4890 -0.0948
  470TIP3   OH222824   1.129   0.340   1.277  0.4419 -0.0127 -0.0413
  470TIP3    H122825   1.152   0.249   1.295  0.8187  0.2150  0.6598
  470TIP3    H222826   1.126   0.345   1.181  0.7737 -0.6739 -0.0913
  471TIP3   OH222827   5.319   0.155  13.722 -0.1507 -0.1869 -0.3288
  471TIP3    H122828   5.247   0.173  13.782  0.3720 -0.6006  0.4284
  471TIP3    H222829   5.374   0.234  13.727  0.5222 -0.7076  0.6536
  472TIP3   OH222830   6.440   5.597   3.439 -0.3104 -0.2605  0.5043
  472TIP3    H122831   6.506   5.616   3.373  0.1632  0.7526  1.2562
  472TIP3    H222832   6.384   5.675   3.441 -1.4570 -1.0449 -0.0202
  473TIP3   OH222833   0.844   6.103  15.751 -0.4082  0.4195 -0.2707
  473TIP3    H122834   0.892   6.104  15.667  1.7327 -0.1252  0.9003
  473TIP3    H222835   0.855   6.191  15.785 -1.2543  0.6322 -0.5545
  474TIP3   OH222836   0.639   0.554   4.684  0.3635  0.2026  0.1428
  474TIP3    H122837   0.629   0.610   4.607 -1.5199 -0.7210 -0.3145
  474TIP3    H222838   0.732   0.560   4.706  1.0307  0.1050 -2.4766
  475TIP3   OH222839   2.935   5.697  11.604  0.3786  0.3054  0.6151
  475TIP3    H122840   2.968   5.607  11.604 -1.3191 -0.3386  1.5237
  475TIP3    H222841   2.863   5.696  11.541  0.8593  1.2326  0.0442
  476TIP3   OH222842   4.806   0.132   3.554 -0.3953 -0.3399  0.1825
  476TIP3    H122843   4.882   0.097   3.601 -0.6222  2.3285  2.6713
  476TIP3    H222844   4.842   0.164   3.472  1.0991  0.4148  1.1009
  477TIP3   OH222845   2.713   5.525  16.826  0.3502  0.0703  0.6103
  477TIP3    H122846   2.676   5.613  16.820  0.4877  0.1101  0.2888
  477TIP3    H222847   2.664   5.483  16.896  1.4182  0.9437  1.9180
  478TIP3   OH222848   2.568   4.132   2.433  0.0683  0.3860  0.1817
  478TIP3    H122849   2.625   4.056   2.431 -0.3718  0.0104  1.4539
  478TIP3    H222850   2.560   4.158   2.342  1.8487  0.1390 -0.0616
  479TIP3   OH222851   2.748   3.072   0.452 -0.2465  0.8734 -0.1471
  479TIP3    H122852   2.764   3.002   0.388 -0.2963  0.8926 -0.1812
  479TIP3    H222853   2.702   3.028   0.524 -1.9719  1.2193 -0.9960
  480TIP3   OH222854   1.473   4.382  11.085  1.0064 -0.7997  0.5783
  480TIP3    H122855   1.394   4.346  11.126  1.1335 -1.8200 -0.0448
  480TIP3    H222856   1.441   4.429  11.008  0.6651  2.0435  2.3993
  481TIP3   OH222857   2.227   5.857   1.633 -0.5464 -0.4897  0.2528
  481TIP3    H122858   2.181   5.903   1.561 -0.4022  0.1378  0.5556
  481TIP3    H222859   2.260   5.928   1.688 -0.0127 -0.9643  0.5375
  482TIP3   OH222860   3.639   4.433   1.663  0.2773  0.6702 -0.0321
  482TIP3    H122861   3.619   4.350   1.705 -0.8033  1.1221  0.3546
  482TIP3    H222862   3.557   4.482   1.665  0.2032  0.7019 -2.7023
  483TIP3   OH222863   0.266   6.502   1.607  0.1258  0.2801 -0.6145
  483TIP3    H122864   0.355   6.470   1.596  0.4273  1.2928 -1.1123
  483TIP3    H222865   0.236   6.521   1.518 -0.3059  0.6818 -0.3860
  484TIP3   OH222866   1.870   5.262   4.004 -0.2604  0.1810  0.1955
  484TIP3    H122867   1.890   5.270   4.098 -1.1074 -1.3922  0.5225
  484TIP3    H222868   1.774   5.255   4.001 -0.1662 -0.7297 -0.7254
  485TIP3   OH222869   6.595   3.712  15.056 -0.0832  0.7369 -0.0491
  485TIP3    H122870   6.583   3.789  15.000 -0.2018  0.4112 -0.4727
  485TIP3    H222871   6.688   3.712  15.078 -0.0272  0.8390 -0.2882
  486TIP3   OH222872   5.042   3.334  16.593  0.4689 -0.5228 -0.6043
  486TIP3    H122873   4.991   3.415  16.582 -0.3948 -1.0235 -0.3051
  486TIP3    H222874   5.037   3.292  16.507  0.5863 -0.4525 -0.6474
  487TIP3   OH222875   2.074   5.067   3.174  0.3909 -0.1460 -0.5933
  487TIP3    H122876   2.118   5.093   3.093  0.4986  1.4223 -0.0542
  487TIP3    H222877   2.084   5.143   3.232  0.0587 -1.1351  0.7876
  488TIP3   OH222878   1.834   4.508   3.094 -0.0418 -0.1965 -0.1738
  488TIP3    H122879   1.926   4.534   3.091 -0.0686  0.1186  1.3225
  488TIP3    H222880   1.787   4.590   3.113 -0.3933 -0.7886  1.6025
  489TIP3   OH222881   2.914   5.501   3.405  0.0253  0.4585 -0.2444
  489TIP3    H122882   2.913   5.498   3.309 -0.6109  0.4201 -0.2418
  489TIP3    H222883   2.859   5.426   3.431 -1.8538  1.9156  0.1130
  490TIP3   OH222884   6.292   3.672  15.069  0.0244  0.0052  0.2005
  490TIP3    H122885   6.367   3.623  15.036  1.5840  1.4288  1.5665
  490TIP3    H222886   6.277   3.741  15.004 -0.8182 -0.9245 -0.6213
  491TIP3   OH222887   2.187   1.067   4.866 -0.0867 -0.0081  0.2217
  491TIP3    H122888   2.261   1.011   4.888  0.2901  0.3333 -0.1718
  491TIP3    H222889   2.219   1.124   4.796 -0.8332 -0.1205 -0.2280
  492TIP3   OH222890   4.264   1.275  16.912  0.1856 -0.0984 -0.3997
  492TIP3    H122891   4.358   1.262  16.926  0.1037 -1.1575 -0.8179
  492TIP3    H222892   4.254   1.280  16.817  0.0669  1.9353 -0.2932
  493TIP3   OH222893   0.417   0.492  15.990  0.7090 -0.3444 -0.1056
  493TIP3    H122894   0.502   0.537  15.986 -0.2820  1.6023 -0.1685
  493TIP3    H222895   0.354   0.563  16.002 -0.8914 -1.7947  0.2072
  494TIP3   OH222896   3.003   1.607  16.492  0.1497 -0.2913  0.0145
  494TIP3    H122897   3.092   1.576  16.508 -0.2163 -0.6198  1.5056
  494TIP3    H222898   2.966   1.543  16.431  0.5954 -0.7594  0.2251
  495TIP3   OH222899   5.528   1.289   4.079  0.1218  0.1116  0.0729
  495TIP3    H122900   5.482   1.342   4.144  0.0963  0.2255 -0.0384
  495TIP3    H222901   5.523   1.340   3.998  1.0486  0.4525  0.2216
  496TIP3   OH222902   6.047   5.145   4.911 -0.6599  0.1465  0.8091
  496TIP3    H122903   6.000   5.084   4.968 -1.3029 -0.0084  0.1202
  496TIP3    H222904   6.107   5.090   4.861 -2.3969 -0.1496 -0.9865
  497TIP3   OH222905   2.372   1.162   0.193  0.3198 -0.2692 -0.2154
  497TIP3    H122906   2.310   1.228   0.162  2.2759  0.7379 -2.0962
  497TIP3    H222907   2.355   1.086   0.138  0.7000 -0.0158 -0.6848
  498TIP3   OH222908   4.647   2.106  13.252 -0.0928 -0.3295 -0.2748
  498TIP3    H122909   4.633   2.022  13.208 -1.2018 -0.4739  0.3244
  498TIP3    H222910   4.562   2.151  13.245 -0.3514 -0.4227  1.8389
  499TIP3   OH222911   3.776   1.385  11.558  0.0662 -0.1985 -0.1435
  499TIP3    H122912   3.865   1.358  11.581 -0.4946 -0.0868  2.2413
  499TIP3    H222913   3.785   1.477  11.534  0.4849  0.0439  0.8969
  500TIP3   OH222914   4.427   0.207   6.319 -0.2169 -0.5931 -0.0140
  500TIP3    H122915   4.445   0.113   6.323 -1.8580 -0.9230  0.3886
  500TIP3    H222916   4.500   0.244   6.270  1.1266 -1.8880  0.9729
  501TIP3   OH222917   2.637   5.588   5.878 -0.0641 -0.0585 -0.3626
  501TIP3    H122918   2.708   5.548   5.928 -0.2807  1.9629  1.6396
  501TIP3    H222919   2.568   5.522   5.877  0.8548 -1.0375 -0.0511
  502TIP3   OH222920   2.334   4.011   2.215  0.2378 -0.1722 -0.0381
  502TIP3    H122921   2.273   4.076   2.179 -1.5888 -0.7494  1.9130
  502TIP3    H222922   2.366   3.964   2.138 -1.4945  0.4156 -1.1534
  503TIP3   OH222923   4.835   2.846  14.553  0.3423  0.4376 -0.1491
  503TIP3    H122924   4.839   2.803  14.467 -0.2483 -0.6406  0.3470
  503TIP3    H222925   4.741   2.855  14.570  0.4647  1.5568 -0.0537
  504TIP3   OH222926   6.633   5.922   1.228  0.0183 -0.4590  0.2289
  504TIP3    H122927   6.598   5.838   1.254  0.5806 -0.5087  0.8444
  504TIP3    H222928   6.604   5.983   1.296 -0.1276 -0.2192 -0.0471
  505TIP3   OH222929   3.674   1.164   2.552  0.5276 -0.1672  0.9497
  505TIP3    H122930   3.699   1.074   2.531  1.2700  0.5531 -1.3917
  505TIP3    H222931   3.637   1.198   2.471  0.9859  1.9012  1.5841
  506TIP3   OH222932   3.384   3.634  16.094 -0.0956  0.1672  0.1962
  506TIP3    H122933   3.322   3.668  16.030  0.9266 -0.5467 -1.2016
  506TIP3    H222934   3.444   3.579  16.043 -0.0203 -1.4326  1.9633
  507TIP3   OH222935   6.514   3.463   0.495 -0.5359 -0.0914 -0.5062
  507TIP3    H122936   6.435   3.510   0.468 -0.4758  0.8217  0.8612
  507TIP3    H222937   6.483   3.376   0.520 -1.3812  0.8362  1.7484
  508TIP3   OH222938   3.013   1.446   0.306 -0.4876 -0.5675  0.3155
  508TIP3    H122939   2.919   1.436   0.317 -0.5701  0.7029  0.8475
  508TIP3    H222940   3.022   1.510   0.235  0.0069 -3.4649 -2.3732
  509TIP3   OH222941   0.828   6.265  16.423 -0.3731 -0.2508  0.1138
  509TIP3    H122942   0.861   6.331  16.484  0.7963 -2.7797  2.2717
  509TIP3    H222943   0.887   6.271  16.347  0.3419  0.4982  0.7218
  510TIP3   OH222944   4.788   5.318   3.312 -0.2969  0.1366  0.0332
  510TIP3    H122945   4.746   5.340   3.395 -1.6140 -1.5196 -0.1737
  510TIP3    H222946   4.873   5.362   3.316 -1.2718  1.9690  1.2581
  511TIP3   OH222947   4.252   0.158  13.219  0.0371 -0.1301 -0.0831
  511TIP3    H122948   4.248   0.229  13.283 -0.9970  0.6528 -0.9920
  511TIP3    H222949   4.289   0.199  13.140  0.7840 -0.9477 -0.1625
  512TIP3   OH222950   4.433   5.561   0.087  0.0021  0.1521  0.2321
  512TIP3    H122951   4.525   5.557   0.060  0.0515 -3.2268  0.7127
  512TIP3    H222952   4.433   5.614   0.166  1.8158 -1.2402  1.1898
  513TIP3   OH222953   4.965   3.012  16.759 -0.1691 -0.0080  0.2672
  513TIP3    H122954   5.046   2.966  16.734 -0.1718 -0.5348  1.2131
  513TIP3    H222955   4.993   3.102  16.777  0.1318 -0.0762  0.1500
  514TIP3   OH222956   0.946   1.633  15.536 -0.3531  0.0675  0.2456
  514TIP3    H122957   0.862   1.624  15.581  0.5961 -1.1933  1.8132
  514TIP3    H222958   0.998   1.689  15.593  1.2327 -2.4281  1.3381
  515TIP3   OH222959   6.766   2.089  14.013 -0.0882  0.6541  1.2591
  515TIP3    H122960   6.687   2.115  13.966 -0.1656  4.1017  3.1191
  515TIP3    H222961   6.828   2.064  13.945 -2.0066  0.1063 -0.3323
  516TIP3   OH222962   1.107   1.972   3.924 -0.0554 -0.5849  0.8322
  516TIP3    H122963   1.083   1.897   3.870  0.7239  0.0890 -0.4774
  516TIP3    H222964   1.138   2.038   3.861 -0.1474  0.6047  2.0100
  517TIP3   OH222965   3.545   3.723  13.113  0.5661 -0.1264  0.4868
  517TIP3    H122966   3.524   3.760  13.199 -0.0445 -0.0037  0.2901
  517TIP3    H222967   3.546   3.799  13.054 -1.7404 -0.5251 -0.1193
  518TIP3   OH222968   4.256   4.652  12.764 -0.2377  1.1892  0.8186
  518TIP3    H122969   4.211   4.723  12.810 -1.6436  1.2269 -0.5782
  518TIP3    H222970   4.192   4.582  12.758  0.9083  0.0506  1.5454
  519TIP3   OH222971   0.921   4.854   3.536 -0.0457 -0.6673 -0.0718
  519TIP3    H122972   0.915   4.884   3.627 -1.1787 -0.2307 -0.2902
  519TIP3    H222973   1.005   4.889   3.505  0.6637 -1.3654  0.9940
  520TIP3   OH222974   0.253   4.463  11.735  0.4645  0.6440 -0.0088
  520TIP3    H122975   0.167   4.429  11.713  1.3143 -1.3201 -0.3730
  520TIP3    H222976   0.294   4.395  11.788  1.9794  1.3300 -0.2551
  521TIP3   OH222977   4.165   1.160   5.928  0.2886  0.4710 -0.3212
  521TIP3    H122978   4.207   1.222   5.869 -2.2150  1.1088 -1.4995
  521TIP3    H222979   4.114   1.214   5.989  0.2968 -0.3264  0.4091
  522TIP3   OH222980   4.840   2.500  13.571  0.5865 -0.5191 -0.2454
  522TIP3    H122981   4.757   2.502  13.524 -0.7558  0.3664  2.0619
  522TIP3    H222982   4.832   2.426  13.631  0.7434  0.5569  1.1541
  523TIP3   OH222983   2.935   6.618   5.691  0.5903  0.3768 -0.2341
  523TIP3    H122984   2.905   6.699   5.731 -1.1287 -0.2421 -0.2407
  523TIP3    H222985   2.868   6.597   5.626  0.0596 -2.0162  1.0390
  524TIP3   OH222986   6.342   3.210   4.095  0.1102 -0.4384  0.2769
  524TIP3    H122987   6.326   3.186   4.003  3.1345  0.7958 -0.6236
  524TIP3    H222988   6.334   3.305   4.097  0.1149 -0.4534  1.3063
  525TIP3   OH222989   2.540   4.532  16.142 -0.6085  0.4731  0.0567
  525TIP3    H122990   2.579   4.564  16.060 -1.8531  1.9591  0.0313
  525TIP3    H222991   2.452   4.571  16.144 -0.6181  0.4050  2.0741
  526TIP3   OH222992   1.826   5.682  11.190  0.0008  0.1232  0.4120
  526TIP3    H122993   1.736   5.672  11.158  0.1770 -0.5699  0.1314
  526TIP3    H222994   1.826   5.767  11.235 -0.8481  0.0241  0.6040
  527TIP3   OH222995   6.554   3.958  14.953  0.4030 -0.5374 -0.3779
  527TIP3    H122996   6.636   3.985  14.996 -0.1407  0.0692  0.2796
  527TIP3    H222997   6.487   4.016  14.989 -0.2881 -0.8892 -1.0801
  528TIP3   OH222998   6.579   1.802  14.857  0.4518 -0.1668 -0.0929
  528TIP3    H122999   6.520   1.749  14.912  1.4593  1.6379  2.8462
  528TIP3    H223000   6.544   1.793  14.769 -1.6269 -2.6678  0.9181
  529TIP3   OH223001   5.088   2.014  13.050 -0.1788  0.2318  0.5353
  529TIP3    H123002   5.168   1.973  13.017 -0.2495  0.2497  0.3425
  529TIP3    H223003   5.109   2.107  13.057  0.1156  0.1063  1.3652
  530TIP3   OH223004   0.587   3.279  13.102  0.3203 -0.1615  0.0086
  530TIP3    H123005   0.654   3.272  13.034 -0.7263 -2.9702 -0.8287
  530TIP3    H223006   0.636   3.293  13.183  1.8522 -1.0353 -0.7446
  531TIP3   OH223007   0.247   2.310  16.292  0.1965 -0.0528  0.5486
  531TIP3    H123008   0.306   2.266  16.231  1.9707 -0.7544  2.7098
  531TIP3    H223009   0.174   2.250  16.303 -0.7420  0.6260 -1.8024
  532TIP3   OH223010   6.299   3.238  12.520  0.5285  0.2792 -0.6791
  532TIP3    H123011   6.218   3.195  12.546  1.4677  0.1696  2.2633
  532TIP3    H223012   6.346   3.172  12.469  0.9316 -1.4106  1.8237
  533TIP3   OH223013   4.902   6.560  16.778 -0.5091  0.4667  0.3011
  533TIP3    H123014   4.847   6.615  16.834  0.1374 -0.5346  1.9675
  533TIP3    H223015   4.858   6.475  16.776  0.1043  0.1465  0.2921
  534TIP3   OH223016   6.608   5.876  16.413 -0.6208  0.2540 -0.1346
  534TIP3    H123017   6.623   5.803  16.353 -2.9479 -0.8398  0.5552
  534TIP3    H223018   6.569   5.836  16.491 -0.7959  2.0785  0.7441
  535TIP3   OH223019   3.320   2.793   1.507 -0.1224  0.2782  0.6155
  535TIP3    H123020   3.327   2.823   1.416 -0.2569 -0.1348  0.4691
  535TIP3    H223021   3.339   2.871   1.559  1.7040  0.1012  0.2345
  536TIP3   OH223022   6.075   1.849   6.916  0.6910  0.7601  0.3204
  536TIP3    H123023   6.153   1.905   6.910  0.5694  0.9490  0.4878
  536TIP3    H223024   6.080   1.793   6.839  1.0836  0.6563  0.4180
  537TIP3   OH223025   2.201   2.278   1.321  0.1913 -0.4571 -0.4337
  537TIP3    H123026   2.125   2.326   1.355  0.0827 -1.2681  0.5122
  537TIP3    H223027   2.188   2.276   1.226 -0.1642  0.7646 -0.4137
  538TIP3   OH223028   5.170   1.326   4.736 -0.1611  0.0850  0.0361
  538TIP3    H123029   5.180   1.308   4.829  0.5757 -1.2251 -0.2770
  538TIP3    H223030   5.133   1.245   4.700  0.7769  0.1111 -1.0060
  539TIP3   OH223031   1.806   5.827  16.868 -0.1327 -0.0325  0.0018
  539TIP3    H123032   1.868   5.890  16.831  0.0868 -0.8763 -1.1060
  539TIP3    H223033   1.745   5.880  16.919 -0.3696  1.1532 -1.4946
  540TIP3   OH223034   1.840   3.830   3.675 -0.5311  0.2383 -0.4042
  540TIP3    H123035   1.897   3.888   3.624 -0.5275  1.5908  1.1060
  540TIP3    H223036   1.873   3.837   3.764 -1.2283 -1.2597 -0.0186
  541TIP3   OH223037   0.567   3.025  11.624  0.5579 -0.2314 -0.2525
  541TIP3    H123038   0.584   3.106  11.575 -0.9577  0.0039 -0.4183
  541TIP3    H223039   0.472   3.021  11.631  0.6768 -1.3556  0.8647
  542TIP3   OH223040   6.750   3.202  13.441  0.7046 -0.3340  0.1054
  542TIP3    H123041   6.845   3.198  13.456  0.7512  0.1714 -0.0394
  542TIP3    H223042   6.739   3.271  13.375  0.1357  0.5064  1.0583
  543TIP3   OH223043   5.384   3.488   4.464  0.2743  0.3078  0.7733
  543TIP3    H123044   5.386   3.470   4.371  0.1879 -0.4361  0.9133
  543TIP3    H223045   5.472   3.465   4.495  0.3013  0.5465  0.8789
  544TIP3   OH223046   2.230   0.149  11.632  0.3709 -0.4698 -0.0881
  544TIP3    H123047   2.305   0.186  11.584  0.3087 -1.3188 -0.8472
  544TIP3    H223048   2.207   0.070  11.583 -1.4564  0.1506 -0.2662
  545TIP3   OH223049   0.942   6.752  15.773 -0.3380 -0.0537  0.1721
  545TIP3    H123050   0.998   6.726  15.699 -1.2151  2.2499 -1.3562
  545TIP3    H223051   0.858   6.711  15.755 -0.3956  0.0588  0.1867
  546TIP3   OH223052   5.263   6.292   4.937  0.0775 -0.1569  0.4633
  546TIP3    H123053   5.326   6.236   4.893 -0.5772 -1.2901  0.9356
  546TIP3    H223054   5.220   6.235   5.001 -2.9167  0.0179 -1.3015
  547TIP3   OH223055   5.625   2.434  12.360 -0.1695  0.2424 -0.2630
  547TIP3    H123056   5.629   2.339  12.361  1.6057  0.2969 -1.3066
  547TIP3    H223057   5.661   2.459  12.275 -0.1859  1.8630  0.1925
  548TIP3   OH223058   3.588   3.088  15.626 -0.6083  0.1399 -0.2618
  548TIP3    H123059   3.637   3.015  15.588  2.1636  1.8879 -0.2258
  548TIP3    H223060   3.603   3.160  15.565 -1.0998  1.3828  1.0752
  549TIP3   OH223061   3.381   0.976   2.752 -0.4790  0.1281  0.6928
  549TIP3    H123062   3.295   0.940   2.775  0.0101 -0.4076  1.7469
  549TIP3    H223063   3.440   0.901   2.757 -0.4674 -0.2236 -3.2749
  550TIP3   OH223064   3.286   3.451   3.613  0.3041 -0.0792 -0.2369
  550TIP3    H123065   3.237   3.398   3.677 -3.5777 -0.5700 -3.4206
  550TIP3    H223066   3.328   3.386   3.557  0.7500  0.3008 -0.3382
  551TIP3   OH223067   0.241   6.553   4.798  0.3427  0.2055  0.1095
  551TIP3    H123068   0.281   6.640   4.803 -0.1800  0.5666 -1.6554
  551TIP3    H223069   0.310   6.494   4.828  0.6002  1.2426  1.6220
  552TIP3   OH223070   5.987   5.461   0.134 -0.1040 -0.0081 -0.3148
  552TIP3    H123071   6.029   5.547   0.125 -2.2861  1.7991  4.6851
  552TIP3    H223072   6.040   5.415   0.198 -2.3775  0.0839  1.7000
  553TIP3   OH223073   4.368   5.936   1.852 -0.3053  0.0078  0.1788
  553TIP3    H123074   4.364   6.027   1.823 -0.8775  0.2734  1.0857
  553TIP3    H223075   4.309   5.931   1.927 -0.6001 -1.2086 -0.1093
  554TIP3   OH223076   1.347   1.124   4.121 -0.1350  0.1134  0.3480
  554TIP3    H123077   1.411   1.097   4.056  1.1217  0.7198  1.3017
  554TIP3    H223078   1.343   1.219   4.112  1.2124  0.3835  2.1530
  555TIP3   OH223079   1.530   4.036   1.440  0.0343  0.1776 -0.0686
  555TIP3    H123080   1.595   4.068   1.502  0.5892 -0.0394 -0.5354
  555TIP3    H223081   1.515   3.944   1.466 -1.3393  0.7012  1.0861
  556TIP3   OH223082   3.152   6.515   5.542 -0.0301 -0.4595  0.9140
  556TIP3    H123083   3.189   6.589   5.495 -0.4331 -1.0672 -0.3713
  556TIP3    H223084   3.079   6.551   5.592  1.7004  0.5769  2.7453
  557TIP3   OH223085   1.726   4.653  15.325 -0.0234  0.0550  0.2429
  557TIP3    H123086   1.642   4.647  15.280  0.0802  2.9649 -0.4055
  557TIP3    H223087   1.791   4.656  15.255  0.2996  2.1671  0.6050
  558TIP3   OH223088   2.955   2.570  13.163  1.2077  0.7704 -0.3102
  558TIP3    H123089   2.958   2.609  13.251  1.0191  0.1063 -0.0088
  558TIP3    H223090   3.033   2.514  13.160  1.0684  0.5874 -0.4682
  559TIP3   OH223091   1.316   5.092   4.762  0.2453  0.3802  0.0701
  559TIP3    H123092   1.381   5.124   4.700 -0.2611  0.2308 -0.5450
  559TIP3    H223093   1.244   5.156   4.757  1.0113  1.4493  1.9403
  560TIP3   OH223094   5.406   2.153  11.719 -0.3037 -0.3673 -0.4019
  560TIP3    H123095   5.365   2.229  11.677  0.0828  0.0900  0.0379
  560TIP3    H223096   5.438   2.187  11.803  1.8398 -0.4749 -1.1545
  561TIP3   OH223097   4.106   1.625  11.120 -0.4478  0.2188 -0.3493
  561TIP3    H123098   4.044   1.552  11.126 -0.2758  0.0573 -0.5516
  561TIP3    H223099   4.175   1.594  11.062 -0.8635  0.8983 -1.2147
  562TIP3   OH223100   4.633   3.887   0.231  0.4507  0.1942  0.0799
  562TIP3    H123101   4.628   3.861   0.324  0.9224  1.1298  0.3693
  562TIP3    H223102   4.559   3.842   0.190 -1.2909  1.8049  1.3887
  563TIP3   OH223103   0.738   1.105  11.235 -0.4042 -0.4311  0.3626
  563TIP3    H123104   0.779   1.070  11.157 -0.2528  0.9216 -0.1714
  563TIP3    H223105   0.645   1.111  11.212 -0.0252  2.2594 -0.5962
  564TIP3   OH223106   5.402   3.858  11.762  0.1332 -0.0539 -0.0416
  564TIP3    H123107   5.489   3.837  11.729 -0.2026  0.1962 -1.1086
  564TIP3    H223108   5.369   3.775  11.796  0.5032 -0.3057 -0.2933
  565TIP3   OH223109   5.108   4.350   2.831  0.0441 -0.1878 -0.4614
  565TIP3    H123110   5.143   4.423   2.883  2.3224 -0.5255 -1.4717
  565TIP3    H223111   5.020   4.335   2.867  0.0461  2.1875  0.6285
  566TIP3   OH223112   3.885   3.424  10.753 -0.1895 -0.1545  0.1083
  566TIP3    H123113   3.932   3.499  10.717  0.2390 -0.4596  0.0303
  566TIP3    H223114   3.907   3.425  10.846 -1.4061  0.7146  0.4008
  567TIP3   OH223115   4.100   5.955   3.262  0.4873  0.1244 -0.4873
  567TIP3    H123116   4.169   5.910   3.213  0.8714 -0.3012  0.4506
  567TIP3    H223117   4.136   6.042   3.279  1.5243 -0.6686  1.5371
  568TIP3   OH223118   3.492   0.436  14.495  0.0657 -0.3496  0.0440
  568TIP3    H123119   3.487   0.367  14.562  0.0991  0.7990  1.2601
  568TIP3    H223120   3.442   0.509  14.532  1.4215  0.8688 -0.4778
  569TIP3   OH223121   0.071   2.535  16.276 -0.4324  0.1218  0.2732
  569TIP3    H123122   0.019   2.535  16.356  1.5063  2.3725  1.6052
  569TIP3    H223123   0.135   2.465  16.289 -0.3547  0.2387  0.5211
  570TIP3   OH223124   0.480   4.479  12.119  0.8039 -0.4037 -0.4209
  570TIP3    H123125   0.489   4.402  12.062  1.1497 -0.5363 -0.1891
  570TIP3    H223126   0.551   4.469  12.182 -0.3302 -0.8970  0.7925
  571TIP3   OH223127   2.743   5.499  16.569  0.1023  0.1981  0.1351
  571TIP3    H123128   2.735   5.521  16.662 -1.4638 -1.0930  0.3390
  571TIP3    H223129   2.750   5.404  16.567 -0.9190  0.1213 -1.1080
  572TIP3   OH223130   2.405   3.623   3.720  0.9771 -0.1887  0.3362
  572TIP3    H123131   2.313   3.612   3.740  1.1330 -0.0969  1.1236
  572TIP3    H223132   2.409   3.625   3.625  0.5364 -3.2273  0.2272
  573TIP3   OH223133   5.926   6.544   2.899  0.0885  0.0325  0.0097
  573TIP3    H123134   5.924   6.617   2.837  0.7855 -0.7053 -0.9084
  573TIP3    H223135   6.003   6.561   2.953 -1.2081  1.3270  1.5228
  574TIP3   OH223136   2.314   4.590   5.725 -0.1265 -0.5864  0.0295
  574TIP3    H123137   2.393   4.625   5.767 -0.3325 -1.2110  0.9439
  574TIP3    H223138   2.325   4.495   5.729 -1.2408 -0.6985  0.7917
  575TIP3   OH223139   6.370   0.471   1.191  0.4349  0.0068 -0.5535
  575TIP3    H123140   6.335   0.383   1.179  0.8192 -0.0503 -1.2884
  575TIP3    H223141   6.363   0.512   1.105 -1.2370  1.2443  0.1517
  576TIP3   OH223142   5.108   3.913  11.820  0.0720 -0.8323  0.0489
  576TIP3    H123143   5.134   3.937  11.909 -1.6981 -1.1470  0.6866
  576TIP3    H223144   5.119   3.818  11.817  0.9897 -0.7131 -0.3649
  577TIP3   OH223145   0.454   4.498  15.973  0.3111  0.5342 -0.6116
  577TIP3    H123146   0.405   4.426  15.934  0.2907 -1.0914  2.2680
  577TIP3    H223147   0.390   4.567  15.986 -0.3379 -0.0534 -0.6608
  578TIP3   OH223148   1.486   3.972   4.144 -0.5201 -0.4962  0.7566
  578TIP3    H123149   1.402   3.970   4.190 -1.5215 -2.5005 -1.0942
  578TIP3    H223150   1.479   3.903   4.078  1.2867  1.5998 -1.7192
  579TIP3   OH223151   5.967   4.280   2.625 -0.1450  0.2671  0.4124
  579TIP3    H123152   5.942   4.257   2.714  2.7396  0.0760  1.1983
  579TIP3    H223153   5.982   4.195   2.582 -0.9931  0.3756 -0.1168
  580TIP3   OH223154   4.385   5.216  16.654  0.4640  0.6278 -0.3466
  580TIP3    H123155   4.434   5.168  16.588  3.3227  2.6493  0.2467
  580TIP3    H223156   4.314   5.258  16.605 -1.1648 -2.8377 -1.1036
  581TIP3   OH223157   3.928   5.164   4.778  0.6898  0.3781 -0.3383
  581TIP3    H123158   3.950   5.235   4.717 -0.7701  1.4474  0.3607
  581TIP3    H223159   3.834   5.172   4.790  0.7185 -0.9006  0.7461
  582TIP3   OH223160   3.897   5.231   5.875  0.3544 -0.8075 -0.5608
  582TIP3    H123161   3.906   5.140   5.902  0.0381 -0.7489 -0.2604
  582TIP3    H223162   3.986   5.266   5.880  0.0871 -0.3933  1.8436
  583TIP3   OH223163   3.329   2.267  16.001 -0.2600 -0.4123  0.2776
  583TIP3    H123164   3.371   2.270  15.915 -0.2983  2.8047  0.3097
  583TIP3    H223165   3.238   2.287  15.983 -0.8846 -2.6320  0.7855
  584TIP3   OH223166   5.567   3.355   2.264  0.2966  0.2406 -0.3721
  584TIP3    H123167   5.641   3.316   2.310  0.9793  0.0551 -1.5940
  584TIP3    H223168   5.605   3.394   2.185 -0.6682  1.6400 -0.1708
  585TIP3   OH223169   2.665   2.517   1.911  0.1662 -0.7195 -0.1099
  585TIP3    H123170   2.586   2.569   1.896  0.7482  0.4681  0.8633
  585TIP3    H223171   2.718   2.531   1.832  0.0944 -0.2444 -0.0761
  586TIP3   OH223172   1.193   6.143  15.968 -0.0872 -0.5881 -0.0434
  586TIP3    H123173   1.216   6.059  16.008  0.7510 -0.2317  0.2161
  586TIP3    H223174   1.187   6.204  16.042  2.1409  0.2324 -0.5054
  587TIP3   OH223175   4.188   3.656   3.906 -0.7122 -0.0323  0.2294
  587TIP3    H123176   4.193   3.729   3.968 -2.1129  0.8897 -0.7322
  587TIP3    H223177   4.108   3.609   3.930 -0.1638 -0.8887  0.4229
  588TIP3   OH223178   2.535   6.455   6.378 -0.2402 -0.0749  0.0930
  588TIP3    H123179   2.568   6.461   6.467 -0.0193  0.6050 -0.0286
  588TIP3    H223180   2.494   6.369   6.372  3.8810 -2.0808 -0.5900
  589TIP3   OH223181   2.961   3.074  10.399 -0.3084  0.3680 -0.2079
  589TIP3    H123182   2.903   3.146  10.423 -1.1709 -0.0941 -0.8664
  589TIP3    H223183   2.960   3.073  10.304  2.2511  1.5060 -0.2963
  590TIP3   OH223184   4.601   3.097  11.382  0.1171 -0.2103 -0.1903
  590TIP3    H123185   4.626   3.179  11.339 -2.0680 -0.2388 -1.6192
  590TIP3    H223186   4.609   3.031  11.314  1.3731 -1.1215  0.8227
  591TIP3   OH223187   4.234   6.070   2.632  0.1672 -0.3659 -0.1862
  591TIP3    H123188   4.244   6.112   2.717  1.1157  0.8528 -0.8803
  591TIP3    H223189   4.140   6.070   2.616 -0.0109 -0.5544  0.8393
  592TIP3   OH223190   3.963   6.195  12.338  0.0871  0.7845 -0.0617
  592TIP3    H123191   3.913   6.223  12.415  0.0924 -2.4565  1.1967
  592TIP3    H223192   3.910   6.224  12.263 -1.2358  1.6487  1.1887
  593TIP3   OH223193   3.924   6.659  14.566 -0.1363 -0.0614  0.3817
  593TIP3    H123194   3.955   6.715  14.637 -1.1378  2.0799 -0.8308
  593TIP3    H223195   3.831   6.680  14.558  0.8860  3.4956 -4.7820
  594TIP3   OH223196   5.210   4.694   0.320 -0.2387  0.2577 -0.5347
  594TIP3    H123197   5.275   4.624   0.330  0.3496  0.7034 -1.1930
  594TIP3    H223198   5.126   4.649   0.326  0.1239 -0.2519  0.8260
  595TIP3   OH223199   3.910   4.510   3.914  0.5451 -0.1187 -0.0862
  595TIP3    H123200   3.816   4.508   3.931  1.0278  1.4061  2.8821
  595TIP3    H223201   3.923   4.588   3.861  0.4619  1.1225  1.6925
  596TIP3   OH223202   4.973   5.676  13.554  0.1636 -0.5031  0.0252
  596TIP3    H123203   4.938   5.747  13.499 -1.6060 -0.9886  0.4820
  596TIP3    H223204   4.946   5.596  13.510 -1.5396 -0.9031  1.7331
  597TIP3   OH223205   6.175   2.861   1.325  0.0718  0.1655 -0.0171
  597TIP3    H123206   6.151   2.800   1.255 -0.4581 -0.2237  0.5027
  597TIP3    H223207   6.188   2.945   1.280  0.1969 -0.1847 -0.6449
  598TIP3   OH223208   1.561   3.169  11.283  0.2341 -0.6704 -0.5127
  598TIP3    H123209   1.654   3.144  11.275  0.4911  0.4195 -1.0386
  598TIP3    H223210   1.563   3.264  11.292 -0.8330 -0.6603 -0.3516
  599TIP3   OH223211   4.421   4.207   5.725 -0.2542 -0.3139 -0.8231
  599TIP3    H123212   4.344   4.150   5.712  0.7103 -1.8364  0.0762
  599TIP3    H223213   4.493   4.147   5.742  0.4491  1.2588  1.9531
  600TIP3   OH223214   2.987   5.039  12.596  0.2828 -0.2716 -0.1942
  600TIP3    H123215   2.920   5.047  12.528  1.5319  0.5049 -1.3680
  600TIP3    H223216   2.948   4.982  12.662 -1.6608  0.4473 -0.6907
  601TIP3   OH223217   3.062   4.304   2.689  0.1825 -0.2548 -0.5429
  601TIP3    H123218   3.007   4.290   2.767  2.0160  2.1183  1.2624
  601TIP3    H223219   3.086   4.397   2.694  2.3396 -0.6672 -2.6478
  602TIP3   OH223220   6.252   3.906   0.722 -0.0484  0.5691  0.2487
  602TIP3    H123221   6.239   3.933   0.813  3.1490  0.2121  0.8795
  602TIP3    H223222   6.216   3.817   0.718  0.5949  0.2392  1.4195
  603TIP3   OH223223   5.316   5.842  12.377 -0.1039 -0.3410 -0.2724
  603TIP3    H123224   5.235   5.891  12.364 -2.2056 -3.4372  0.5730
  603TIP3    H223225   5.312   5.810  12.467  0.9338 -2.4656 -0.9296
  604TIP3   OH223226   1.557   2.548  15.047 -0.1405 -0.2937 -0.2769
  604TIP3    H123227   1.579   2.619  15.108 -1.5266  0.2320 -0.3731
  604TIP3    H223228   1.473   2.515  15.079 -1.9064  1.3293 -3.0512
  605TIP3   OH223229   0.339   2.586   0.600  0.2516 -0.2535  0.4818
  605TIP3    H123230   0.260   2.591   0.654  0.2386  0.3733  0.4115
  605TIP3    H223231   0.337   2.665   0.547  0.8515 -0.3074  0.3690
  606TIP3   OH223232   2.012   2.883   5.412  0.3763 -0.4332  0.2693
  606TIP3    H123233   2.080   2.850   5.471  0.7817 -2.2193 -1.1631
  606TIP3    H223234   2.036   2.849   5.326  1.1255  4.1036 -1.4539
  607TIP3   OH223235   5.708   6.290   1.555 -0.2715  0.3055 -0.2770
  607TIP3    H123236   5.726   6.348   1.629 -0.6631  1.3145 -0.9594
  607TIP3    H223237   5.717   6.202   1.591 -1.0787  0.7790  1.1331
  608TIP3   OH223238   1.221   1.691  15.065 -0.2829 -0.3021  0.6615
  608TIP3    H123239   1.286   1.648  15.120  0.6048 -1.3374 -1.1671
  608TIP3    H223240   1.219   1.781  15.097  2.3697 -0.1342  0.5086
  609TIP3   OH223241   0.773   4.063  11.275 -0.0766  0.1841 -0.6535
  609TIP3    H123242   0.733   4.097  11.195 -0.6017  1.9174  0.3243
  609TIP3    H223243   0.804   4.141  11.322  0.3654 -0.8214  0.7570
  610TIP3   OH223244   0.918   1.488   0.953 -0.1348  0.1963 -0.0060
  610TIP3    H123245   0.995   1.541   0.932  0.3710  0.0407  1.3597
  610TIP3    H223246   0.936   1.403   0.913  0.3146  0.2276  0.1175
  611TIP3   OH223247   6.137   3.641   3.663 -0.0073 -0.4007 -0.2425
  611TIP3    H123248   6.081   3.691   3.722  0.6084 -0.4881  0.4277
  611TIP3    H223249   6.210   3.699   3.644  0.4325 -0.8305  0.0986
  612TIP3   OH223250   5.534   5.329  14.174 -0.7849 -0.4366  0.0128
  612TIP3    H123251   5.533   5.424  14.159 -0.3593  0.1312  3.1276
  612TIP3    H223252   5.622   5.302  14.148 -0.7754  0.0737 -0.5117
  613TIP3   OH223253   6.550   4.098   4.479  0.1239  0.2335  0.3120
  613TIP3    H123254   6.516   4.011   4.459 -1.2406  0.9346 -0.5048
  613TIP3    H223255   6.500   4.127   4.556  0.6794  0.2363  0.6747
  614TIP3   OH223256   5.012   3.175   6.567 -0.8123 -0.2723 -0.0342
  614TIP3    H123257   4.936   3.231   6.550 -0.6123  0.0509  0.1244
  614TIP3    H223258   5.055   3.217   6.641 -1.0036 -0.9815  0.4849
  615TIP3   OH223259   3.232   2.709   4.873 -0.3475 -0.6949 -0.1228
  615TIP3    H123260   3.190   2.635   4.918 -1.7663 -0.0567 -0.3557
  615TIP3    H223261   3.162   2.774   4.864  1.4965  1.8229  2.5345
  616TIP3   OH223262   0.009   5.374  12.841 -0.0453 -0.4466 -0.6472
  616TIP3    H123263   0.000   5.314  12.767 -1.4702 -0.6961 -0.2895
  616TIP3    H223264  -0.081   5.393  12.868  0.3988  1.3020 -0.3082
  617TIP3   OH223265   3.482   5.765   2.978 -0.4737  0.1779 -0.2493
  617TIP3    H123266   3.572   5.735   2.969 -0.6494 -0.5944  0.5142
  617TIP3    H223267   3.440   5.739   2.896 -0.5068 -1.2648  0.2130
  618TIP3   OH223268   4.037   2.196  13.200  0.1550 -0.0535  0.1565
  618TIP3    H123269   3.957   2.222  13.247  1.8189  0.1801  2.9754
  618TIP3    H223270   4.108   2.233  13.251  2.2744 -3.5172 -0.0990
  619TIP3   OH223271   5.111   3.950   6.048 -0.2559 -0.0114 -0.4943
  619TIP3    H123272   5.088   4.028   6.100  0.7978  0.1703 -0.2981
  619TIP3    H223273   5.066   3.963   5.965 -2.7584 -0.7484  0.6779
  620TIP3   OH223274   6.586   5.289   4.496 -0.2667  0.0451 -0.3884
  620TIP3    H123275   6.513   5.271   4.437  0.0770 -0.9836 -0.5046
  620TIP3    H223276   6.550   5.270   4.583 -0.1506 -0.4354 -0.4435
  621TIP3   OH223277   2.082   2.649  13.762 -0.8849  0.1236 -1.0335
  621TIP3    H123278   2.165   2.608  13.738 -0.7893 -0.2833 -0.0506
  621TIP3    H223279   2.106   2.739  13.786 -1.0434  0.6711 -2.8262
  622TIP3   OH223280   6.121   5.690  14.685  0.0293 -0.1027 -0.0945
  622TIP3    H123281   6.065   5.723  14.615 -0.0636  1.9083  0.8722
  622TIP3    H223282   6.115   5.595  14.678 -1.8224  0.0701 -1.3416
  623TIP3   OH223283   5.489   2.917  16.085  0.2157 -0.2319  0.0379
  623TIP3    H123284   5.537   3.000  16.083  1.0231 -0.6427  1.4226
  623TIP3    H223285   5.397   2.942  16.091  0.3015  0.5717 -1.8428
  624TIP3   OH223286   2.818   1.963  11.488  0.3936  0.0763  0.4016
  624TIP3    H123287   2.829   2.040  11.433  2.6722 -1.6133 -1.6499
  624TIP3    H223288   2.783   1.896  11.428  0.3496 -1.0367  1.6399
  625TIP3   OH223289   6.539   0.809   6.193 -0.0578 -0.1155  0.5983
  625TIP3    H123290   6.576   0.781   6.276  2.8052 -1.3570 -1.0184
  625TIP3    H223291   6.566   0.900   6.182 -0.9096  0.2255  1.2440
  626TIP3   OH223292   0.892   2.865  15.946  0.1238  0.4952 -0.5860
  626TIP3    H123293   0.878   2.859  16.040  1.6077  2.7135 -0.1641
  626TIP3    H223294   0.943   2.787  15.924 -0.7648 -0.3557  0.3186
  627TIP3   OH223295   3.815   5.443   3.250  0.4205  0.2816  0.1306
  627TIP3    H123296   3.757   5.380   3.293  1.6513  0.2246  1.7580
  627TIP3    H223297   3.879   5.389   3.203 -1.0501  0.3421 -2.0074
  628TIP3   OH223298   4.826   1.249   1.562  0.1083  0.5287  0.4922
  628TIP3    H123299   4.836   1.199   1.481  0.6172  1.3626  0.0367
  628TIP3    H223300   4.783   1.188   1.622 -1.9544  0.5088 -0.9588
  629TIP3   OH223301   2.992   2.046   0.448  0.0986  0.4635  0.5999
  629TIP3    H123302   3.026   2.030   0.536 -0.9217  0.6193  1.0300
  629TIP3    H223303   2.961   2.137   0.451  0.1643  0.5062  0.0459
  630TIP3   OH223304   0.903   2.617  16.724 -0.5239 -0.2018 -0.4288
  630TIP3    H123305   0.839   2.556  16.686 -0.2896 -0.6912 -0.0465
  630TIP3    H223306   0.968   2.628  16.655 -0.3645 -0.6906 -0.3579
  631TIP3   OH223307   5.087   3.794  10.680  0.0178  0.1666 -0.4881
  631TIP3    H123308   5.010   3.811  10.625 -0.5653 -0.6385  0.0670
  631TIP3    H223309   5.118   3.708  10.654 -1.0452 -0.7961  1.3209
  632TIP3   OH223310   0.686   0.096   4.833  0.0785  0.2991 -0.1298
  632TIP3    H123311   0.770   0.055   4.852 -0.3869 -0.9242 -0.6984
  632TIP3    H223312   0.706   0.190   4.826  1.2125  0.1246  0.7321
  633TIP3   OH223313   4.519   0.410   0.676 -0.0362  0.0568 -0.2539
  633TIP3    H123314   4.501   0.492   0.629  0.2974  1.4112  1.8824
  633TIP3    H223315   4.438   0.392   0.723 -0.4198 -1.3696 -1.4348
  634TIP3   OH223316   5.567   4.987  10.722 -0.2002  0.0556  0.0830
  634TIP3    H123317   5.512   5.035  10.784 -0.2387 -0.3301  0.3488
  634TIP3    H223318   5.592   5.052  10.657  0.1173  0.5361  0.6882
  635TIP3   OH223319   5.218   2.796   5.780  0.3414 -0.0973 -0.2744
  635TIP3    H123320   5.183   2.739   5.849  0.5008  0.7389  0.5107
  635TIP3    H223321   5.160   2.781   5.706  0.2132 -1.0707  0.0085
  636TIP3   OH223322   5.084   4.205  13.229 -0.4724 -0.0664 -0.5129
  636TIP3    H123323   5.107   4.295  13.253 -1.8464  0.4694 -1.1825
  636TIP3    H223324   5.163   4.172  13.186  0.0448  0.8253 -0.2725
  637TIP3   OH223325   3.545   4.063  14.797 -0.3838 -0.2719 -0.3174
  637TIP3    H123326   3.466   4.086  14.845  0.4355 -0.3330  1.0777
  637TIP3    H223327   3.617   4.100  14.849  0.5599 -1.0016 -1.0823
  638TIP3   OH223328   6.667   5.346   5.018  0.7011 -0.3909  0.0040
  638TIP3    H123329   6.752   5.346   5.061  1.5041  1.4018 -1.5004
  638TIP3    H223330   6.688   5.337   4.925 -0.7233  0.4410 -0.4071
  639TIP3   OH223331   1.009   1.257  16.417 -0.0122  0.5711 -0.4766
  639TIP3    H123332   1.093   1.265  16.371 -0.9145  0.0415 -2.2992
  639TIP3    H223333   0.980   1.168  16.397 -1.0212  0.7611  0.1180
  640TIP3   OH223334   5.680   5.849  15.518 -0.3393  0.4236 -0.6995
  640TIP3    H123335   5.774   5.849  15.532 -0.1189 -2.9680 -1.9209
  640TIP3    H223336   5.665   5.918  15.454  1.4351  0.2369 -1.3305
  641TIP3   OH223337   2.795   0.954   4.547  0.8097 -0.0754  0.2546
  641TIP3    H123338   2.785   0.880   4.607 -2.3492 -0.9325 -1.2308
  641TIP3    H223339   2.750   1.026   4.591 -0.1987 -0.3079 -0.3788
  642TIP3   OH223340   3.364   0.654  13.453 -0.1110 -0.1068  0.1516
  642TIP3    H123341   3.440   0.692  13.409 -0.6491  1.4698  0.5521
  642TIP3    H223342   3.290   0.706  13.422 -0.9444 -1.1948  0.2893
  643TIP3   OH223343   4.739   3.047  14.341  0.3911  0.5880 -0.0308
  643TIP3    H123344   4.679   2.998  14.397 -0.5538  1.8302  0.0615
  643TIP3    H223345   4.763   2.986  14.272 -1.3645  0.2252 -0.3297
  644TIP3   OH223346   6.098   2.457  16.587  0.7541 -0.5542 -0.4787
  644TIP3    H123347   6.032   2.526  16.581  1.6459  0.2670 -1.0533
  644TIP3    H223348   6.058   2.381  16.544  0.2020 -0.0470 -0.8712
  645TIP3   OH223349   1.612   4.489  14.019  0.1115  0.3704 -0.5728
  645TIP3    H123350   1.583   4.476  13.929  0.5515  0.1495 -0.6831
  645TIP3    H223351   1.660   4.409  14.042 -2.0249 -0.5845  0.6655
  646TIP3   OH223352   5.561   2.042  11.128  0.0151  1.0596 -0.4670
  646TIP3    H123353   5.519   2.056  11.043  1.1967 -0.3531 -1.2932
  646TIP3    H223354   5.519   1.963  11.162  1.6721 -0.1324 -1.1189
  647TIP3   OH223355   2.348   6.148  12.319  0.6303  0.3811 -0.1861
  647TIP3    H123356   2.254   6.157  12.305  0.6302  1.8496  0.6209
  647TIP3    H223357   2.362   6.053  12.323 -0.7991  0.1392 -0.3611
  648TIP3   OH223358   2.362   1.792   5.372  0.0910  0.2874 -0.0558
  648TIP3    H123359   2.368   1.697   5.366  1.1302  0.3152  0.5098
  648TIP3    H223360   2.417   1.825   5.301  1.7410  0.4825  1.2895
  649TIP3   OH223361   2.235   3.987   4.091  0.1465 -0.3765  0.8614
  649TIP3    H123362   2.270   4.061   4.142  0.0480  0.1842  0.1232
  649TIP3    H223363   2.300   3.918   4.103  0.3737 -0.0861  1.3497
  650TIP3   OH223364   3.821   0.661  13.444 -0.1295 -0.2693  0.6919
  650TIP3    H123365   3.878   0.728  13.405 -0.9177 -0.1286 -0.2556
  650TIP3    H223366   3.735   0.703  13.447 -0.1384 -0.3766  2.3709
  651TIP3   OH223367   3.882   2.866   1.239 -0.3874 -0.9017  0.2036
  651TIP3    H123368   3.924   2.891   1.157  1.0183  0.0305  1.1961
  651TIP3    H223369   3.823   2.795   1.215 -0.5810 -0.1039 -1.7574
  652TIP3   OH223370   0.854   1.636  12.359 -0.1151  0.5140 -0.1834
  652TIP3    H123371   0.925   1.621  12.421  0.4831  0.9717 -0.7551
  652TIP3    H223372   0.875   1.581  12.284 -0.1483  0.9497 -0.5192
  653TIP3   OH223373   2.223   1.362   2.535  0.0232  0.2234  0.4069
  653TIP3    H123374   2.152   1.360   2.599 -0.4079  0.0499 -0.0677
  653TIP3    H223375   2.302   1.345   2.586 -0.1809  1.2334  1.0695
  654TIP3   OH223376   3.200   2.562  16.901  1.1041 -0.4683 -0.2329
  654TIP3    H123377   3.199   2.477  16.856 -0.7814 -0.4384 -0.3033
  654TIP3    H223378   3.202   2.626  16.830  2.9661 -0.4460 -0.1725
  655TIP3   OH223379   5.561   4.274   0.986  0.3015 -0.6429  0.1952
  655TIP3    H123380   5.617   4.200   1.008 -0.0088 -0.7146  0.7349
  655TIP3    H223381   5.622   4.348   0.976  0.2882 -0.1967  3.0770
  656TIP3   OH223382   4.336   4.590  14.312 -0.0860 -0.4855 -0.1252
  656TIP3    H123383   4.383   4.646  14.251 -0.1149 -0.7194 -0.3584
  656TIP3    H223384   4.248   4.582  14.275 -0.2930 -0.1025  0.2763
  657TIP3   OH223385   3.569   4.344  16.414 -0.1707 -0.4221  0.6451
  657TIP3    H123386   3.598   4.301  16.334 -0.3571 -1.9206  1.3721
  657TIP3    H223387   3.574   4.438  16.393  0.8077 -0.7589 -0.7509
  658TIP3   OH223388   3.072   4.353   1.454  0.7607 -0.5998 -0.0495
  658TIP3    H123389   2.995   4.406   1.431 -0.1645 -1.7751  0.2558
  658TIP3    H223390   3.075   4.358   1.550  1.4460 -0.0492 -0.0972
  659TIP3   OH223391   6.474   0.470   2.424  0.2423  0.4326  0.1168
  659TIP3    H123392   6.453   0.561   2.405  0.2163  0.2137 -0.9259
  659TIP3    H223393   6.566   0.461   2.401  0.3338  0.2798  0.5370
  660TIP3   OH223394   0.719   0.554   6.217  0.2247 -0.1190  0.2597
  660TIP3    H123395   0.813   0.565   6.201  0.2008  0.9497  0.7921
  660TIP3    H223396   0.714   0.505   6.299  0.3200 -0.4219  0.0851
  661TIP3   OH223397   0.619   1.169   5.337 -0.0619  0.0756 -0.3779
  661TIP3    H123398   0.625   1.089   5.388 -0.3286 -1.3267 -2.5008
  661TIP3    H223399   0.709   1.193   5.318 -0.0333 -0.6306 -1.1310
  662TIP3   OH223400   6.078   4.656   4.865 -0.6358  0.3408 -0.0483
  662TIP3    H123401   6.172   4.650   4.852 -0.6595  2.5475 -1.4768
  662TIP3    H223402   6.040   4.623   4.783 -1.1749 -1.9696  1.0819
  663TIP3   OH223403   0.800   4.067  10.341 -0.3527  0.6587 -0.4840
  663TIP3    H123404   0.805   4.001  10.272 -0.4080  0.1617 -0.0150
  663TIP3    H223405   0.847   4.028  10.415 -1.3602  0.6847  0.1743
  664TIP3   OH223406   2.222   2.870  15.599  0.2016 -0.1373 -0.1463
  664TIP3    H123407   2.246   2.818  15.522 -0.9125  1.1764 -1.4177
  664TIP3    H223408   2.219   2.960  15.566 -2.2401  0.2114  0.9762
  665TIP3   OH223409   1.867   2.184   1.472  0.0621 -0.0339 -0.2404
  665TIP3    H123410   1.908   2.140   1.546 -0.7845 -0.9097 -0.2810
  665TIP3    H223411   1.875   2.122   1.400 -3.7731 -1.4526  0.4251
  666TIP3   OH223412   2.416   4.158   4.649  0.1723 -0.3792  0.0390
  666TIP3    H123413   2.332   4.193   4.621  0.0610 -0.0330  0.7740
  666TIP3    H223414   2.398   4.121   4.736  1.4688  2.6512  1.6806
  667TIP3   OH223415   4.117   5.060  13.479 -0.4665 -0.2642 -0.7866
  667TIP3    H123416   4.109   5.059  13.574 -1.4931  2.2147 -0.8009
  667TIP3    H223417   4.209   5.078  13.462 -0.3118 -0.5613 -0.2684
  668TIP3   OH223418   2.681   3.740   2.980  0.0166 -0.3776  0.1486
  668TIP3    H123419   2.599   3.727   2.933 -0.4919 -0.2867  0.9976
  668TIP3    H223420   2.746   3.690   2.931 -0.4648 -0.1330 -0.7510
  669TIP3   OH223421   4.822   4.152   3.288  0.4304 -0.0961  0.2895
  669TIP3    H123422   4.737   4.129   3.326  0.1728 -0.9382 -0.7647
  669TIP3    H223423   4.854   4.223   3.343  0.0764 -1.2689  2.0781
  670TIP3   OH223424   2.613   5.191   0.228 -0.2954  0.1149  0.1293
  670TIP3    H123425   2.679   5.177   0.296 -0.1909  2.1218  0.4903
  670TIP3    H223426   2.537   5.142   0.258  0.6561 -1.2779  0.2943
  671TIP3   OH223427   1.889   3.463  14.529  0.7413 -0.7231 -0.2721
  671TIP3    H123428   1.949   3.389  14.519  0.0209 -1.3491  0.0413
  671TIP3    H223429   1.914   3.523  14.459  2.0203 -0.7886  0.1240
  672TIP3   OH223430   2.811   5.498  12.224 -0.1685  0.2911 -0.4034
  672TIP3    H123431   2.730   5.540  12.250  0.2358  1.2538 -0.6853
  672TIP3    H223432   2.871   5.515  12.297 -0.7159 -1.8878  0.5878
  673TIP3   OH223433   0.798   2.596   5.168 -0.2156  0.1655 -0.5820
  673TIP3    H123434   0.876   2.578   5.115 -1.0821 -0.2621 -1.7529
  673TIP3    H223435   0.735   2.530   5.140 -0.4751 -0.5157  1.5149
  674TIP3   OH223436   2.406   6.572   0.160  0.1533 -0.5631  0.2449
  674TIP3    H123437   2.412   6.479   0.140  0.8647 -0.6100  0.6530
  674TIP3    H223438   2.496   6.604   0.153  0.0338 -0.0744  0.9322
  675TIP3   OH223439   5.353   6.633  15.111 -0.7185 -0.3497 -0.8985
  675TIP3    H123440   5.354   6.578  15.190 -1.5146  0.1273 -0.5475
  675TIP3    H223441   5.442   6.668  15.105 -0.7629 -0.0613  0.0282
  676TIP3   OH223442   0.951   0.297  10.785  0.2102 -0.1894 -0.7774
  676TIP3    H123443   0.897   0.357  10.837  0.2604 -0.9042  0.1023
  676TIP3    H223444   1.003   0.355  10.728 -1.1126  0.5198 -1.2808
  677TIP3   OH223445   1.343   3.205  15.059  0.3490  0.2365  0.0856
  677TIP3    H123446   1.400   3.238  14.990  0.2299 -0.2683 -0.2567
  677TIP3    H223447   1.383   3.122  15.086  1.1893  1.1177  1.6181
  678TIP3   OH223448   2.758   3.230  14.497 -0.1547  0.4786  0.0892
  678TIP3    H123449   2.696   3.303  14.496 -1.5203 -0.6435  1.3520
  678TIP3    H223450   2.827   3.258  14.556 -0.3475  0.9934  0.0810
  679TIP3   OH223451   0.987   6.611  17.023 -0.0989  0.9529 -0.7365
  679TIP3    H123452   0.949   6.656  16.948  1.1805  1.8579 -0.8690
  679TIP3    H223453   1.072   6.579  16.991 -0.1422  0.1627 -0.0721
  680TIP3   OH223454   6.373   3.558  12.936  0.8495  0.0521 -0.2385
  680TIP3    H123455   6.468   3.553  12.931  0.8887  0.5102  0.0852
  680TIP3    H223456   6.343   3.523  12.852  1.2570 -1.4028  0.2046
  681TIP3   OH223457   5.319   0.209   1.308 -0.3295 -1.2020  0.0916
  681TIP3    H123458   5.340   0.300   1.327  0.6272 -1.3337 -0.3025
  681TIP3    H223459   5.254   0.185   1.374 -0.3787 -0.3198  0.3676
  682TIP3   OH223460   3.843   5.005   2.614 -0.1896 -0.4012 -0.0938
  682TIP3    H123461   3.849   5.026   2.707 -0.4554  0.2992 -0.2283
  682TIP3    H223462   3.925   4.959   2.595 -0.0916 -0.4640  0.4609
  683TIP3   OH223463   2.468   4.226  14.451  0.5631  0.4209 -0.3941
  683TIP3    H123464   2.394   4.275  14.485 -0.4765 -1.1933 -0.2852
  683TIP3    H223465   2.429   4.151  14.406  2.1332 -1.7636  1.7117
  684TIP3   OH223466   1.421   2.701  13.567  0.0349  0.4123  0.5274
  684TIP3    H123467   1.411   2.767  13.636  2.1945  0.1697  1.1251
  684TIP3    H223468   1.487   2.738  13.509  0.2342 -0.6076  0.0952
  685TIP3   OH223469   0.463   3.509   0.942  0.5759 -0.1936  0.0917
  685TIP3    H123470   0.441   3.540   1.030  0.1973  0.2920 -0.1745
  685TIP3    H223471   0.483   3.416   0.954 -1.2584 -0.5710  0.4100
  686TIP3   OH223472   3.749   6.278  11.041  0.3966 -0.6221 -0.3201
  686TIP3    H123473   3.742   6.344  10.972 -2.0507 -0.8005 -0.2749
  686TIP3    H223474   3.659   6.263  11.069  1.2809 -1.1296  2.3892
  687TIP3   OH223475   2.209   5.599   3.155  0.0844 -0.0202 -0.1371
  687TIP3    H123476   2.205   5.611   3.060  0.1342 -0.4066 -0.1895
  687TIP3    H223477   2.289   5.645   3.181 -0.9144  1.6818 -0.0273
  688TIP3   OH223478   3.981   4.804  17.185  0.2856 -0.3031 -0.0937
  688TIP3    H123479   3.904   4.764  17.225  0.3076 -0.8667 -0.6053
  688TIP3    H223480   4.008   4.872  17.247  0.1912 -1.0188  0.7349
  689TIP3   OH223481   3.349   2.514  13.447  0.0685 -0.2845  0.3783
  689TIP3    H123482   3.339   2.484  13.537 -2.3383 -1.1933 -0.1539
  689TIP3    H223483   3.415   2.456  13.409  1.5085  0.4662  1.6782
  690TIP3   OH223484   5.750   6.331   6.480 -0.4513 -0.1606  0.1278
  690TIP3    H123485   5.722   6.242   6.460 -1.5838  0.1672  0.2114
  690TIP3    H223486   5.820   6.320   6.544  1.8920 -1.1411 -2.4995
  691TIP3   OH223487   6.193   3.801  15.296  0.0433 -0.1959  0.2994
  691TIP3    H123488   6.235   3.778  15.213  0.4567  0.7122  0.2496
  691TIP3    H223489   6.135   3.873  15.274  0.3942  0.2601  0.8583
  692TIP3   OH223490   1.986   3.549   2.916 -0.0243  0.2757 -0.5332
  692TIP3    H123491   2.034   3.467   2.920  1.1948  1.0143  0.7293
  692TIP3    H223492   1.907   3.533   2.967  0.0047 -0.2353 -0.6447
  693TIP3   OH223493   3.371   1.309  16.722 -0.1652 -0.0042  0.0120
  693TIP3    H123494   3.322   1.245  16.670 -0.1324  1.1606 -1.5022
  693TIP3    H223495   3.450   1.263  16.750 -0.5254 -0.8680 -0.3811
  694TIP3   OH223496   5.233   0.239  12.762  0.6392 -0.5659 -0.0644
  694TIP3    H123497   5.141   0.228  12.786  0.3066 -3.9580 -2.5385
  694TIP3    H223498   5.280   0.181  12.823  0.5314 -3.0169 -2.1956
  695TIP3   OH223499   2.217   4.354  11.949 -0.6961  0.1093  0.0346
  695TIP3    H123500   2.178   4.292  11.887 -0.3232 -0.3042  0.2117
  695TIP3    H223501   2.192   4.321  12.035  2.4992 -1.8769  0.2907
  696TIP3   OH223502   4.726   1.873  12.757  0.0552  0.5120  0.0809
  696TIP3    H123503   4.803   1.817  12.747  0.7608  1.9530 -3.1587
  696TIP3    H223504   4.664   1.840  12.692 -0.4610  1.9292 -0.1613
  697TIP3   OH223505   5.635   4.135  11.616  0.1543  0.4873 -0.1701
  697TIP3    H123506   5.708   4.197  11.617 -0.3903  1.1419 -0.4265
  697TIP3    H223507   5.579   4.165  11.544 -0.5531  0.2068  0.2597
  698TIP3   OH223508   3.711   4.192   3.570  0.0478 -0.1303  0.5782
  698TIP3    H123509   3.667   4.158   3.649  0.1614 -1.0913  0.2332
  698TIP3    H223510   3.720   4.116   3.513 -1.5205  0.8582 -1.0649
  699TIP3   OH223511   2.273   4.178  13.002 -0.5454 -0.4230  0.0123
  699TIP3    H123512   2.341   4.182  12.936 -0.0680 -0.9736  0.4662
  699TIP3    H223513   2.191   4.193  12.954 -0.3241 -2.0623 -0.9128
  700TIP3   OH223514   2.049   4.693   4.299  0.2446 -0.0929 -0.2100
  700TIP3    H123515   2.145   4.696   4.296  0.3344 -0.5845  1.7403
  700TIP3    H223516   2.022   4.785   4.300  0.5737  0.0898 -3.0494
  701TIP3   OH223517   6.326   5.609  12.485 -0.2845  0.6341 -0.2499
  701TIP3    H123518   6.283   5.545  12.428 -0.9212  0.9004 -0.0660
  701TIP3    H223519   6.419   5.588  12.478 -0.4372  0.0923 -0.6899
  702TIP3   OH223520   0.247   5.365   5.411 -0.4525 -0.3177  0.5800
  702TIP3    H123521   0.242   5.281   5.365 -0.7792 -0.0298  0.0864
  702TIP3    H223522   0.165   5.409   5.388 -1.4592 -0.9001  2.8501
  703TIP3   OH223523   5.318   2.608  13.008 -0.0285  0.0413  0.5651
  703TIP3    H123524   5.293   2.554  12.932 -0.0268  0.3914  0.3149
  703TIP3    H223525   5.250   2.675  13.013 -0.1416 -0.1049  1.0033
  704TIP3   OH223526   1.891   4.272  14.516  0.5475 -0.0881 -0.3971
  704TIP3    H123527   1.963   4.332  14.497 -0.7927  1.1666 -1.6090
  704TIP3    H223528   1.930   4.185  14.505  1.6594  0.5731 -1.9332
  705TIP3   OH223529   6.757   6.661   4.823 -0.5801  0.4009  0.5168
  705TIP3    H123530   6.758   6.660   4.918  1.8411  2.8680  0.5684
  705TIP3    H223531   6.826   6.600   4.797  0.4556  1.5894  0.4155
  706TIP3   OH223532   0.350   3.373   2.166 -0.3088 -0.2428 -0.1157
  706TIP3    H123533   0.441   3.399   2.181 -0.3843 -0.6083  1.0780
  706TIP3    H223534   0.356   3.288   2.122 -0.0476 -0.9662  1.2544
  707TIP3   OH223535   6.461   0.241   2.255 -0.2299 -0.1120  0.0720
  707TIP3    H123536   6.498   0.322   2.218 -1.2673  0.6796  0.7531
  707TIP3    H223537   6.495   0.238   2.344 -2.4122  1.0412  0.9772
  708TIP3   OH223538   4.547   2.013   0.491  0.1674 -0.1162  0.7429
  708TIP3    H123539   4.505   2.033   0.575  0.3417  0.5159  0.6849
  708TIP3    H223540   4.626   2.067   0.490 -0.5538  0.9579 -0.4316
  709TIP3   OH223541   0.739   4.756  14.095 -0.3198 -0.1698  0.5880
  709TIP3    H123542   0.665   4.743  14.155  0.2220 -0.0347  1.2970
  709TIP3    H223543   0.741   4.678  14.041 -1.0925 -0.0967  0.4526
  710TIP3   OH223544   2.568   6.615  12.240  0.0478  0.5714 -0.2891
  710TIP3    H123545   2.626   6.636  12.313  0.7538 -2.2883  0.0137
  710TIP3    H223546   2.626   6.577  12.173 -1.1179 -0.1823 -0.8907
  711TIP3   OH223547   1.289   5.886  16.412  0.3684 -0.0564  0.3959
  711TIP3    H123548   1.247   5.883  16.498 -2.1229 -0.1666 -0.7948
  711TIP3    H223549   1.341   5.806  16.408  0.0137 -0.3564  1.5465
  712TIP3   OH223550   4.135   4.839   5.123  0.0375  0.3913 -0.1198
  712TIP3    H123551   4.165   4.930   5.117  2.2861 -0.3621 -0.5040
  712TIP3    H223552   4.106   4.817   5.035  0.6442  0.3251 -0.2978
  713TIP3   OH223553   2.787   4.472  14.381 -0.4531  0.3210  0.1520
  713TIP3    H123554   2.789   4.533  14.307  0.5857 -0.4759 -0.4816
  713TIP3    H223555   2.697   4.478  14.414 -0.9635  0.5862 -1.2487
  714TIP3   OH223556   2.906   5.975  13.214 -0.3646  0.2346 -1.0153
  714TIP3    H123557   2.897   5.923  13.134 -0.6612  0.3748 -1.0729
  714TIP3    H223558   3.000   5.972  13.234 -0.6749 -2.2464  0.2665
  715TIP3   OH223559   2.974   1.050  14.549 -0.1361  0.2942  0.3782
  715TIP3    H123560   2.885   1.017  14.565 -0.1963  0.2991  0.0695
  715TIP3    H223561   3.032   0.982  14.581 -0.2581 -0.0392 -0.1041
  716TIP3   OH223562   3.317   5.757  17.101  0.1963  0.8291  0.4667
  716TIP3    H123563   3.253   5.807  17.050  0.4849  0.0280 -0.7233
  716TIP3    H223564   3.269   5.681  17.133  0.0573  1.2474  1.2552
  717TIP3   OH223565   4.558   5.906   5.240 -0.5632 -0.9701 -0.2168
  717TIP3    H123566   4.610   5.874   5.313 -0.9295 -0.6186  0.2027
  717TIP3    H223567   4.468   5.903   5.272 -0.6219  0.2760 -0.2450
  718TIP3   OH223568   1.152   5.963   0.221 -0.3326  0.1431  0.5550
  718TIP3    H123569   1.125   6.000   0.137 -0.1710 -0.5923  0.1760
  718TIP3    H223570   1.085   5.897   0.241  1.1675 -1.7372 -0.4181
  719TIP3   OH223571   0.414   2.748  13.092  0.2052 -0.1907  0.0342
  719TIP3    H123572   0.473   2.812  13.052  0.7807 -1.3671 -1.0397
  719TIP3    H223573   0.439   2.746  13.184  1.9326 -0.7411 -0.4206
  720TIP3   OH223574   6.368   5.767  17.150 -0.4669 -0.3461  0.4464
  720TIP3    H123575   6.328   5.850  17.177 -1.0568 -0.3296 -0.4642
  720TIP3    H223576   6.445   5.792  17.100  1.1813 -0.3796  2.8571
  721TIP3   OH223577   1.654   5.929   3.188  0.0314  0.0593 -0.4563
  721TIP3    H123578   1.638   6.020   3.213 -2.4736 -0.7239  0.9865
  721TIP3    H223579   1.581   5.880   3.226  1.4014 -2.5961 -1.0811
  722TIP3   OH223580   4.185   1.565   2.650 -0.2840 -0.2800 -0.5115
  722TIP3    H123581   4.132   1.626   2.598 -0.3694  0.8783  0.8950
  722TIP3    H223582   4.137   1.482   2.646  0.5485 -0.6550 -3.5984
  723TIP3   OH223583   4.494   0.690   0.296 -0.1572 -0.3729  0.2648
  723TIP3    H123584   4.401   0.713   0.305 -0.0778 -0.0534  0.2827
  723TIP3    H223585   4.540   0.758   0.347  0.2362  0.7598 -1.5634
  724TIP3   OH223586   5.405   1.940   2.724  0.1241  0.0482 -0.5598
  724TIP3    H123587   5.484   1.889   2.709  0.0911 -0.1347 -0.0969
  724TIP3    H223588   5.367   1.905   2.804 -0.3012  0.2940 -0.6487
  725TIP3   OH223589   5.151   0.685  11.447 -0.2526 -0.6378 -0.2749
  725TIP3    H123590   5.238   0.646  11.453 -0.3921 -0.8328  0.5567
  725TIP3    H223591   5.159   0.768  11.493 -0.5069 -0.6557 -0.1992
  726TIP3   OH223592   6.508   2.272  13.585  0.5090 -0.1333  0.2429
  726TIP3    H123593   6.507   2.337  13.514  1.3328 -1.8094 -1.3329
  726TIP3    H223594   6.424   2.286  13.631  1.5105  3.3501  1.2031
  727TIP3   OH223595   5.877   1.710   0.563 -0.5041 -0.3719 -0.0983
  727TIP3    H123596   5.867   1.623   0.602 -1.1929 -0.0090  0.5409
  727TIP3    H223597   5.962   1.707   0.519  0.0084 -0.9878  0.9256
  728TIP3   OH223598   0.069   3.831   5.231 -0.4276 -0.0165  0.1062
  728TIP3    H123599   0.129   3.758   5.247 -0.2837 -0.1652 -1.0921
  728TIP3    H223600   0.121   3.894   5.181 -0.5560  0.9073  1.1084
  729TIP3   OH223601   4.003   6.576  12.361 -0.4419 -0.3332 -0.4679
  729TIP3    H123602   3.938   6.524  12.313  1.0064 -2.4308 -0.2164
  729TIP3    H223603   3.967   6.584  12.449 -0.3758 -1.5192 -0.3211
  730TIP3   OH223604   0.415   0.589  13.770  0.3285 -0.3722  0.0632
  730TIP3    H123605   0.413   0.558  13.680 -1.1167 -1.4194  0.4337
  730TIP3    H223606   0.426   0.510  13.823  1.8801  0.3060  0.7897
  731TIP3   OH223607   0.876   0.901  16.824 -0.1771 -0.1361  0.1203
  731TIP3    H123608   0.965   0.883  16.853 -0.8013 -0.6247  1.7743
  731TIP3    H223609   0.822   0.838  16.871 -1.3793  0.0492 -0.9965
  732TIP3   OH223610   6.559   4.210   0.150 -0.4842  0.4919  0.3882
  732TIP3    H123611   6.640   4.195   0.198 -0.5389  0.1422  0.3707
  732TIP3    H223612   6.579   4.186   0.060 -1.3309 -2.0974  0.8460
  733TIP3   OH223613   2.212   2.957   3.660  0.0954  0.0616 -0.0523
  733TIP3    H123614   2.228   2.931   3.751  1.1500 -0.2439 -0.3146
  733TIP3    H223615   2.132   3.009   3.663  1.9559  2.9615  1.5590
  734TIP3   OH223616   1.095   3.850  11.941 -0.0619 -0.2775  0.4469
  734TIP3    H123617   1.165   3.889  11.994  0.4940  0.8591 -1.0868
  734TIP3    H223618   1.014   3.875  11.986  0.4513 -0.5391  1.5414
  735TIP3   OH223619   1.103   0.760  16.657  0.4875 -0.4482 -0.5355
  735TIP3    H123620   1.130   0.703  16.585  2.5179 -0.7418  0.3992
  735TIP3    H223621   1.102   0.848  16.620  1.5155 -0.6002 -0.9507
  736TIP3   OH223622   1.265   4.882  10.106  0.6274  0.0023  0.0922
  736TIP3    H123623   1.352   4.842  10.103 -0.1463 -1.8330  1.3627
  736TIP3    H223624   1.258   4.918  10.194 -0.9203 -2.3130  0.9778
  737TIP3   OH223625   5.900   4.233   2.918  0.1709 -0.2832  0.5114
  737TIP3    H123626   5.977   4.286   2.941  0.9944 -1.0220 -0.4834
  737TIP3    H223627   5.920   4.146   2.953  0.4170 -0.8314 -0.9586
  738TIP3   OH223628   5.607   4.027  11.865  0.0964 -0.2177  0.2796
  738TIP3    H123629   5.619   4.120  11.843 -2.8732  0.8303  2.7135
  738TIP3    H223630   5.534   3.999  11.810 -1.1863 -0.1421  1.8925
  739TIP3   OH223631   3.045   1.844  12.093  0.0644 -0.5980 -0.1000
  739TIP3    H123632   3.063   1.869  12.002  0.5965  1.2560  0.5096
  739TIP3    H223633   2.987   1.769  12.085  0.6645 -0.9035 -1.9910
  740TIP3   OH223634   0.677   3.659   4.082  0.2688  0.2071 -0.2963
  740TIP3    H123635   0.675   3.565   4.066 -0.5694 -0.0548  1.2477
  740TIP3    H223636   0.640   3.698   4.003  1.6194 -0.6798 -1.3855
  741TIP3   OH223637   2.750   2.673   3.877 -0.6365  0.3215 -0.2613
  741TIP3    H123638   2.822   2.646   3.935 -1.8479  0.5962  1.3946
  741TIP3    H223639   2.774   2.638   3.791  3.5765  3.9310 -0.7396
  742TIP3   OH223640   6.692   1.085   5.750 -0.0023 -0.0806 -0.1958
  742TIP3    H123641   6.642   1.154   5.792 -0.3955  0.2577 -1.2049
  742TIP3    H223642   6.669   1.006   5.799  1.2593  0.6506  1.6344
  743TIP3   OH223643   6.039   3.766   2.315  0.4890  0.3717  0.0530
  743TIP3    H123644   5.993   3.688   2.283 -0.6050  0.9965  0.0891
  743TIP3    H223645   6.106   3.783   2.249  0.2485 -0.1602 -0.3312
  744TIP3   OH223646   4.763   4.897   0.082 -0.3927 -0.0455 -0.0001
  744TIP3    H123647   4.772   4.842   0.160  1.9309  0.3709  0.0722
  744TIP3    H223648   4.805   4.847   0.013 -1.1259  0.2431 -0.6581
  745TIP3   OH223649   2.296   6.489   1.900 -0.3685 -0.3894  0.4531
  745TIP3    H123650   2.369   6.481   1.961  0.5884 -0.7012 -0.7261
  745TIP3    H223651   2.262   6.578   1.914  1.3571  0.3959 -0.2234
  746TIP3   OH223652   3.371   4.540  15.038  0.2180  0.6287  0.2311
  746TIP3    H123653   3.463   4.553  15.014  0.1229  1.9309  0.5413
  746TIP3    H223654   3.327   4.521  14.955  0.7012  0.3468  0.0344
  747TIP3   OH223655   0.212   0.027  14.888  0.0905 -0.1471  0.2147
  747TIP3    H123656   0.293   0.037  14.938  0.7735  0.2997 -0.9534
  747TIP3    H223657   0.191  -0.066  14.895 -0.8837  0.2409  2.9236
  748TIP3   OH223658   3.889   1.929  15.380 -0.2426  0.4547 -0.3221
  748TIP3    H123659   3.867   1.959  15.468 -1.3095  0.5223 -0.6058
  748TIP3    H223660   3.827   1.858  15.362  1.3419 -1.0027 -0.1931
  749TIP3   OH223661   1.237   6.392   1.166 -0.2593 -0.3013 -0.2569
  749TIP3    H123662   1.321   6.412   1.205  0.3039 -1.8079 -0.6603
  749TIP3    H223663   1.218   6.302   1.194 -2.5061  0.5605  1.1750
  750TIP3   OH223664   3.636   2.965   3.776  0.0283  0.4581  0.8423
  750TIP3    H123665   3.574   3.035   3.758  0.5882  0.6657 -0.3027
  750TIP3    H223666   3.592   2.885   3.746  0.6872  0.7202 -0.8494
  751TIP3   OH223667   0.481   3.386  11.198  0.3791 -0.7188  0.4719
  751TIP3    H123668   0.556   3.430  11.160  0.2498 -0.1404  0.8762
  751TIP3    H223669   0.461   3.314  11.138 -1.6495  1.9320 -2.1610
  752TIP3   OH223670   5.790   3.442  14.895 -0.9220  0.5276  0.4550
  752TIP3    H123671   5.751   3.520  14.855 -1.1787 -1.2171 -2.8824
  752TIP3    H223672   5.716   3.381  14.903 -0.0949 -0.5654 -0.1536
  753TIP3   OH223673   6.012   0.994   4.544  0.2093 -0.0519  0.7020
  753TIP3    H123674   5.921   0.993   4.513  0.6362  0.0374 -0.6057
  753TIP3    H223675   6.046   1.079   4.516  0.9233 -0.4042  0.4735
  754TIP3   OH223676   6.133   1.336   2.214  0.0845 -0.1567  0.5051
  754TIP3    H123677   6.103   1.313   2.302 -2.7146 -1.1504 -0.6551
  754TIP3    H223678   6.167   1.425   2.224 -1.6072  0.3504  2.3156
  755TIP3   OH223679   2.204   6.399  14.711  0.3218 -0.3035 -0.4081
  755TIP3    H123680   2.274   6.344  14.674  0.4368 -0.3058 -0.1914
  755TIP3    H223681   2.150   6.422  14.636 -0.3697 -1.6471 -0.3466
  756TIP3   OH223682   6.366   3.310   2.047  0.5629 -0.7817 -0.0770
  756TIP3    H123683   6.379   3.344   1.958  1.2525  0.1471  0.3697
  756TIP3    H223684   6.455   3.297   2.081  0.3017 -1.2464  0.4330
  757TIP3   OH223685   2.727   1.319  12.932  0.2370  0.4094 -0.1891
  757TIP3    H123686   2.721   1.378  12.857 -0.7811  1.6419  0.8303
  757TIP3    H223687   2.794   1.256  12.907  0.3589  1.1648 -1.8813
  758TIP3   OH223688   1.170   6.350   5.350  0.1243 -0.5015  0.3225
  758TIP3    H123689   1.149   6.331   5.441 -1.7595 -0.1740 -0.0287
  758TIP3    H223690   1.186   6.445   5.348 -1.1007 -0.2975  0.0783
  759TIP3   OH223691   2.497   0.211  11.218 -1.0051 -0.2285 -0.4227
  759TIP3    H123692   2.582   0.254  11.215 -2.0012  1.7441 -1.6392
  759TIP3    H223693   2.493   0.160  11.137  0.2450 -2.8859  1.0966
  760TIP3   OH223694   6.370   2.161   4.795 -0.1264  0.2001  0.2883
  760TIP3    H123695   6.464   2.151   4.809 -0.0496 -0.7837 -0.8299
  760TIP3    H223696   6.330   2.093   4.849 -0.1880  0.5141  0.6390
  761TIP3   OH223697   5.006   1.032  13.345  0.4537 -0.4924  0.1940
  761TIP3    H123698   4.953   1.094  13.295  0.4852  0.4430  1.3197
  761TIP3    H223699   4.946   0.959  13.363 -0.3248  0.3236  1.0048
  762TIP3   OH223700   4.868   6.416   4.992 -0.1897 -0.0268 -0.0055
  762TIP3    H123701   4.917   6.340   5.024 -0.2289 -0.4686 -0.9593
  762TIP3    H223702   4.804   6.433   5.061  0.5952 -0.1089  0.7666
  763TIP3   OH223703   3.537   0.012   0.813  0.0686  0.0238  0.0305
  763TIP3    H123704   3.464  -0.051   0.809  0.8098 -0.8244 -0.4882
  763TIP3    H223705   3.514   0.072   0.883 -1.3857  0.0767 -0.4782
  764TIP3   OH223706   6.390   5.054   0.693 -0.0680  0.0038  0.3728
  764TIP3    H123707   6.454   4.998   0.648 -0.0780  0.0836  0.2578
  764TIP3    H223708   6.311   5.000   0.699 -0.4114  0.3773 -0.6893
  765TIP3   OH223709   3.443   3.082   3.257 -0.0520  0.0452  0.1977
  765TIP3    H123710   3.380   3.154   3.256  0.3468  0.3879 -0.9616
  765TIP3    H223711   3.426   3.035   3.175  1.1466  0.1123 -0.0981
  766TIP3   OH223712   2.924   0.382   1.221 -0.0165  0.1809  0.3863
  766TIP3    H123713   2.948   0.446   1.154  0.3506 -0.1678  0.1828
  766TIP3    H223714   2.838   0.410   1.252  0.8865  1.7979  1.5292
  767TIP3   OH223715   3.734   2.173  12.634 -1.0060 -0.0766  0.2469
  767TIP3    H123716   3.743   2.219  12.718  0.4831 -0.6989  0.4492
  767TIP3    H223717   3.642   2.146  12.631 -1.3821  1.0520  1.0946
  768TIP3   OH223718   4.052   3.636   2.377 -0.4301 -0.2954  0.3163
  768TIP3    H123719   4.076   3.677   2.294  1.0676  0.7771  1.2446
  768TIP3    H223720   3.964   3.601   2.362 -0.3763  0.2997 -1.5578
  769TIP3   OH223721   0.947   6.047   5.931  0.1132  0.3447 -0.3291
  769TIP3    H123722   0.876   5.983   5.934  0.6467 -0.2008  0.3865
  769TIP3    H223723   0.911   6.125   5.974  0.7328 -0.6939  2.1371
  770TIP3   OH223724   3.067   6.234   0.618 -0.1176  0.9820 -0.1185
  770TIP3    H123725   3.027   6.152   0.645  2.0120  0.6304  2.2354
  770TIP3    H223726   2.995   6.297   0.619 -1.6812 -0.7231 -1.4877
  771TIP3   OH223727   6.004   5.672   1.909 -0.2760 -0.0103  0.2356
  771TIP3    H123728   5.936   5.687   1.975 -1.7712 -0.4775 -1.1569
  771TIP3    H223729   6.004   5.751   1.856  0.9994  0.4087  0.8383
  772TIP3   OH223730   3.885   1.392   0.741  0.4049 -0.3606  0.3622
  772TIP3    H123731   3.858   1.480   0.715  0.6035 -0.2231  0.6148
  772TIP3    H223732   3.850   1.381   0.829 -0.9397 -1.1234 -0.2453
  773TIP3   OH223733   4.778   1.942   3.106 -0.5675 -0.2875 -0.1138
  773TIP3    H123734   4.790   2.024   3.154  0.7230 -0.5112 -0.0415
  773TIP3    H223735   4.815   1.958   3.019  0.8027 -1.1666  0.2912
  774TIP3   OH223736   0.031   5.690  11.100  0.0049  0.5972 -0.2509
  774TIP3    H123737  -0.027   5.766  11.108  3.1265  3.1121 -0.6422
  774TIP3    H223738   0.058   5.690  11.008  1.7671  0.3866  0.2439
  775TIP3   OH223739   5.510   2.139   2.255 -0.2497  0.1463 -0.5213
  775TIP3    H123740   5.539   2.231   2.259  0.7523 -0.1229 -1.2680
  775TIP3    H223741   5.565   2.100   2.187 -0.5571 -1.0523 -0.0899
  776TIP3   OH223742   1.842   4.478   5.645  0.2027 -0.1121 -0.4010
  776TIP3    H123743   1.807   4.456   5.558  0.3215 -0.1005 -0.4523
  776TIP3    H223744   1.881   4.397   5.676 -2.7259 -1.0271  1.0559
  777TIP3   OH223745   3.557   1.115  15.251 -0.0979  0.2828  0.0684
  777TIP3    H123746   3.620   1.183  15.228  0.5054  0.1773  1.3450
  777TIP3    H223747   3.505   1.102  15.172 -0.2705  2.2732 -0.1668
  778TIP3   OH223748   1.290   0.963   2.439  0.1804 -0.2620 -0.5873
  778TIP3    H123749   1.199   0.934   2.446 -0.1880  1.3763  2.4611
  778TIP3    H223750   1.333   0.896   2.386 -2.3486 -2.1170 -0.3902
  779TIP3   OH223751   2.238   2.470  15.590 -0.2461  0.1997  0.0729
  779TIP3    H123752   2.229   2.537  15.522  1.5757 -0.5605 -0.9442
  779TIP3    H223753   2.223   2.387  15.545 -0.4189 -0.2266  0.9030
  780TIP3   OH223754   6.723   3.635   2.520 -0.6440  0.3371 -0.5104
  780TIP3    H123755   6.770   3.592   2.591 -2.9897 -1.0907  0.2374
  780TIP3    H223756   6.790   3.686   2.475  1.3397 -0.5494  1.3151
  781TIP3   OH223757   4.969   5.153   5.806 -0.3485 -0.2400  0.0612
  781TIP3    H123758   4.987   5.201   5.725 -0.4974 -0.8577 -0.3374
  781TIP3    H223759   5.000   5.211   5.875  0.4779 -0.0256 -0.4789
  782TIP3   OH223760   5.933   5.030   4.623  0.1231 -0.1234 -0.1882
  782TIP3    H123761   6.005   5.034   4.560 -0.2313  1.3493 -0.5121
  782TIP3    H223762   5.975   5.023   4.708  0.6187 -1.1639 -0.5120
  783TIP3   OH223763   1.724   2.461   5.395 -0.4750 -0.1193 -0.4345
  783TIP3    H123764   1.755   2.419   5.315  0.1046 -0.1821 -0.1824
  783TIP3    H223765   1.674   2.393   5.441 -1.6276  0.2035 -1.1998
  784TIP3   OH223766   4.348   3.372  14.938 -0.1929 -0.6489  0.0603
  784TIP3    H123767   4.436   3.337  14.946 -0.3089 -0.8673  0.3951
  784TIP3    H223768   4.360   3.459  14.899  0.1844 -0.5990  0.2821
  785TIP3   OH223769   5.426   6.759   0.408  0.0994  0.3249 -0.4248
  785TIP3    H123770   5.465   6.726   0.489 -0.7195 -1.1132 -0.6143
  785TIP3    H223771   5.431   6.855   0.417  1.3509  0.1710  0.6617
  786TIP3   OH223772   4.827   6.074   5.997  0.1219 -0.2847 -0.1753
  786TIP3    H123773   4.830   6.154   5.944  0.7041 -0.7638 -0.8850
  786TIP3    H223774   4.912   6.032   5.982 -1.7043 -3.1608 -3.2065
  787TIP3   OH223775   1.366   0.072   4.505  0.4061  0.2572  0.2664
  787TIP3    H123776   1.325   0.145   4.552 -0.5114 -0.3545  0.4379
  787TIP3    H223777   1.310  -0.003   4.524 -0.3743  0.1269 -2.3255
  788TIP3   OH223778   0.373   5.437   0.686  0.1615  0.4724 -0.5985
  788TIP3    H123779   0.430   5.426   0.762  0.7215 -0.7975 -1.1735
  788TIP3    H223780   0.300   5.489   0.718 -0.9886 -2.2967  1.5775
  789TIP3   OH223781   4.618   5.715  11.926  0.0624  0.1052  0.5786
  789TIP3    H123782   4.600   5.725  11.833 -0.2415  1.3981  0.7704
  789TIP3    H223783   4.628   5.620  11.938 -0.7914 -0.1487 -0.6028
  790TIP3   OH223784   3.984   1.553  16.679 -0.0955  0.5094 -0.1342
  790TIP3    H123785   3.969   1.589  16.592  0.0556  0.8596 -0.0159
  790TIP3    H223786   4.078   1.533  16.681 -0.2018 -0.0294 -0.2528
  791TIP3   OH223787   1.633   6.757  15.839 -0.1419 -0.9167 -0.3457
  791TIP3    H123788   1.705   6.706  15.877 -0.5488 -0.9970  0.3170
  791TIP3    H223789   1.585   6.694  15.786 -0.4745 -1.1542  0.2395
  792TIP3   OH223790   3.987   6.249   6.818  0.7578 -0.2580  0.1431
  792TIP3    H123791   4.073   6.284   6.845  0.6210  0.6789 -0.6398
  792TIP3    H223792   4.008   6.172   6.765  1.1724  0.9629 -1.4897
  793TIP3   OH223793   5.136   3.326  13.439  0.0804 -0.2153 -0.0215
  793TIP3    H123794   5.116   3.254  13.380  1.4002 -0.8714  0.2912
  793TIP3    H223795   5.229   3.345  13.423 -0.5147  2.1841 -0.9016
  794TIP3   OH223796   1.795   1.788  14.427  0.4058 -0.5592 -0.4913
  794TIP3    H123797   1.769   1.770  14.517  2.5493  0.1153  0.2968
  794TIP3    H223798   1.732   1.854  14.396 -0.2519 -0.6910  0.5469
  795TIP3   OH223799   2.468   5.585  17.023 -0.2710  0.2256  0.6993
  795TIP3    H123800   2.481   5.612  17.114  1.2465  1.1982  0.2319
  795TIP3    H223801   2.520   5.505  17.015 -0.9810 -0.2558  0.8658
  796TIP3   OH223802   3.073   4.101   5.958 -0.3588  0.7135  0.1021
  796TIP3    H123803   3.052   4.091   5.865  0.1325  0.4581  0.0195
  796TIP3    H223804   3.048   4.017   5.997  1.0600  0.1848 -0.0995
  797TIP3   OH223805   5.370   3.098   4.482 -0.1516  0.6372 -1.0755
  797TIP3    H123806   5.320   3.178   4.466  0.0618  0.7304 -1.2908
  797TIP3    H223807   5.316   3.028   4.444 -0.4099  0.6594 -0.7491
  798TIP3   OH223808   0.632   0.702   2.146  0.1591  0.1101  0.1500
  798TIP3    H123809   0.572   0.630   2.168  0.6263 -0.1624  0.5472
  798TIP3    H223810   0.705   0.691   2.207 -0.1366  1.3870  0.7437
  799TIP3   OH223811   1.997   2.404  12.440  0.6918  0.0004  0.3443
  799TIP3    H123812   1.903   2.422  12.440  0.1528 -2.6258 -0.2078
  799TIP3    H223813   2.018   2.384  12.531  0.7312  0.6671  0.4809
  800TIP3   OH223814   1.496   4.504   4.766 -0.2648  0.0866 -0.0295
  800TIP3    H123815   1.563   4.550   4.816 -2.8345  4.4797 -0.3226
  800TIP3    H223816   1.431   4.478   4.831  0.6313 -2.3137 -0.0230
  801TIP3   OH223817   1.810   6.022  12.109  0.4179 -0.7797 -0.0821
  801TIP3    H123818   1.829   6.116  12.111  0.1694 -0.7551  1.2818
  801TIP3    H223819   1.887   5.981  12.149 -0.2616 -1.0309  0.9698
  802TIP3   OH223820   2.012   3.518  13.416  0.8234 -0.2400 -0.1269
  802TIP3    H123821   1.954   3.450  13.382  0.7322  0.7763 -2.0396
  802TIP3    H223822   1.985   3.528  13.508 -1.4903 -0.3648 -0.7575
  803TIP3   OH223823   5.667   0.331   4.305  0.7887 -0.2462 -0.5947
  803TIP3    H123824   5.696   0.249   4.265 -0.7235 -0.5949 -0.9758
  803TIP3    H223825   5.737   0.352   4.367  1.1317 -1.9056 -0.3747
  804TIP3   OH223826   1.569   0.507   1.234  0.1155 -0.2656  0.7598
  804TIP3    H123827   1.642   0.487   1.292 -0.2397 -0.4355  1.1462
  804TIP3    H223828   1.582   0.599   1.210 -0.0086 -0.0559  1.4908
  805TIP3   OH223829   4.269   1.928   1.542  0.1456 -1.3779 -0.6211
  805TIP3    H123830   4.290   1.853   1.487  0.5521 -1.2193 -0.6833
  805TIP3    H223831   4.231   1.992   1.481  0.2351 -1.3511 -0.6480
  806TIP3   OH223832   0.543   2.736  16.846 -0.3197 -0.2492  0.4102
  806TIP3    H123833   0.572   2.813  16.797  0.4783 -1.1641 -0.5999
  806TIP3    H223834   0.607   2.727  16.916  0.8658 -1.2448 -0.7733
  807TIP3   OH223835   4.848   5.776   4.813 -0.1249  0.5545 -0.0089
  807TIP3    H123836   4.836   5.798   4.905 -0.1842 -0.6772  0.2844
  807TIP3    H223837   4.913   5.838   4.781  1.1514 -0.1109  1.2929
  808TIP3   OH223838   3.203   4.077  11.593 -0.0101 -0.3914 -0.3906
  808TIP3    H123839   3.297   4.083  11.612  0.1188  0.3324 -1.2262
  808TIP3    H223840   3.195   4.107  11.503 -0.7234 -2.9445 -1.2130
  809TIP3   OH223841   4.888   1.261   3.908  0.1259  0.3020 -0.4747
  809TIP3    H123842   4.931   1.304   3.982 -0.2501  1.0018 -0.6531
  809TIP3    H223843   4.879   1.170   3.935  2.0256  0.0622 -0.5788
  810TIP3   OH223844   0.359   6.136  15.565  0.4029 -0.3433  0.1080
  810TIP3    H123845   0.296   6.202  15.591 -0.8821 -0.9949 -1.2916
  810TIP3    H223846   0.341   6.120  15.472  1.8764 -1.3415 -0.0312
  811TIP3   OH223847   3.232   5.333  13.024 -0.0569  0.0332  0.1637
  811TIP3    H123848   3.207   5.377  13.105  1.7363  2.5214 -0.5716
  811TIP3    H223849   3.193   5.246  13.030 -2.1597  1.1027  2.5014
  812TIP3   OH223850   5.188   6.398  12.316  1.1761  0.0009 -0.2044
  812TIP3    H123851   5.265   6.347  12.287  1.3456  0.4380 -0.5230
  812TIP3    H223852   5.138   6.412  12.236  0.0197 -1.5207  0.2217
  813TIP3   OH223853   4.589   1.935  12.990 -0.0363 -0.3996 -0.2386
  813TIP3    H123854   4.643   1.896  12.920 -0.4038  0.1779 -0.8490
  813TIP3    H223855   4.568   2.022  12.957 -0.3921 -0.2079  0.5101
  814TIP3   OH223856   0.572   5.510  13.773 -0.0266  0.6701  0.1366
  814TIP3    H123857   0.646   5.532  13.716  0.2770  0.4065  0.4325
  814TIP3    H223858   0.495   5.521  13.716  0.4074 -1.5773 -0.9357
  815TIP3   OH223859   3.541   0.260   5.915  0.3811 -0.7315  0.1184
  815TIP3    H123860   3.458   0.249   5.868  1.4629 -1.8308 -1.6073
  815TIP3    H223861   3.608   0.262   5.846  1.7870  0.4293  1.4547
  816TIP3   OH223862   4.800   4.964   5.369  0.0588  0.8198  0.4460
  816TIP3    H123863   4.883   4.934   5.407 -0.4262  2.5915  3.0015
  816TIP3    H223864   4.749   4.884   5.356  1.5654 -0.1343  0.3018
  817TIP3   OH223865   6.467   4.590   6.328 -0.1418 -0.7104 -0.2367
  817TIP3    H123866   6.483   4.680   6.355  1.6090 -0.8021 -0.9201
  817TIP3    H223867   6.554   4.554   6.310 -0.9750 -1.8165 -2.2702
  818TIP3   OH223868   5.652   5.742   0.738  0.3502  0.5543  0.1092
  818TIP3    H123869   5.704   5.670   0.702 -0.2779  0.9260 -1.6009
  818TIP3    H223870   5.692   5.760   0.824  2.3851  0.1270 -0.7041
  819TIP3   OH223871   1.748   4.043   4.077  0.6475  0.3411  0.4167
  819TIP3    H123872   1.721   4.126   4.038  1.7146  1.1351  1.3449
  819TIP3    H223873   1.665   3.996   4.093  0.0307  1.2855  0.0359
  820TIP3   OH223874   2.030   3.942   5.310 -0.5540 -0.4096 -0.0568
  820TIP3    H123875   1.986   4.000   5.249 -1.7422 -1.6863 -0.4327
  820TIP3    H223876   1.980   3.860   5.306  2.1175 -2.0830 -0.8874
  821TIP3   OH223877   1.458   1.739   3.096  0.7304 -0.1934 -0.0378
  821TIP3    H123878   1.508   1.750   3.177  1.2544  2.0562 -0.6175
  821TIP3    H223879   1.418   1.825   3.081 -0.5689 -1.0054 -1.3787
  822TIP3   OH223880   5.960   2.980   5.030 -0.4189  0.0498 -0.0962
  822TIP3    H123881   5.992   3.069   5.020 -2.2465  0.7044 -0.2995
  822TIP3    H223882   5.984   2.936   4.949  1.2159  0.1015  0.3407
  823TIP3   OH223883   6.239   5.724   6.304 -0.8442  0.3744  0.3797
  823TIP3    H123884   6.259   5.631   6.312 -1.7212  0.1137 -0.4110
  823TIP3    H223885   6.161   5.728   6.249 -2.8720  1.3968  3.1728
  824TIP3   OH223886   2.565   4.793   5.382 -0.0177  1.3376 -0.7322
  824TIP3    H123887   2.531   4.761   5.466 -0.1882  2.9361 -0.1784
  824TIP3    H223888   2.495   4.846   5.346  0.6001  1.8484 -1.1949
  825TIP3   OH223889   5.906   6.700  10.938 -0.9322  0.0681 -0.2849
  825TIP3    H123890   5.828   6.741  10.902 -2.2564 -2.2773 -0.2080
  825TIP3    H223891   5.912   6.735  11.027 -0.9128  1.5453 -0.8526
  826TIP3   OH223892   1.458   3.889  11.937 -0.4692  0.4478  0.2147
  826TIP3    H123893   1.502   3.889  12.022  2.5267  1.9071 -1.2528
  826TIP3    H223894   1.507   3.952  11.884 -1.6984 -1.0716 -2.8995
  827TIP3   OH223895   3.035   2.744  12.130 -0.3397  0.0422 -0.1833
  827TIP3    H123896   3.080   2.739  12.214 -1.7173 -2.4358  0.4298
  827TIP3    H223897   2.967   2.810  12.142  0.3496  0.6974  0.1828
  828TIP3   OH223898   1.544   0.872  14.345  0.1967  0.4454 -0.0455
  828TIP3    H123899   1.531   0.809  14.416 -0.0934 -0.5187 -0.9419
  828TIP3    H223900   1.497   0.950  14.374 -0.5874 -0.2116  0.4778
  829TIP3   OH223901   6.511   6.697   5.770  0.2932 -0.6456  0.7163
  829TIP3    H123902   6.494   6.792   5.771  0.3924 -0.6313  1.4346
  829TIP3    H223903   6.538   6.679   5.680 -4.0713 -0.7861 -0.6702
  830TIP3   OH223904   1.645   0.615  11.898 -0.3377 -0.8298 -0.4057
  830TIP3    H123905   1.733   0.579  11.891 -0.7363 -1.3826 -3.1775
  830TIP3    H223906   1.588   0.539  11.903 -0.7367 -0.4821  0.4924
  831TIP3   OH223907   1.614   2.012   1.751 -0.1122  0.2654 -0.5857
  831TIP3    H123908   1.530   2.052   1.773  0.2730  0.3558  0.7381
  831TIP3    H223909   1.624   2.028   1.657 -1.2792  0.8011 -0.6239
  832TIP3   OH223910   1.391   4.854   4.926 -0.5779  0.1577 -0.5331
  832TIP3    H123911   1.339   4.883   4.851 -2.0750 -0.9873  0.0535
  832TIP3    H223912   1.478   4.893   4.911 -1.0118  0.3899 -2.5595
  833TIP3   OH223913   1.935   1.686  15.396 -0.5665 -0.4599 -0.3319
  833TIP3    H123914   1.964   1.596  15.415 -0.4185 -0.3406  0.0031
  833TIP3    H223915   1.902   1.719  15.479  2.2796  0.8873  0.3207
  834TIP3   OH223916   5.043   1.423  15.592 -0.7374  0.3619 -0.0013
  834TIP3    H123917   5.050   1.393  15.501  0.0874  0.3567  0.0618
  834TIP3    H223918   5.036   1.343  15.643 -0.3281  0.3319  0.0116
  835TIP3   OH223919   3.794   1.185   1.724  0.3327  0.1137  0.2824
  835TIP3    H123920   3.848   1.262   1.705 -0.5322  0.7520  0.3637
  835TIP3    H223921   3.752   1.164   1.640  1.3228 -0.8716  0.0294
  836TIP3   OH223922   3.280   4.541   6.512  0.1962 -0.1324 -0.3143
  836TIP3    H123923   3.234   4.624   6.526 -0.9494 -0.8330  0.1166
  836TIP3    H223924   3.327   4.526   6.594 -2.2846 -1.5749  0.8981
  837TIP3   OH223925   0.330   0.419   4.015 -0.0527  0.4531 -0.5410
  837TIP3    H123926   0.283   0.460   4.088  1.1792 -0.1176  0.5904
  837TIP3    H223927   0.412   0.468   4.009 -0.1638  0.5287 -1.5927
  838TIP3   OH223928   2.640   3.169   6.033  0.1811 -0.0418 -0.2863
  838TIP3    H123929   2.633   3.209   6.120 -1.2110 -1.9374  0.5132
  838TIP3    H223930   2.572   3.212   5.981  0.0970  0.1255 -0.0349
  839TIP3   OH223931   6.607   4.440   3.098 -0.2549 -0.9808  0.3932
  839TIP3    H123932   6.521   4.407   3.070 -0.0251 -0.2851 -1.2203
  839TIP3    H223933   6.628   4.388   3.176 -2.7047 -0.2777  1.5769
  840TIP3   OH223934   3.135   5.413   3.985  0.1276  0.1102  0.4774
  840TIP3    H123935   3.109   5.374   3.902  0.4525 -0.1825  0.5138
  840TIP3    H223936   3.230   5.407   3.986  0.0532 -1.1998  1.5046
  841TIP3   OH223937   2.169   2.547  14.398 -0.0884  0.3394  0.1422
  841TIP3    H123938   2.094   2.487  14.403  1.0326 -1.1017 -0.1648
  841TIP3    H223939   2.144   2.610  14.332 -0.8253 -0.4480 -0.3449
  842TIP3   OH223940   5.158   0.052   0.652  0.1505 -0.1224 -0.0907
  842TIP3    H123941   5.169  -0.025   0.596 -0.7581 -0.2469 -0.1080
  842TIP3    H223942   5.066   0.049   0.679  0.1724  0.8265  0.1049
  843TIP3   OH223943   3.605   4.020  14.521  0.3279  0.5536 -0.6437
  843TIP3    H123944   3.572   4.039  14.609  0.4516  2.8229 -1.0643
  843TIP3    H223945   3.692   3.982  14.536 -0.9793 -2.1850  0.3171
  844TIP3   OH223946   1.550   6.086   1.497 -0.1645 -0.5185 -0.5563
  844TIP3    H123947   1.577   6.099   1.406 -0.4595  2.7306 -0.2469
  844TIP3    H223948   1.468   6.135   1.505  0.2929 -0.0555  1.6688
  845TIP3   OH223949   4.859   2.786   2.293  0.7726 -0.0721 -0.1469
  845TIP3    H123950   4.914   2.730   2.348  1.3920  0.4867 -0.1989
  845TIP3    H223951   4.813   2.843   2.355  2.4789  1.4683 -0.2892
  846TIP3   OH223952   1.249   2.910  16.653 -0.5684  0.1170 -0.1675
  846TIP3    H123953   1.329   2.858  16.649 -0.2498  0.6864 -1.5111
  846TIP3    H223954   1.269   2.989  16.601 -1.3770  1.1084  0.9892
  847TIP3   OH223955   6.494   2.999  12.439 -0.1835  0.5561  0.0096
  847TIP3    H123956   6.568   3.000  12.378 -0.1589  0.2413  0.0283
  847TIP3    H223957   6.535   2.991  12.526 -0.2668 -0.9888 -0.0666
  848TIP3   OH223958   5.223   5.301   0.374 -0.1833 -0.0886  0.4038
  848TIP3    H123959   5.133   5.280   0.351  0.5697 -0.5730 -2.2952
  848TIP3    H223960   5.273   5.222   0.352  0.8162 -0.1347  2.6377
  849TIP3   OH223961   2.971   4.422   5.240 -0.0500 -0.0517  0.4056
  849TIP3    H123962   2.931   4.466   5.315 -1.0115  3.8495 -2.2481
  849TIP3    H223963   3.062   4.449   5.242  0.2819 -1.2077  1.0409
  850TIP3   OH223964   6.075   6.017   3.873  0.3500 -0.0319  0.4569
  850TIP3    H123965   6.066   6.025   3.778  0.7480  0.2574  0.4462
  850TIP3    H223966   6.121   6.096   3.900  0.2896 -0.1411  0.8862
  851TIP3   OH223967   2.794   3.667   1.488  0.4092 -0.0267 -0.7857
  851TIP3    H123968   2.864   3.677   1.553 -0.4090 -0.3447  0.1557
  851TIP3    H223969   2.755   3.754   1.481 -1.0049 -0.4873  0.8924
  852TIP3   OH223970   4.824   1.794  16.015  0.2971 -0.2651 -0.5211
  852TIP3    H123971   4.804   1.817  16.106  1.2016 -0.5019 -0.2650
  852TIP3    H223972   4.777   1.712  16.001 -0.4857  0.1758 -0.5155
  853TIP3   OH223973   0.399   5.777  14.630 -0.3044 -0.0866  0.3758
  853TIP3    H123974   0.331   5.841  14.608  0.3748  0.6544  0.4173
  853TIP3    H223975   0.414   5.729  14.548 -1.1312 -0.5091  0.4570
  854TIP3   OH223976   0.650   1.349   3.936 -0.0398  0.0479 -0.0122
  854TIP3    H123977   0.581   1.402   3.895 -0.8743 -1.2398 -0.2918
  854TIP3    H223978   0.720   1.347   3.871  0.2744  1.3650  0.2711
  855TIP3   OH223979   5.416   3.282   1.488  0.1728  0.0296  0.2758
  855TIP3    H123980   5.506   3.285   1.454 -1.1723  0.8904 -3.4883
  855TIP3    H223981   5.378   3.206   1.444 -1.8903  1.6423 -0.7967
  856TIP3   OH223982   0.817   6.346  13.272  0.0402 -0.6409 -0.4288
  856TIP3    H123983   0.782   6.426  13.310  0.0324 -1.7124  1.8908
  856TIP3    H223984   0.912   6.356  13.276  0.0517 -1.2934  1.0846
  857TIP3   OH223985   2.965   5.219  12.798  0.8619  0.3420  0.0101
  857TIP3    H123986   2.989   5.184  12.712 -1.2348  1.5564 -1.1314
  857TIP3    H223987   3.001   5.308  12.798 -0.5988  0.9464 -0.3280
  858TIP3   OH223988   6.770   4.584   1.999 -0.6522  0.1794 -0.1187
  858TIP3    H123989   6.699   4.526   2.027 -0.9414  0.6842  0.1944
  858TIP3    H223990   6.767   4.581   1.903 -0.3250 -0.7383 -0.1081
  859TIP3   OH223991   5.619   6.122   1.120 -0.5331 -0.3069 -0.0833
  859TIP3    H123992   5.619   6.210   1.081 -0.1573 -0.4092 -0.3218
  859TIP3    H223993   5.584   6.065   1.052  0.0279 -0.4707 -0.2373
  860TIP3   OH223994   3.508   2.713  12.407 -0.3083  0.3151 -0.3293
  860TIP3    H123995   3.557   2.643  12.450 -2.3097 -0.4214  0.8115
  860TIP3    H223996   3.530   2.791  12.457 -1.7004 -0.3304  1.3631
  861TIP3   OH223997   1.641   0.198  13.909  0.0407  0.3887  0.2578
  861TIP3    H123998   1.560   0.155  13.934  0.1212 -0.2947 -0.6725
  861TIP3    H223999   1.631   0.217  13.816  2.1161 -2.3575 -0.5954
  862TIP3   OH224000   3.159   4.985   0.057  0.3767  0.0908 -0.6575
  862TIP3    H124001   3.175   4.963  -0.034  1.8609  0.8678 -0.6059
  862TIP3    H224002   3.144   5.079   0.057 -0.8669 -0.0998 -0.2504
  863TIP3   OH224003   6.205   5.707  12.106 -0.4706  0.2185  0.1028
  863TIP3    H124004   6.253   5.631  12.073  0.8925  1.1086 -0.0148
  863TIP3    H224005   6.232   5.778  12.048 -2.6009  0.5773 -0.4872
  864TIP3   OH224006   4.092   4.839  15.729  0.9499  0.4241  0.1590
  864TIP3    H124007   4.029   4.797  15.669 -1.0776  1.4864  1.4741
  864TIP3    H224008   4.088   4.932  15.707  1.2125  0.6442  1.0311
  865TIP3   OH224009   4.429   0.879  12.240 -0.1001 -0.1895  0.0860
  865TIP3    H124010   4.338   0.908  12.228 -0.5879 -0.4983  2.7859
  865TIP3    H224011   4.469   0.890  12.154 -1.7532  3.2947 -0.3287
  866TIP3   OH224012   5.747   1.846   2.250  0.5095 -0.5071 -0.0685
  866TIP3    H124013   5.828   1.804   2.278  1.9638  0.7769 -2.1677
  866TIP3    H224014   5.725   1.906   2.321  1.4280 -0.8514  0.5096
  867TIP3   OH224015   2.789   5.201  16.782 -0.1566  0.0483 -0.0787
  867TIP3    H124016   2.853   5.165  16.844 -1.1852 -0.9148  0.4596
  867TIP3    H224017   2.806   5.154  16.700 -0.4437 -0.5140  0.1803
  868TIP3   OH224018   2.435   2.067   0.503 -0.4519 -0.5728 -0.0181
  868TIP3    H124019   2.396   2.126   0.567 -0.2377 -0.5435  0.0874
  868TIP3    H224020   2.449   2.121   0.426 -0.7957 -0.6310 -0.1216
  869TIP3   OH224021   3.642   5.729  15.422 -0.1050 -0.7063 -0.6858
  869TIP3    H124022   3.678   5.778  15.496  0.5837 -1.1944 -0.6930
  869TIP3    H224023   3.552   5.711  15.447  0.0058 -0.5130 -0.1374
  870TIP3   OH224024   6.165   5.842  16.494 -0.2709 -0.0071  0.3394
  870TIP3    H124025   6.128   5.768  16.543  0.6452 -0.4042  0.4548
  870TIP3    H224026   6.231   5.802  16.437  2.1285  0.9660  2.3082
  871TIP3   OH224027   2.180   2.558  11.034  0.4749 -0.0189 -0.5663
  871TIP3    H124028   2.133   2.635  11.001  1.9400  1.2420  0.2835
  871TIP3    H224029   2.248   2.543  10.969  0.4457 -0.3575 -0.5165
  872TIP3   OH224030   3.564   1.589  12.510  0.3678  0.7164  0.3955
  872TIP3    H124031   3.572   1.601  12.415 -0.4755 -1.0570  0.0850
  872TIP3    H224032   3.516   1.666  12.540 -2.0234 -0.1611 -1.0586
  873TIP3   OH224033   3.549   0.438   0.350  0.5687  0.1120  0.2064
  873TIP3    H124034   3.538   0.372   0.419  0.8325 -0.6023 -0.4266
  873TIP3    H224035   3.642   0.433   0.328  0.7757  1.3342  0.7836
  874TIP3   OH224036   2.008   2.714  11.443 -0.6472  0.5880 -0.5140
  874TIP3    H124037   1.958   2.651  11.392 -2.9941  1.3905  0.6943
  874TIP3    H224038   1.973   2.706  11.532  0.5192  2.0479  0.1021
  875TIP3   OH224039   0.211   0.289   3.171  0.2594  0.5940  0.5256
  875TIP3    H124040   0.130   0.339   3.183  1.3438  1.9198  2.6876
  875TIP3    H224041   0.191   0.202   3.206  0.0284  1.1878  1.8994
  876TIP3   OH224042   0.165   0.489   1.017 -0.4605 -0.2028 -0.5845
  876TIP3    H124043   0.249   0.533   1.007  0.3200 -1.8507 -1.4051
  876TIP3    H224044   0.186   0.396   1.018 -2.3366 -0.6615 -1.4851
  877TIP3   OH224045   0.694   5.825  15.530 -0.5681 -0.2369 -0.3527
  877TIP3    H124046   0.703   5.912  15.489  0.6682 -0.9947 -1.7315
  877TIP3    H224047   0.707   5.841  15.623 -0.6338  1.1121 -0.5608
  878TIP3   OH224048   3.200   0.312   5.414 -0.7605  0.1315  0.4917
  878TIP3    H124049   3.267   0.244   5.413 -1.3380 -0.4457 -0.1275
  878TIP3    H224050   3.225   0.372   5.344 -1.0918 -0.3028 -0.0115
  879TIP3   OH224051   4.426   4.415   5.524 -0.7954  0.9598  0.4535
  879TIP3    H124052   4.507   4.447   5.564 -0.5265 -0.2109  0.8928
  879TIP3    H224053   4.410   4.331   5.567 -2.7511  1.5849  1.0549
  880TIP3   OH224054   4.829   1.055   4.583 -0.4648  1.0157 -0.6820
  880TIP3    H124055   4.747   1.021   4.546  0.3416 -0.9803 -0.6796
  880TIP3    H224056   4.827   1.028   4.674  1.5478 -1.6521 -1.3883
  881TIP3   OH224057   6.170   3.001  14.434 -0.6511 -0.1886  0.1618
  881TIP3    H124058   6.238   3.030  14.495 -0.4586  1.6198 -0.8879
  881TIP3    H224059   6.088   3.010  14.483 -0.5431  1.6850  0.0401
  882TIP3   OH224060   2.045   5.270   1.721 -0.0999  0.6524 -0.5838
  882TIP3    H124061   1.953   5.285   1.698 -0.5078 -1.2511 -0.2993
  882TIP3    H224062   2.063   5.181   1.690  1.4701  0.7824 -0.0733
  883TIP3   OH224063   2.738   3.568   4.478  0.1091  0.8671 -0.6379
  883TIP3    H124064   2.783   3.498   4.526  0.7046  0.4749 -1.7538
  883TIP3    H224065   2.783   3.648   4.505 -0.0527  0.7305  0.0380
  884TIP3   OH224066   4.720   4.687   5.374 -0.0429 -0.0010  0.4008
  884TIP3    H124067   4.646   4.689   5.436 -0.4208  0.6698 -0.0657
  884TIP3    H224068   4.735   4.594   5.359 -0.3202 -0.1587  1.0696
  885TIP3   OH224069   1.952   1.592   4.040 -0.1192 -0.0405 -0.1030
  885TIP3    H124070   1.898   1.534   4.095 -0.2567 -0.2186 -0.4242
  885TIP3    H224071   2.039   1.552   4.043  0.2964  0.9096  1.3937
  886TIP3   OH224072   4.596   0.746  13.446  0.9005  0.0189  0.4085
  886TIP3    H124073   4.522   0.692  13.420  0.0351  1.3059  0.1676
  886TIP3    H224074   4.613   0.723  13.538 -0.9877  1.0451  1.0363
  887TIP3   OH224075   1.267   0.553   0.100 -0.1726 -0.8263  0.5670
  887TIP3    H124076   1.276   0.473   0.047  0.8459  0.1384 -0.7450
  887TIP3    H224077   1.176   0.580   0.087 -1.4188 -3.3883  3.3924
  888TIP3   OH224078   4.783   6.607   3.795 -0.4608  0.0874 -0.4590
  888TIP3    H124079   4.705   6.568   3.834 -2.0924  2.9294 -0.7384
  888TIP3    H224080   4.798   6.556   3.715 -1.3400 -1.2074  0.1901
  889TIP3   OH224081   1.620   1.192   4.471 -0.2736  0.7006 -0.0638
  889TIP3    H124082   1.639   1.116   4.526  0.8316  0.5714 -0.6253
  889TIP3    H224083   1.705   1.227   4.447 -0.7404  0.8533 -1.5652
  890TIP3   OH224084   5.335   3.150   4.770  0.2767  0.0400 -0.2148
  890TIP3    H124085   5.341   3.127   4.677  1.8640 -0.2173 -0.0651
  890TIP3    H224086   5.333   3.065   4.815 -2.7888  0.1293 -0.1179
  891TIP3   OH224087   0.981   5.417  15.667 -0.3058  0.1127 -0.1120
  891TIP3    H124088   0.948   5.493  15.620 -0.4511  1.4922  2.1700
  891TIP3    H224089   1.075   5.432  15.675 -0.0478 -0.8347 -1.2179
  892TIP3   OH224090   0.260   5.061   5.364 -0.0254  0.0031  0.1385
  892TIP3    H124091   0.270   4.978   5.410 -0.6589  0.4339  1.0561
  892TIP3    H224092   0.349   5.093   5.353  0.1228 -0.0715  1.1154
  893TIP3   OH224093   2.519   4.940  13.092 -0.2274  0.0456  0.0047
  893TIP3    H124094   2.466   4.895  13.159 -0.6911  1.2241  0.4499
  893TIP3    H224095   2.510   4.886  13.014 -1.4312 -0.2144  0.3119
  894TIP3   OH224096   5.655   2.065  15.489 -0.0164  0.3073  0.2394
  894TIP3    H124097   5.733   2.090  15.439 -0.2904 -1.0464 -0.8667
  894TIP3    H224098   5.685   2.063  15.580  0.9707  0.8499 -0.0695
  895TIP3   OH224099   0.795   0.306   3.239 -0.2105 -0.1858  0.2334
  895TIP3    H124100   0.704   0.274   3.243 -0.3775  0.2617  0.0394
  895TIP3    H224101   0.847   0.234   3.275 -0.6790 -0.2980  0.6994
  896TIP3   OH224102   3.124   0.928  13.744 -0.5369 -0.8410 -0.0012
  896TIP3    H124103   3.068   0.853  13.764 -2.9350  1.0899  0.7197
  896TIP3    H224104   3.197   0.920  13.805  0.0035 -3.3631 -0.9071
  897TIP3   OH224105   2.729   6.077   3.469  0.2960  0.2499 -0.0415
  897TIP3    H124106   2.749   6.170   3.463  2.5007 -0.1762  0.4739
  897TIP3    H224107   2.717   6.060   3.562  0.7300 -0.1610 -0.0616
  898TIP3   OH224108   6.644   3.566   1.601  0.4044 -0.9913 -0.3105
  898TIP3    H124109   6.662   3.528   1.687 -0.9503  0.3050  0.5639
  898TIP3    H224110   6.698   3.645   1.598  0.3049 -0.9316 -0.5858
  899TIP3   OH224111   5.937   2.280   5.554 -0.4241 -0.0129 -0.4535
  899TIP3    H124112   5.867   2.254   5.496 -0.8248 -0.5640  0.2643
  899TIP3    H224113   5.925   2.226   5.633 -1.0088  2.0170  0.8841
  900TIP3   OH224114   2.702   5.999  15.141 -0.3351  0.1644 -0.2151
  900TIP3    H124115   2.747   6.062  15.085 -0.0981 -0.3649 -0.6297
  900TIP3    H224116   2.753   5.997  15.221 -0.2213  0.3491 -0.2846
  901TIP3   OH224117   5.701   0.424  10.940 -0.4664 -0.7066 -0.0522
  901TIP3    H124118   5.687   0.516  10.960 -2.3356 -1.1450  0.8267
  901TIP3    H224119   5.711   0.421  10.845 -1.9883  0.2485 -0.2727
  902TIP3   OH224120   4.697   3.494  14.173 -0.0642 -0.1781  0.2012
  902TIP3    H124121   4.739   3.432  14.113  2.3557  0.5516  1.0949
  902TIP3    H224122   4.646   3.438  14.232  0.6297 -1.1839 -0.1249
  903TIP3   OH224123   4.613   1.330  14.824 -0.7226  0.4874  0.0217
  903TIP3    H124124   4.664   1.375  14.758 -0.4991  0.1446 -0.0412
  903TIP3    H224125   4.672   1.322  14.899 -1.3920  2.0272  0.7315
  904TIP3   OH224126   3.681   4.568   3.303 -0.3613  0.4310 -0.0025
  904TIP3    H124127   3.620   4.545   3.373  0.9978  0.3053  1.1590
  904TIP3    H224128   3.753   4.613   3.347  0.6120  0.1786 -1.3018
  905TIP3   OH224129   5.304   1.126   4.290 -0.2606 -0.3871 -0.5693
  905TIP3    H124130   5.349   1.209   4.304  3.5418 -1.9707 -2.5332
  905TIP3    H224131   5.253   1.139   4.210  0.2311  0.0947 -0.8050
  906TIP3   OH224132   4.408   3.235  11.124 -0.2417 -0.2629  0.2490
  906TIP3    H124133   4.490   3.185  11.124 -0.0573 -0.0143 -2.2042
  906TIP3    H224134   4.434   3.324  11.147 -0.3065 -0.8472  2.7277
  907TIP3   OH224135   2.044   4.509  12.180  0.3644 -0.0129 -0.3476
  907TIP3    H124136   2.021   4.493  12.272 -0.2601 -0.0634 -0.5085
  907TIP3    H224137   2.117   4.571  12.184  0.3683 -0.0460  0.1840
  908TIP3   OH224138   1.969   1.927  15.174 -0.1004 -0.6316 -0.4055
  908TIP3    H124139   1.961   1.863  15.103 -0.6863  0.6965 -1.5566
  908TIP3    H224140   2.060   1.919  15.203  0.1084 -1.2811 -1.2186
  909TIP3   OH224141   3.261   0.151  11.410 -0.0516 -0.4830 -0.0761
  909TIP3    H124142   3.342   0.178  11.452  0.7993 -2.1865 -0.5770
  909TIP3    H224143   3.277   0.060  11.383 -2.3742 -1.0941  0.4864
  910TIP3   OH224144   4.686   0.629  13.696  0.1260  0.0808 -0.0462
  910TIP3    H124145   4.699   0.609  13.788  1.4324 -0.6032 -0.3660
  910TIP3    H224146   4.710   0.549  13.649 -1.4654  0.1066 -0.9251
  911TIP3   OH224147   5.421   4.149  17.079  0.1738 -0.5137  0.0126
  911TIP3    H124148   5.415   4.183  17.169  0.1765  1.0697 -0.5723
  911TIP3    H224149   5.498   4.092  17.081  0.1164 -0.5725  1.0412
  912TIP3   OH224150   5.561   0.901  12.285  0.3468 -0.7762 -0.5506
  912TIP3    H124151   5.487   0.904  12.346  0.2826  2.6607 -0.6812
  912TIP3    H224152   5.533   0.955  12.211  2.5275 -0.3942 -1.1297
  913TIP3   OH224153   6.090   4.795   4.154 -0.0166  0.0937 -0.4177
  913TIP3    H124154   6.064   4.715   4.108 -2.5892 -0.5436  1.9961
  913TIP3    H224155   6.185   4.794   4.152 -0.0247 -2.5304 -1.2838
  914TIP3   OH224156   1.519   1.451  10.668 -0.4531  0.2135  0.0458
  914TIP3    H124157   1.600   1.409  10.639 -1.7689 -0.9254 -2.2016
  914TIP3    H224158   1.546   1.512  10.737  2.1375 -0.9493  0.1145
  915TIP3   OH224159   3.305   2.673  17.132 -0.3634 -0.0427  0.1994
  915TIP3    H124160   3.297   2.768  17.120  1.2826  0.3779  2.1742
  915TIP3    H224161   3.320   2.639  17.043  1.0988  1.7914 -0.2912
  916TIP3   OH224162   1.905   5.993   3.348 -0.2001 -0.4587  0.7571
  916TIP3    H124163   1.813   5.994   3.375 -0.7298  0.4972 -0.9924
  916TIP3    H224164   1.930   5.900   3.354 -1.2833 -0.7355  1.1873
  917TIP3   OH224165   1.736   4.989   5.777  0.4569  1.3376  0.0521
  917TIP3    H124166   1.685   5.069   5.789 -0.9253  0.4731  0.0436
  917TIP3    H224167   1.749   4.983   5.682  0.7525  1.6712  0.0711
  918TIP3   OH224168   3.180   2.732   0.223 -0.7353 -0.2228 -0.4076
  918TIP3    H124169   3.137   2.664   0.171 -1.6435  0.8148 -1.0156
  918TIP3    H224170   3.121   2.746   0.297  0.6631 -1.8637  1.0844
  919TIP3   OH224171   5.964   3.173   2.177 -0.1014 -0.6785  0.1243
  919TIP3    H124172   5.925   3.092   2.142 -0.8914 -0.0666 -0.4465
  919TIP3    H224173   6.022   3.203   2.107  2.0467 -2.0098  1.2904
  920TIP3   OH224174   4.672   6.759  12.622  0.7764  0.0144 -0.3266
  920TIP3    H124175   4.670   6.817  12.698 -1.5703 -0.5370  0.0530
  920TIP3    H224176   4.764   6.731  12.616  1.9367  3.5014 -0.3503
  921TIP3   OH224177   4.283   0.203   2.275 -0.6227  0.1018  0.2013
  921TIP3    H124178   4.345   0.273   2.254  0.6601 -0.8941  0.5875
  921TIP3    H224179   4.220   0.204   2.203  0.6131  0.2665 -0.9041
  922TIP3   OH224180   1.141   5.031   3.507  0.3956 -0.1423  0.6843
  922TIP3    H124181   1.140   5.000   3.417  0.4095  1.3445  0.1625
  922TIP3    H224182   1.210   4.979   3.549 -0.4092 -1.6767  0.1622
  923TIP3   OH224183   4.322   0.203   0.149 -0.4053  0.1862  0.0416
  923TIP3    H124184   4.305   0.114   0.180  1.2640  0.0622  0.6817
  923TIP3    H224185   4.302   0.200   0.056  0.4704 -1.1175 -0.1319
  924TIP3   OH224186   3.313   4.960  13.735  0.4490  0.0623  0.2046
  924TIP3    H124187   3.327   5.054  13.726 -0.0368  0.1430  0.2614
  924TIP3    H224188   3.396   4.926  13.768  0.8918  0.3563 -0.6003
  925TIP3   OH224189   5.321   3.962   1.766  0.2614 -0.1762  0.4101
  925TIP3    H124190   5.258   4.010   1.712  0.5609 -1.9447 -1.5963
  925TIP3    H224191   5.279   3.878   1.784  0.8725 -0.2582  1.5234
  926TIP3   OH224192   3.284   1.469   4.288  0.6219  0.0208 -0.6554
  926TIP3    H124193   3.244   1.552   4.261  1.5605  0.2053 -1.4840
  926TIP3    H224194   3.302   1.481   4.381  0.3514  0.5845 -0.6691
  927TIP3   OH224195   0.006   2.641   4.473  0.0567  0.0417  0.1152
  927TIP3    H124196  -0.024   2.643   4.563 -0.5952 -1.7396 -0.0548
  927TIP3    H224197   0.063   2.564   4.468 -0.0852  0.0022 -1.0486
  928TIP3   OH224198   4.916   1.624  13.716 -0.7525  0.2653 -0.4796
  928TIP3    H124199   4.914   1.684  13.791  0.3578 -1.0479  0.6059
  928TIP3    H224200   4.849   1.659  13.657 -1.1379  1.7411  0.7835
  929TIP3   OH224201   6.055   5.187  11.595 -0.5810 -0.2122  0.2044
  929TIP3    H124202   6.088   5.105  11.630  0.9431 -0.3609 -1.5302
  929TIP3    H224203   5.961   5.184  11.611 -0.3809 -1.7799  1.1628
  930TIP3   OH224204   6.240   1.996  14.800 -0.1900  0.4060 -0.3558
  930TIP3    H124205   6.151   1.964  14.816  0.7881 -1.1542  2.4240
  930TIP3    H224206   6.234   2.090  14.817 -1.0433  0.0913  1.2670
  931TIP3   OH224207   3.150   0.326  13.021 -0.2187 -0.1483 -0.3843
  931TIP3    H124208   3.217   0.376  13.067 -0.8426  1.9909 -1.7427
  931TIP3    H224209   3.088   0.300  13.090  1.0107 -0.5689  0.5903
  932TIP3   OH224210   1.662   1.422   0.477 -0.3112  0.8215 -0.9123
  932TIP3    H124211   1.586   1.385   0.522  0.6946 -1.4202 -0.9709
  932TIP3    H224212   1.710   1.469   0.545 -0.9842  1.0356 -0.5754
  933TIP3   OH224213   2.227   6.742  16.344  0.0616  0.6700 -0.4182
  933TIP3    H124214   2.218   6.836  16.360  1.1752  0.7638 -0.2701
  933TIP3    H224215   2.155   6.721  16.285 -1.8605  1.0528  1.7157
  934TIP3   OH224216   3.590   1.767   3.458 -0.0950 -0.0365 -0.4368
  934TIP3    H124217   3.598   1.677   3.426 -1.3532 -0.8426  1.3938
  934TIP3    H224218   3.501   1.792   3.436 -0.3726  0.0568  0.7896
  935TIP3   OH224219   4.187   3.646  12.518  1.0090 -0.6283  0.4714
  935TIP3    H124220   4.141   3.568  12.551  2.1036 -0.0124  3.6028
  935TIP3    H224221   4.246   3.670  12.589  1.8307  2.1499 -1.1107
  936TIP3   OH224222   2.400   2.800   4.046  0.2087  0.0319 -0.6812
  936TIP3    H124223   2.347   2.774   4.121  1.0033  0.0133 -0.1097
  936TIP3    H224224   2.366   2.749   3.973  0.7479 -1.4875  0.1063
  937TIP3   OH224225   5.238   2.796   0.421 -0.3081  0.0228 -0.1443
  937TIP3    H124226   5.248   2.780   0.515 -0.7878 -0.1295 -0.1191
  937TIP3    H224227   5.157   2.751   0.398 -1.2748  1.7739 -0.2190
  938TIP3   OH224228   5.335   3.673  12.111 -0.2954 -0.0795  0.3601
  938TIP3    H124229   5.408   3.615  12.133 -1.7459 -2.0042  0.2448
  938TIP3    H224230   5.269   3.615  12.073 -2.4310  1.3915  1.7192
  939TIP3   OH224231   2.747   1.778  11.716 -0.2656 -0.2624  0.0521
  939TIP3    H124232   2.746   1.684  11.694 -0.3523 -0.4683  0.9395
  939TIP3    H224233   2.664   1.811  11.681 -0.3494 -0.5702 -0.0438
  940TIP3   OH224234   0.493   0.189  16.223  0.0394 -0.6066 -0.0308
  940TIP3    H124235   0.430   0.175  16.294  0.7051 -1.3896  0.4111
  940TIP3    H224236   0.551   0.257  16.256  0.1308 -0.7133  0.0262
  941TIP3   OH224237   1.817   0.096  11.086 -0.1624 -0.1495 -0.3000
  941TIP3    H124238   1.847   0.067  11.000 -1.2001 -0.4187 -0.5854
  941TIP3    H224239   1.813   0.016  11.138 -1.7281 -0.3354 -0.6870
  942TIP3   OH224240   0.780   1.643   4.310 -0.3144 -0.1235  0.4847
  942TIP3    H124241   0.783   1.564   4.255  0.1690 -0.0087  0.3484
  942TIP3    H224242   0.846   1.629   4.377 -0.2217  0.1684  0.4565
  943TIP3   OH224243   3.052   5.603   2.117  0.1071 -0.4235  0.6014
  943TIP3    H124244   3.080   5.685   2.076 -3.0654  0.2751 -0.2888
  943TIP3    H224245   3.125   5.543   2.103  1.6948  1.6897 -0.4460
  944TIP3   OH224246   0.254   3.450  15.839  0.2831 -0.1261 -0.7138
  944TIP3    H124247   0.334   3.501  15.831  0.6502 -0.1937  2.0982
  944TIP3    H224248   0.272   3.371  15.788  1.6178  0.3196 -0.9680
  945TIP3   OH224249   6.523   0.627  14.020  0.0609 -0.7189 -0.2002
  945TIP3    H124250   6.525   0.565  13.946  0.1161 -1.8829  0.7622
  945TIP3    H224251   6.517   0.571  14.097  0.7807  0.4678  0.7207
  946TIP3   OH224252   5.292   6.495  13.893  0.3298 -0.2137  0.0873
  946TIP3    H124253   5.263   6.500  13.802  1.2010  0.7260 -0.1500
  946TIP3    H224254   5.232   6.552  13.941  0.2510 -0.2316  0.0086
  947TIP3   OH224255   3.605   3.438   0.756  0.1615  0.0390 -0.6834
  947TIP3    H124256   3.699   3.419   0.757 -0.0737 -1.1180  0.6191
  947TIP3    H224257   3.592   3.498   0.829 -0.1317  0.0747 -0.7674
  948TIP3   OH224258   4.182   0.191  11.551 -0.3378  0.4940 -0.1656
  948TIP3    H124259   4.244   0.174  11.480  0.0236 -1.0424  0.5133
  948TIP3    H224260   4.230   0.250  11.610  0.5396 -0.7672  0.4096
  949TIP3   OH224261   4.206   2.460   0.481 -0.3751  0.6834 -0.0702
  949TIP3    H124262   4.111   2.472   0.482 -0.2615  1.5631  0.8116
  949TIP3    H224263   4.222   2.389   0.543 -0.6552 -1.1264 -2.0132
  950TIP3   OH224264   3.018   4.248  13.839  0.0741  0.1054 -0.0222
  950TIP3    H124265   3.035   4.173  13.782  0.1260  0.7542 -0.8747
  950TIP3    H224266   3.104   4.289  13.851  0.0557 -0.0041  0.4904
  951TIP3   OH224267   5.138   5.855  12.038 -0.6602 -0.0507 -0.0507
  951TIP3    H124268   5.048   5.888  12.035 -0.9958 -0.8474  1.0909
  951TIP3    H224269   5.142   5.804  12.118 -0.0078 -2.3760 -1.5113
  952TIP3   OH224270   1.444   4.789   4.492 -0.5995  0.1080 -0.2663
  952TIP3    H124271   1.429   4.695   4.483  0.8194 -0.0801 -0.8073
  952TIP3    H224272   1.534   4.796   4.523 -0.2985  1.3208 -1.3664
  953TIP3   OH224273   5.014   2.605  13.319  0.3793  0.1794 -0.2206
  953TIP3    H124274   5.009   2.618  13.225  0.1409  1.4943 -0.0394
  953TIP3    H224275   4.927   2.631  13.352  0.9411  1.1889  0.5078
  954TIP3   OH224276   5.962   1.333  15.357  0.5428 -0.0119 -0.3850
  954TIP3    H124277   5.925   1.404  15.408  0.9301 -0.3654  0.3970
  954TIP3    H224278   5.887   1.293  15.313  0.4921  1.7878 -2.0108
  955TIP3   OH224279   5.387   6.514   0.300 -0.2002  0.3928  0.3668
  955TIP3    H124280   5.408   6.599   0.339 -1.9031  0.3794  1.3667
  955TIP3    H224281   5.293   6.520   0.280  0.1609 -0.4288 -1.6776
  956TIP3   OH224282   4.582   0.957  11.200  0.2538  0.1389 -0.4797
  956TIP3    H124283   4.551   1.018  11.133 -1.0636 -1.2956 -1.2013
  956TIP3    H224284   4.509   0.897  11.214  1.0066 -0.4088  1.2725
  957TIP3   OH224285   3.004   6.645   1.288  0.0337  0.3778  0.0090
  957TIP3    H124286   2.969   6.734   1.284  0.9870  0.8327  1.3627
  957TIP3    H224287   2.948   6.600   1.352  0.4366  0.4149  0.3868
  958TIP3   OH224288   5.184   3.703   5.185 -0.4528 -0.1039 -0.4130
  958TIP3    H124289   5.200   3.747   5.269 -0.1565  0.3487 -0.7050
  958TIP3    H224290   5.264   3.652   5.170  1.0150  2.5756 -2.1356
  959TIP3   OH224291   3.160   5.180  12.075  0.0201 -0.1258 -0.0788
  959TIP3    H124292   3.098   5.250  12.055  0.4275  0.0860 -0.6296
  959TIP3    H224293   3.219   5.178  11.999  0.4917 -0.5345  0.2944
  960TIP3   OH224294   3.214   5.006  13.339  0.2130 -0.2373  0.3399
  960TIP3    H124295   3.277   5.075  13.363 -0.5875  0.2939  0.9750
  960TIP3    H224296   3.246   4.928  13.383 -0.0366  0.2375  1.4015
  961TIP3   OH224297   2.890   5.116  16.509 -0.0817 -0.3001  0.4141
  961TIP3    H124298   2.821   5.051  16.504 -0.2939 -0.1515  1.3549
  961TIP3    H224299   2.872   5.176  16.436 -0.0346 -1.1334 -0.2849
  962TIP3   OH224300   1.300   2.581   2.810  0.6908 -0.7281  0.1892
  962TIP3    H124301   1.344   2.574   2.726 -0.8812  0.4654 -0.7641
  962TIP3    H224302   1.243   2.504   2.814  0.4444 -0.5613 -0.0507
  963TIP3   OH224303   0.618   5.881   6.258 -0.3731  0.2305 -0.4150
  963TIP3    H124304   0.618   5.835   6.342  2.1069  0.7645 -0.0821
  963TIP3    H224305   0.537   5.933   6.259 -1.5895 -1.6099  0.5706
  964TIP3   OH224306   6.595   0.788  11.988  0.4201 -0.3284  0.3565
  964TIP3    H124307   6.509   0.748  11.994  0.1796  0.1029 -0.2226
  964TIP3    H224308   6.609   0.804  11.895  1.1414 -0.4365  0.4412
  965TIP3   OH224309   6.638   5.674  11.855  0.0464 -0.2260 -0.2667
  965TIP3    H124310   6.544   5.658  11.866  0.0463 -0.6023 -0.8029
  965TIP3    H224311   6.662   5.623  11.778  1.2679 -2.3083  1.4539
  966TIP3   OH224312   0.807   6.524  15.164 -0.1564 -0.1547 -0.0361
  966TIP3    H124313   0.775   6.565  15.244  0.0485  0.9728 -0.5296
  966TIP3    H224314   0.811   6.595  15.100 -0.9319 -1.1785 -1.2341
  967TIP3   OH224315   2.269   0.047  15.479 -0.1820  0.3586 -0.2141
  967TIP3    H124316   2.289  -0.016  15.548  0.1208 -1.9748 -2.3631
  967TIP3    H224317   2.327   0.022  15.407  0.2054  3.3657 -0.9812
  968TIP3   OH224318   2.027   6.756  16.147 -0.2711 -0.4843 -0.0480
  968TIP3    H124319   1.985   6.838  16.171  0.7335  0.6906 -2.1471
  968TIP3    H224320   1.955   6.698  16.122 -0.8741  0.2212  0.0481
  969TIP3   OH224321   5.630   1.615  11.285 -0.2509  0.5293  0.6635
  969TIP3    H124322   5.706   1.630  11.341  0.4581 -2.3013  0.5423
  969TIP3    H224323   5.560   1.665  11.325  0.9298  0.7354  2.5283
  970TIP3   OH224324   2.299   1.372  12.663 -1.0230  0.8459  0.3812
  970TIP3    H124325   2.360   1.299  12.651  1.9271  3.0875  0.8887
  970TIP3    H224326   2.240   1.367  12.589 -0.2115 -1.4357 -0.1492
  971TIP3   OH224327   2.760   1.268   1.984 -0.5987  0.3288 -0.0549
  971TIP3    H124328   2.719   1.285   1.899  0.3252  1.0404 -0.3704
  971TIP3    H224329   2.783   1.355   2.017 -1.0753  0.0634  0.9845
  972TIP3   OH224330   4.414   0.390  14.236 -0.0375 -0.2687  0.4133
  972TIP3    H124331   4.412   0.469  14.182 -0.4342  0.0777  0.9276
  972TIP3    H224332   4.437   0.422  14.323 -0.7869 -0.6487  0.7482
  973TIP3   OH224333   2.965   1.003  10.858  0.0080  0.0412 -0.5581
  973TIP3    H124334   2.933   1.010  10.948  0.0712  1.5060 -0.6373
  973TIP3    H224335   3.001   0.914  10.852 -0.3074 -0.1822  0.7580
  974TIP3   OH224336   4.842   6.118   0.047  0.3844 -0.0436 -0.4084
  974TIP3    H124337   4.891   6.164   0.114 -0.9225  1.4852 -0.4707
  974TIP3    H224338   4.904   6.054   0.011  1.8001  0.7290  0.6183
  975TIP3   OH224339   4.686   6.596  16.962 -0.0917  0.0746 -0.3992
  975TIP3    H124340   4.719   6.513  16.996  1.0685  0.6500 -0.1145
  975TIP3    H224341   4.603   6.610  17.009  0.4329 -0.1999  0.6103
  976TIP3   OH224342   1.677   5.114  16.308  0.2102  0.1299 -0.8676
  976TIP3    H124343   1.594   5.161  16.315 -0.8817 -1.8630 -0.0926
  976TIP3    H224344   1.696   5.115  16.214  0.2461  2.1162 -0.8809
  977TIP3   OH224345   2.588   6.081   1.462 -0.1442 -0.1185 -0.9420
  977TIP3    H124346   2.601   6.063   1.555 -1.6419 -0.8374 -0.8511
  977TIP3    H224347   2.663   6.042   1.418  0.8257  0.6540 -0.0029
  978TIP3   OH224348   5.511   3.696  13.289 -0.1776 -0.2495  0.9104
  978TIP3    H124349   5.577   3.629  13.271 -0.5495 -0.6680  1.0785
  978TIP3    H224350   5.430   3.647  13.301 -0.0708  0.0571  3.1469
  979TIP3   OH224351   0.921   2.510   6.189 -0.2194  0.1617  0.2173
  979TIP3    H124352   0.844   2.539   6.140  0.0635 -0.3170 -0.5166
  979TIP3    H224353   0.978   2.471   6.123  1.5649  2.3351  0.4027
  980TIP3   OH224354   1.354   6.513  13.312 -0.5550  0.7934  0.1529
  980TIP3    H124355   1.416   6.506  13.240 -0.2535  0.4457  0.4413
  980TIP3    H224356   1.320   6.602  13.307  2.4010  2.1047  1.9494
  981TIP3   OH224357   1.507   5.526   5.347  0.1551  0.6157  0.1467
  981TIP3    H124358   1.430   5.469   5.337  1.3274 -0.7684 -1.1908
  981TIP3    H224359   1.488   5.578   5.425 -1.2137 -1.1983  1.0707
  982TIP3   OH224360   2.567   4.977   4.736  0.4905 -0.2851  0.4353
  982TIP3    H124361   2.546   5.059   4.781  0.3728 -1.5233  2.6879
  982TIP3    H224362   2.562   5.000   4.643 -2.1217  1.6185  0.9749
  983TIP3   OH224363   2.205   2.919  13.733 -0.3189  0.0399 -0.4902
  983TIP3    H124364   2.194   3.009  13.765 -0.8806 -0.6830  1.4324
  983TIP3    H224365   2.290   2.892  13.766 -0.5997 -0.4742 -0.1666
  984TIP3   OH224366   4.198   3.594  14.848  0.1812  0.0703  0.7109
  984TIP3    H124367   4.248   3.671  14.875 -1.2109  0.9756  0.7418
  984TIP3    H224368   4.170   3.614  14.759 -1.0829  0.0614  1.1002
  985TIP3   OH224369   3.874   4.304   1.268 -0.6290 -0.5659 -0.1125
  985TIP3    H124370   3.968   4.312   1.248 -0.6983  0.7172  0.0649
  985TIP3    H224371   3.830   4.340   1.191 -1.0222 -2.6461 -0.9017
  986TIP3   OH224372   0.913   1.554  13.699  0.1465  0.2433  0.6133
  986TIP3    H124373   0.884   1.476  13.745 -0.7914  0.0163 -0.3337
  986TIP3    H224374   0.974   1.522  13.632 -1.7848  0.0661 -1.1070
  987TIP3   OH224375   6.488   3.316   1.017  0.4925 -0.1713 -0.0651
  987TIP3    H124376   6.469   3.272   1.100  0.6764 -1.3976 -0.6473
  987TIP3    H224377   6.543   3.390   1.040 -2.0531  1.3467  1.2479
  988TIP3   OH224378   3.422   2.871  12.782  0.0263  0.1192 -0.2811
  988TIP3    H124379   3.345   2.821  12.754 -0.0972 -0.9907  1.9512
  988TIP3    H224380   3.414   2.955  12.736 -1.2250 -0.8764 -1.9347
  989TIP3   OH224381   5.014   3.764   5.751 -0.4488 -0.4485  0.5239
  989TIP3    H124382   5.034   3.674   5.778 -1.0402 -0.2635  1.6155
  989TIP3    H224383   4.929   3.783   5.791 -2.2673 -0.7893 -2.9800
  990TIP3   OH224384   5.879   2.312   3.674  0.3129 -0.9053 -0.4023
  990TIP3    H124385   5.830   2.273   3.746  1.6927 -0.5030  0.7688
  990TIP3    H224386   5.825   2.386   3.645  0.1178 -0.5987  0.7282
  991TIP3   OH224387   5.115   3.984  12.858  0.4462  0.1762 -0.0613
  991TIP3    H124388   5.176   3.910  12.861  0.6806  0.3962  1.5704
  991TIP3    H224389   5.088   3.990  12.767  2.8711  0.0743 -0.8261
  992TIP3   OH224390   5.455   1.097  15.350 -0.2128 -0.2278 -0.5333
  992TIP3    H124391   5.365   1.103  15.382 -0.5962 -1.9680 -1.2332
  992TIP3    H224392   5.496   1.179  15.378 -1.9886  0.5479 -0.1442
  993TIP3   OH224393   5.562   6.501   2.520  0.1439  0.3686 -0.6681
  993TIP3    H124394   5.493   6.529   2.579  0.1484 -1.1999  0.1232
  993TIP3    H224395   5.627   6.459   2.577  0.5514 -0.3920 -1.6668
  994TIP3   OH224396   5.516   6.673  11.172  0.2115  0.2104  0.6585
  994TIP3    H124397   5.458   6.599  11.156 -0.4874  1.0155 -0.5487
  994TIP3    H224398   5.465   6.733  11.227 -0.1737  0.9967 -0.5447
  995TIP3   OH224399   2.691   2.756  12.353 -0.1930  0.1073 -0.3597
  995TIP3    H124400   2.617   2.697  12.343  0.5207 -0.6505 -1.2565
  995TIP3    H224401   2.768   2.699  12.356  0.6202  1.0164 -2.4315
  996TIP3   OH224402   6.609   6.325   1.608 -0.1617 -0.3222  0.6494
  996TIP3    H124403   6.521   6.336   1.645 -0.5305 -0.6392 -0.1148
  996TIP3    H224404   6.659   6.400   1.641 -0.0550 -1.3772  3.0026
  997TIP3   OH224405   6.249   2.111  14.195 -0.1051  0.1909  0.8709
  997TIP3    H124406   6.161   2.098  14.230 -0.5347  0.4398 -0.1007
  997TIP3    H224407   6.242   2.090  14.102  0.8647  0.2212  0.7792
  998TIP3   OH224408   1.633   2.379   1.202  0.0441  0.6314  0.1476
  998TIP3    H124409   1.650   2.341   1.117 -2.4143  2.8565 -1.4251
  998TIP3    H224410   1.707   2.437   1.218  0.8450 -0.3049 -0.1429
  999TIP3   OH224411   3.413   0.151   3.832 -0.5392  0.1204  0.2485
  999TIP3    H124412   3.352   0.214   3.870  1.3323  1.0220  1.8863
  999TIP3    H224413   3.415   0.078   3.894 -2.0284 -1.1766 -1.1970
 1000TIP3   OH224414   3.682   3.263  16.410  0.5551 -0.3768  0.0508
 1000TIP3    H124415   3.735   3.338  16.439  2.4930 -1.5366 -0.4257
 1000TIP3    H224416   3.647   3.226  16.490  1.3453 -0.2146  0.4826
 1001TIP3   OH224417   3.425   0.657  11.749  0.4626 -0.1198  0.1669
 1001TIP3    H124418   3.430   0.667  11.654  2.2587 -1.3948  0.0931
 1001TIP3    H224419   3.454   0.741  11.783  0.0076  0.2757 -0.4100
 1002TIP3   OH224420   6.278   4.522   3.274 -0.1690 -0.3104 -0.2463
 1002TIP3    H124421   6.252   4.495   3.362  0.9503  1.1932  0.5703
 1002TIP3    H224422   6.318   4.608   3.286  0.3853 -0.2744 -2.1706
 1003TIP3   OH224423   2.418   2.439   1.411 -0.3137  0.2174 -0.1568
 1003TIP3    H124424   2.353   2.384   1.369 -1.7821  0.0483  2.2471
 1003TIP3    H224425   2.469   2.379   1.466 -1.0243  0.9969  1.4037
 1004TIP3   OH224426   0.072   4.104   0.254 -0.1729 -0.1387 -0.1911
 1004TIP3    H124427   0.100   4.013   0.260 -0.2824 -0.1679 -0.1098
 1004TIP3    H224428   0.049   4.128   0.344 -1.6883 -0.5339 -0.4624
 1005TIP3   OH224429   2.931   3.463   0.676 -0.0316  0.5159  0.8294
 1005TIP3    H124430   2.938   3.558   0.687  0.6503  0.7550 -1.4264
 1005TIP3    H224431   2.844   3.449   0.641  0.5168  0.4859 -0.5347
 1006TIP3   OH224432   2.674   4.383   0.636 -0.2427  0.0177 -0.2846
 1006TIP3    H124433   2.699   4.410   0.547 -0.0479 -0.2308 -0.3064
 1006TIP3    H224434   2.613   4.310   0.622  1.2633 -1.2816 -0.1913
 1007TIP3   OH224435   3.712   2.724  11.059  0.6624  0.5124  0.0052
 1007TIP3    H124436   3.676   2.772  11.133 -1.7521 -0.1180 -0.7089
 1007TIP3    H224437   3.670   2.638  11.064  2.5382 -0.4555 -0.5385
 1008TIP3   OH224438   1.852   2.845  12.433  0.1272 -0.4496 -0.8862
 1008TIP3    H124439   1.785   2.779  12.413 -2.4571  1.6890  0.4906
 1008TIP3    H224440   1.857   2.898  12.354 -0.6443  0.0774 -0.5872
 1009TIP3   OH224441   1.843   3.267   4.111  0.0310 -0.0920  0.2993
 1009TIP3    H124442   1.835   3.251   4.205 -0.4794 -1.1561  0.0852
 1009TIP3    H224443   1.838   3.180   4.072  1.7643  0.1959 -0.6250
 1010TIP3   OH224444   4.692   2.235  15.185  0.2965  0.6662 -0.0364
 1010TIP3    H124445   4.731   2.194  15.107 -0.8957  1.2481 -0.9447
 1010TIP3    H224446   4.687   2.164  15.249 -0.1915 -0.2147 -1.0318
 1011TIP3   OH224447   1.836   2.861   2.563 -0.1126 -0.7261 -0.0183
 1011TIP3    H124448   1.753   2.893   2.597  0.7774  1.1898  0.4189
 1011TIP3    H224449   1.860   2.924   2.495  1.6803 -0.4156  0.8576
 1012TIP3   OH224450   5.753   0.661  16.202 -0.2252 -0.1678 -0.0849
 1012TIP3    H124451   5.702   0.683  16.280 -0.9074  1.5651 -0.9974
 1012TIP3    H224452   5.769   0.567  16.210 -0.6731 -0.1051  1.9127
 1013TIP3   OH224453   4.909   2.996   5.699 -0.3664 -0.7567 -0.3719
 1013TIP3    H124454   5.000   2.967   5.705 -0.8157 -2.7671 -2.5075
 1013TIP3    H224455   4.860   2.930   5.747 -0.8847 -0.6845 -0.8010
 1014TIP3   OH224456   1.942   5.741   5.506 -0.1505  0.4750 -0.4269
 1014TIP3    H124457   1.973   5.651   5.508 -1.0480  0.1807  0.6249
 1014TIP3    H224458   1.990   5.785   5.577  1.8375  1.3703 -2.2503
 1015TIP3   OH224459   0.071   4.956   0.492 -0.0440 -0.0480  0.1268
 1015TIP3    H124460   0.152   4.906   0.483 -0.0333  0.0309 -0.2236
 1015TIP3    H224461   0.088   5.019   0.563  0.4479  0.4555 -0.4367
 1016TIP3   OH224462   5.735   0.997   3.656 -0.2270 -0.1420 -0.3888
 1016TIP3    H124463   5.724   1.036   3.569 -0.8353  0.0330 -0.2373
 1016TIP3    H224464   5.680   1.051   3.713 -0.7116 -0.9420 -0.0901
 1017TIP3   OH224465   2.829   0.263   5.987  0.5300 -0.5386 -0.1320
 1017TIP3    H124466   2.855   0.329   6.052  1.5450 -0.3112 -0.7510
 1017TIP3    H224467   2.764   0.308   5.933  1.0896 -0.0993 -0.4452
 1018TIP3   OH224468   1.228   1.911   2.535  0.2898  0.3104  0.0074
 1018TIP3    H124469   1.318   1.903   2.569 -0.3548  1.4879  2.0528
 1018TIP3    H224470   1.175   1.861   2.597 -0.4377 -0.6865 -1.4038
 1019TIP3   OH224471   6.148   0.629   2.491 -0.4799  1.0414 -0.0282
 1019TIP3    H124472   6.227   0.667   2.451 -0.0580 -0.4351 -0.6422
 1019TIP3    H224473   6.106   0.581   2.420 -0.8415  0.1172  0.8048
 1020TIP3   OH224474   4.506   0.665   0.607  0.1187 -0.1043 -0.2283
 1020TIP3    H124475   4.433   0.680   0.548 -0.3900 -2.6443 -0.3154
 1020TIP3    H224476   4.533   0.753   0.636 -2.0922  0.9271 -1.2198
 1021TIP3   OH224477   5.628   4.507   4.435  0.2861  0.1938 -0.1871
 1021TIP3    H124478   5.553   4.448   4.431 -0.5736  1.3131 -0.8663
 1021TIP3    H224479   5.701   4.452   4.464 -1.0863 -0.6408  1.8120
 1022TIP3   OH224480   4.971   6.359  13.703 -0.4374 -0.5393  0.1439
 1022TIP3    H124481   4.916   6.379  13.628 -0.9128 -0.3558  0.5360
 1022TIP3    H224482   4.960   6.434  13.761 -0.7106 -1.0488  0.7597
 1023TIP3   OH224483   3.020   1.907   3.520  0.3514 -0.3267  0.0255
 1023TIP3    H124484   3.111   1.919   3.546 -0.4054  1.6179  1.8835
 1023TIP3    H224485   2.987   1.996   3.506 -2.2276 -0.7649  2.8613
 1024TIP3   OH224486   5.028   1.824  16.294 -0.3475  0.4787 -0.1865
 1024TIP3    H124487   5.086   1.883  16.342  0.4432  1.1795 -1.9288
 1024TIP3    H224488   5.074   1.809  16.211 -1.8221 -0.4389 -0.8480
 1025TIP3   OH224489   5.248   1.814   3.961  0.2420 -0.2853  0.4009
 1025TIP3    H124490   5.164   1.788   3.998  0.3859 -1.0503  0.1910
 1025TIP3    H224491   5.227   1.848   3.874  0.2090 -0.9516  0.1488
 1026TIP3   OH224492   1.459   1.951   3.635 -0.2779  0.0891 -0.4671
 1026TIP3    H124493   1.399   1.922   3.566  1.1081  0.2863 -1.7810
 1026TIP3    H224494   1.467   1.875   3.692 -1.4425 -0.0780 -0.5125
 1027TIP3   OH224495   3.248   0.728   3.981 -0.4150 -0.4389  0.1509
 1027TIP3    H124496   3.236   0.696   3.892 -0.8588 -0.1158  0.0950
 1027TIP3    H224497   3.308   0.664   4.021  3.3079  1.7552 -1.6687
 1028TIP3   OH224498   6.154   5.365   0.661  0.2307 -0.1844 -0.7834
 1028TIP3    H124499   6.159   5.270   0.654  0.2083 -0.3001  0.6488
 1028TIP3    H224500   6.182   5.384   0.751  1.7211  1.2694 -1.5290
 1029TIP3   OH224501   0.710   5.820  11.982 -0.2158 -0.3433 -0.1597
 1029TIP3    H124502   0.765   5.742  11.979 -0.8480 -0.8009  0.0687
 1029TIP3    H224503   0.653   5.811  11.905 -0.1618 -0.0123 -0.2377
 1030TIP3   OH224504   0.673   3.459   1.897 -0.0234 -0.1584  0.2612
 1030TIP3    H124505   0.627   3.378   1.876  0.6493 -0.3784 -0.3892
 1030TIP3    H224506   0.661   3.469   1.992 -1.7630  0.0221  0.0384
 1031TIP3   OH224507   1.823   3.070  11.297  0.2849 -0.2263  0.3310
 1031TIP3    H124508   1.887   3.140  11.285 -0.3346  0.2269 -0.3138
 1031TIP3    H224509   1.873   2.989  11.282  1.2697  0.0087  2.2291
 1032TIP3   OH224510   2.855   2.627   0.701 -0.6161 -0.0751 -0.1250
 1032TIP3    H124511   2.929   2.678   0.732  0.5562 -0.1495 -2.6732
 1032TIP3    H224512   2.783   2.691   0.695 -0.1626  0.4716  0.2085
 1033TIP3   OH224513   1.147   3.278  16.850 -0.0772  0.1993  0.1016
 1033TIP3    H124514   1.126   3.195  16.892 -2.2280 -0.1886 -1.6198
 1033TIP3    H224515   1.072   3.335  16.868  1.1719  1.6406  0.8927
 1034TIP3   OH224516   2.079   2.706   2.967  0.2300 -0.1895 -0.1779
 1034TIP3    H124517   1.987   2.730   2.967  0.3801  0.4034 -1.0035
 1034TIP3    H224518   2.083   2.624   2.917  0.2272  0.1065 -0.6671
 1035TIP3   OH224519   3.112   6.217  13.253  0.1029  0.0494 -0.0828
 1035TIP3    H124520   3.160   6.135  13.246  0.0756 -0.0458  0.8263
 1035TIP3    H224521   3.070   6.228  13.167  2.7813  0.7891 -1.3798
 1036TIP3   OH224522   2.980   1.283   5.578  0.0795  0.2663 -0.5080
 1036TIP3    H124523   3.010   1.293   5.488 -0.5769 -1.7776 -0.9981
 1036TIP3    H224524   2.917   1.354   5.591  1.0548  1.2808 -1.2649
 1037TIP3   OH224525   2.653   0.470   3.009  0.5332  0.1687  1.0658
 1037TIP3    H124526   2.638   0.514   2.925  1.3267 -0.7503  0.4348
 1037TIP3    H224527   2.734   0.420   2.996  1.2023  0.8059  2.7008
 1038TIP3   OH224528   3.537   5.486   0.785  0.1108  0.9016 -0.0333
 1038TIP3    H124529   3.527   5.563   0.729 -0.1722  1.4166  0.7272
 1038TIP3    H224530   3.448   5.463   0.811  0.3328  1.2915  1.0666
 1039TIP3   OH224531   4.712   4.684   4.620 -0.2984  0.4409  0.1141
 1039TIP3    H124532   4.723   4.761   4.674 -1.2723 -1.2252  2.7733
 1039TIP3    H224533   4.621   4.657   4.635 -0.3302 -0.5469 -1.6967
 1040TIP3   OH224534   4.265   0.073   5.356 -0.2205  0.1656  0.0048
 1040TIP3    H124535   4.296   0.005   5.416 -0.3182 -1.3759 -1.6200
 1040TIP3    H224536   4.277   0.034   5.269 -0.8631  2.0107 -0.9311
 1041TIP3   OH224537   0.311   5.684  11.210  0.3454  0.0383  0.5041
 1041TIP3    H124538   0.228   5.648  11.180 -0.6402  1.9225  0.8544
 1041TIP3    H224539   0.348   5.727  11.133  0.2940  0.4461  0.7053
 1042TIP3   OH224540   5.073   4.231  14.726  0.2102 -0.3234 -0.1544
 1042TIP3    H124541   5.100   4.241  14.818  0.7198  1.3956 -0.4737
 1042TIP3    H224542   5.119   4.301  14.680 -2.0920  0.4857 -1.2971
 1043TIP3   OH224543   3.515   1.280  17.001  0.9170 -0.6225 -0.0054
 1043TIP3    H124544   3.515   1.374  16.982  1.0072 -0.9078 -1.4565
 1043TIP3    H224545   3.455   1.271  17.075 -1.9041  0.1657 -2.1239
 1044TIP3   OH224546   1.462   6.365   1.307 -0.2308 -0.1956  0.7517
 1044TIP3    H124547   1.523   6.298   1.275 -0.7300  0.3085 -1.3504
 1044TIP3    H224548   1.400   6.317   1.362 -0.9600 -1.6050 -1.2265
 1045TIP3   OH224549   1.397   1.263  15.522  0.0257  0.3754  0.3693
 1045TIP3    H124550   1.361   1.231  15.604  3.4587 -0.3762  1.6630
 1045TIP3    H224551   1.418   1.183  15.472 -0.7859  0.8038 -0.6705
 1046TIP3   OH224552   4.462   6.518   2.241  0.8449  0.3767  0.0944
 1046TIP3    H124553   4.551   6.552   2.252  0.8601  1.8523 -3.8186
 1046TIP3    H224554   4.406   6.594   2.254  0.2845 -0.1195  0.5817
 1047TIP3   OH224555   4.530   4.765  15.084 -0.1792 -0.7105 -0.0492
 1047TIP3    H124556   4.594   4.742  15.017  0.5313 -0.3771  0.5028
 1047TIP3    H224557   4.580   4.813  15.150 -0.9835 -0.5102  0.4312
 1048TIP3   OH224558   5.789   1.031  11.592  0.2043  0.0222 -0.2120
 1048TIP3    H124559   5.734   0.966  11.636 -0.8261  0.9672 -0.0876
 1048TIP3    H224560   5.728   1.082  11.538  0.7903  1.7758  0.7627
 1049TIP3   OH224561   4.385   1.523   4.682 -0.9462  0.2824  0.1673
 1049TIP3    H124562   4.293   1.526   4.655 -0.7202  3.2178 -0.3999
 1049TIP3    H224563   4.434   1.534   4.601 -0.0830 -1.0139  0.5041
 1050TIP3   OH224564   6.631   0.119  16.858 -0.6323  0.4722 -0.0529
 1050TIP3    H124565   6.682   0.059  16.912  0.7390  0.3481 -1.4413
 1050TIP3    H224566   6.696   0.162  16.803 -2.0898 -0.0411 -2.2190
 1051TIP3   OH224567   2.501   5.244  16.773 -0.3116 -0.0625 -0.4696
 1051TIP3    H124568   2.488   5.178  16.705  0.2673  0.3633 -1.0032
 1051TIP3    H224569   2.596   5.260  16.773  0.1547 -2.3110  2.5622
 1052TIP3   OH224570   0.270   0.762  14.260  0.1646  0.0952 -0.2668
 1052TIP3    H124571   0.306   0.748  14.347 -0.4669  2.6508  0.4712
 1052TIP3    H224572   0.198   0.699  14.253 -1.0789  1.2198  1.8813
 1053TIP3   OH224573   3.566   5.437  11.583  0.1447  0.4219 -0.4308
 1053TIP3    H124574   3.492   5.404  11.634  0.0234 -0.0171 -0.8833
 1053TIP3    H224575   3.587   5.365  11.523  0.1558  1.0150 -1.1392
 1054TIP3   OH224576   6.384   1.370  11.565 -0.0136 -0.2430 -0.6107
 1054TIP3    H124577   6.455   1.314  11.597 -0.9310  0.0174  2.0160
 1054TIP3    H224578   6.403   1.456  11.602 -1.4205 -0.0614 -0.2850
 1055TIP3   OH224579   3.818   3.404   4.684  0.0582  0.2269  0.3703
 1055TIP3    H124580   3.773   3.488   4.696  0.4844  0.6356 -0.9137
 1055TIP3    H224581   3.797   3.355   4.764 -2.3877  0.5483 -0.0142
 1056TIP3   OH224582   0.604   4.781   2.790 -0.2092 -0.4365 -0.1769
 1056TIP3    H124583   0.686   4.754   2.748  0.6200 -0.4461  1.4200
 1056TIP3    H224584   0.549   4.703   2.788  1.6467 -1.9447  3.1222
 1057TIP3   OH224585   0.063   1.285  15.541  0.1163 -0.7495 -0.2765
 1057TIP3    H124586  -0.023   1.268  15.503  0.3193  0.6137 -1.3894
 1057TIP3    H224587   0.089   1.370  15.504  1.2490 -0.4088  1.2766
 1058TIP3   OH224588   2.244   0.745   4.798 -0.5969 -0.3631  0.0112
 1058TIP3    H124589   2.270   0.693   4.723 -0.8048 -1.5241  0.7320
 1058TIP3    H224590   2.322   0.797   4.820 -0.3395 -0.4927 -0.6089
 1059TIP3   OH224591   2.020   1.884   3.610  0.4975  0.4525 -0.1795
 1059TIP3    H124592   1.959   1.956   3.625 -1.2450 -0.8322 -0.8443
 1059TIP3    H224593   2.053   1.862   3.697 -3.2018 -1.5313  0.8055
 1060TIP3   OH224594   4.488   3.864   1.774  0.3996 -0.3028 -0.0365
 1060TIP3    H124595   4.537   3.945   1.783 -0.8425  0.3758  0.7345
 1060TIP3    H224596   4.422   3.883   1.706 -1.2520  0.0274  1.6193
 1061TIP3   OH224597   2.992   0.655   4.858  0.9253  0.0352  0.3773
 1061TIP3    H124598   3.072   0.670   4.909  1.2590  1.6601 -0.6189
 1061TIP3    H224599   3.023   0.627   4.772  0.4308  1.0936 -0.1484
 1062TIP3   OH224600   3.682   4.832  14.695 -0.0649 -0.1353  0.0310
 1062TIP3    H124601   3.674   4.872  14.609 -1.6852 -1.1006 -0.2795
 1062TIP3    H224602   3.748   4.885  14.740 -1.3554  2.1896 -0.7533
 1063TIP3   OH224603   4.696   6.662  15.292 -0.1543 -0.1999 -0.3395
 1063TIP3    H124604   4.656   6.639  15.376  2.7729 -2.6142  0.4956
 1063TIP3    H224605   4.645   6.614  15.227 -0.6219 -0.6858  0.3779
 1064TIP3   OH224606   0.048   4.201   4.920  0.7491  0.0893  0.0256
 1064TIP3    H124607   0.128   4.193   4.869  0.3916 -3.5411 -0.0975
 1064TIP3    H224608   0.002   4.117   4.907 -1.2805  0.6381  3.0260
 1065TIP3   OH224609   5.981   4.492   0.903  0.8793  0.2055 -0.0481
 1065TIP3    H124610   6.015   4.577   0.876  1.2411 -0.0054 -0.2663
 1065TIP3    H224611   6.053   4.431   0.885  1.3822  0.1500  2.0047
 1066TIP3   OH224612   3.615   5.015  13.138 -0.4911 -0.2461 -0.0044
 1066TIP3    H124613   3.543   4.966  13.100  0.0025 -1.3838  0.5235
 1066TIP3    H224614   3.691   4.992  13.085 -0.4805  0.8821 -0.5042
 1067TIP3   OH224615   0.836   4.289   5.743 -0.5840 -0.3105  0.2283
 1067TIP3    H124616   0.869   4.263   5.829  1.4799  2.5526  0.3664
 1067TIP3    H224617   0.756   4.339   5.762  0.4479  1.2317  0.5869
 1068TIP3   OH224618   4.400   0.353   0.988  0.2718 -0.3471  0.1661
 1068TIP3    H124619   4.427   0.261   0.989  1.1342 -0.0923  0.8532
 1068TIP3    H224620   4.465   0.398   1.041 -0.3665  0.6079  0.1578
 1069TIP3   OH224621   2.486   1.382   2.200  0.0332 -0.1541 -0.7284
 1069TIP3    H124622   2.520   1.472   2.202 -3.3378  1.1996 -1.5672
 1069TIP3    H224623   2.511   1.348   2.114  0.6822  0.2440 -0.6965
 1070TIP3   OH224624   5.680   0.362  12.191  0.1187  0.4492 -0.5075
 1070TIP3    H124625   5.711   0.299  12.256 -1.9694 -2.3625 -2.0941
 1070TIP3    H224626   5.596   0.392  12.224 -0.6862 -0.5657 -1.5871
 1071TIP3   OH224627   5.245   3.604  13.311  0.7340 -0.5912 -0.4418
 1071TIP3    H124628   5.171   3.606  13.371  0.9108 -1.9412 -0.1510
 1071TIP3    H224629   5.210   3.563  13.231  0.4427  1.3941 -1.3620
 1072TIP3   OH224630   0.267   1.175  16.426 -0.0675  0.3270  0.8605
 1072TIP3    H124631   0.325   1.103  16.452  0.2660  1.0298  2.0554
 1072TIP3    H224632   0.326   1.243  16.395 -0.3630  0.3021  0.2278
 1073TIP3   OH224633   3.125   5.894  13.442  0.0351  0.2044 -1.0714
 1073TIP3    H124634   3.121   5.917  13.534 -3.3517  0.7663 -1.2989
 1073TIP3    H224635   3.095   5.803  13.438  1.9822 -0.4464 -1.4495
 1074TIP3   OH224636   3.182   2.342  16.753  0.3220 -0.5317 -0.1751
 1074TIP3    H124637   3.188   2.261  16.703  0.5948 -0.1029 -0.8448
 1074TIP3    H224638   3.128   2.400  16.699  0.4782 -0.1220  0.1038
 1075TIP3   OH224639   0.062   0.956   6.024  0.6504 -0.1049  0.7856
 1075TIP3    H124640   0.090   0.942   5.934  0.1205 -0.9232  0.7493
 1075TIP3    H224641   0.126   0.908   6.077  0.5895 -0.1515  0.8164
 1076TIP3   OH224642   3.951   0.484  16.533 -0.0075  0.3612  0.3709
 1076TIP3    H124643   3.926   0.394  16.554  0.4452  0.4564  1.3610
 1076TIP3    H224644   3.919   0.498  16.444  1.0083 -1.1793 -0.2520
 1077TIP3   OH224645   3.875   4.764  10.737  0.1931  0.2113 -0.1900
 1077TIP3    H124646   3.956   4.730  10.699  0.6002 -0.4312  1.2086
 1077TIP3    H224647   3.838   4.820  10.669  2.6586  1.8279 -0.2678
 1078TIP3   OH224648   4.711   2.187   3.608 -0.3483  0.0843 -0.5087
 1078TIP3    H124649   4.718   2.253   3.539 -2.1423  0.1471 -0.6635
 1078TIP3    H224650   4.637   2.132   3.581  0.6777 -1.5677 -0.0182
 1079TIP3   OH224651   3.101   2.339   0.251  0.2140 -0.5459  0.6715
 1079TIP3    H124652   3.151   2.273   0.204  2.5445  0.4234  1.7091
 1079TIP3    H224653   3.140   2.341   0.339 -0.5580  1.3897  1.0134
 1080TIP3   OH224654   1.534   6.173   3.206 -0.0240  0.2091  0.6263
 1080TIP3    H124655   1.466   6.227   3.247  0.3529  1.2149 -0.0578
 1080TIP3    H224656   1.591   6.236   3.162 -0.4360 -0.8337 -1.4756
 1081TIP3   OH224657   3.577   0.531   5.006 -0.1212  0.7923  0.0432
 1081TIP3    H124658   3.503   0.518   4.947  0.5041 -2.7485 -0.0467
 1081TIP3    H224659   3.649   0.558   4.949 -0.1494 -0.2927 -0.5201
 1082TIP3   OH224660   6.470   1.653  12.752 -0.5224 -0.0529 -0.2906
 1082TIP3    H124661   6.483   1.746  12.735 -1.6134  0.1692  0.0641
 1082TIP3    H224662   6.421   1.650  12.835  0.7036 -0.9769  0.4249
 1083TIP3   OH224663   6.480   5.950  11.892  0.0358 -0.0027  1.2767
 1083TIP3    H124664   6.404   5.971  11.837  1.6954 -1.4935 -1.7325
 1083TIP3    H224665   6.555   5.984  11.844  1.4944 -0.5305  3.1015
 1084TIP3   OH224666   4.593   0.788   1.187  0.0711  0.4313  0.4515
 1084TIP3    H124667   4.646   0.811   1.263  0.6846 -0.5602  0.3332
 1084TIP3    H224668   4.520   0.737   1.224  1.1038 -1.2442  0.2593
 1085TIP3   OH224669   4.782   4.899   4.774  0.0447 -0.2221 -0.0352
 1085TIP3    H124670   4.772   4.937   4.862  0.2570 -1.2449  0.4414
 1085TIP3    H224671   4.875   4.876   4.769 -0.2053 -1.2568 -0.0638
 1086TIP3   OH224672   5.848   4.437   3.678 -0.1675 -0.1808  0.5820
 1086TIP3    H124673   5.794   4.398   3.609  0.0513  0.0988  0.2519
 1086TIP3    H224674   5.854   4.529   3.654  0.4311 -0.2079  0.6368
 1087TIP3   OH224675   6.608   0.267  12.110  0.4967 -0.2034  0.1786
 1087TIP3    H124676   6.664   0.230  12.042  0.2969  1.8133 -1.1239
 1087TIP3    H224677   6.537   0.310  12.062 -1.3231 -1.3800  1.7555
 1088TIP3   OH224678   2.385   4.213   1.782 -0.3336  0.1417  0.5232
 1088TIP3    H124679   2.403   4.185   1.692  0.4111  2.6087 -0.1550
 1088TIP3    H224680   2.364   4.306   1.774  2.4354  1.1037  3.1711
 1089TIP3   OH224681   3.023   2.779  17.122 -0.7922  0.2918  0.3834
 1089TIP3    H124682   3.034   2.843  17.052 -0.1169  0.2899  0.4925
 1089TIP3    H224683   3.097   2.720  17.113 -0.9441  0.0304  0.8265
 1090TIP3   OH224684   3.954   0.675  13.043 -0.1877 -0.2603 -0.4825
 1090TIP3    H124685   3.951   0.651  12.950  2.0371  1.1932 -0.9546
 1090TIP3    H224686   3.865   0.704  13.063 -0.1280  1.6357 -2.7668
 1091TIP3   OH224687   2.162   2.481   5.036  0.3291 -0.9590  0.0804
 1091TIP3    H124688   2.217   2.431   4.977  1.3380  1.2486 -0.9164
 1091TIP3    H224689   2.223   2.534   5.087 -0.7040 -0.7415  1.1229
 1092TIP3   OH224690   6.664   0.114   6.592  0.3657 -0.7925 -0.3733
 1092TIP3    H124691   6.593   0.109   6.528  1.7875 -1.1505 -1.9782
 1092TIP3    H224692   6.744   0.104   6.540  1.5506 -1.6145  1.5271
 1093TIP3   OH224693   5.187   5.726  13.089 -0.5665  0.3730  0.5109
 1093TIP3    H124694   5.234   5.785  13.148  0.6698 -0.4599  0.3881
 1093TIP3    H224695   5.117   5.779  13.051  1.0721  2.0054 -0.2840
 1094TIP3   OH224696   0.798   0.325  13.425  0.7095 -0.1688  0.1582
 1094TIP3    H124697   0.779   0.392  13.359  0.2079 -0.7171 -0.2522
 1094TIP3    H224698   0.771   0.243  13.384  1.4084 -0.6316  0.6338
 1095TIP3   OH224699   5.951   3.413   1.083 -0.8067  0.3544 -0.1432
 1095TIP3    H124700   5.945   3.384   1.175  3.2091 -5.1656 -1.3930
 1095TIP3    H224701   6.044   3.431   1.070 -1.0985 -0.2995 -3.4482
 1096TIP3   OH224702   4.431   4.736   2.306  0.1993  0.0665 -0.8083
 1096TIP3    H124703   4.459   4.763   2.394 -0.3280  0.2784 -0.7017
 1096TIP3    H224704   4.336   4.726   2.313  0.1025  0.4883 -1.4579
 1097TIP3   OH224705   2.260   5.976  14.057  0.6687 -0.6156  0.1233
 1097TIP3    H124706   2.192   6.000  13.993  1.5114  0.0109 -0.5436
 1097TIP3    H224707   2.223   6.000  14.142  0.2582  0.1835 -0.2789
 1098TIP3   OH224708   0.818   0.776  15.083 -0.3282 -0.0377 -0.2818
 1098TIP3    H124709   0.894   0.778  15.025 -0.3830 -0.8748 -0.3849
 1098TIP3    H224710   0.744   0.801  15.027 -0.2077  0.2698 -0.3033
 1099TIP3   OH224711   1.780   2.650  16.837  0.3796 -0.6000  0.2918
 1099TIP3    H124712   1.863   2.622  16.876  0.8524 -0.8453 -0.8467
 1099TIP3    H224713   1.805   2.687  16.752 -0.6242 -0.1530  0.1802
 1100TIP3   OH224714   3.408   2.445   3.639 -0.1080  0.0968  0.0381
 1100TIP3    H124715   3.320   2.461   3.605 -0.1960 -1.0352 -0.2856
 1100TIP3    H224716   3.414   2.350   3.647  1.3974  0.1031 -0.7503
 1101TIP3   OH224717   0.049   3.584   5.917 -0.2310  0.0371 -0.2242
 1101TIP3    H124718   0.044   3.565   6.011 -1.9216  1.0403 -0.0907
 1101TIP3    H224719   0.045   3.680   5.912 -1.3556 -0.0568 -1.3821
 1102TIP3   OH224720   2.582   1.398   4.091  0.5965 -0.2021 -0.0902
 1102TIP3    H124721   2.594   1.445   4.008  0.8310 -0.6805 -0.3271
 1102TIP3    H224722   2.617   1.311   4.075  3.1972  0.5313  1.3770
 1103TIP3   OH224723   1.500   1.847   2.032  0.0322  0.1517  0.0544
 1103TIP3    H124724   1.537   1.846   1.944 -1.1164 -1.3735 -0.4204
 1103TIP3    H224725   1.406   1.840   2.019 -0.2632  1.4678  1.3572
 1104TIP3   OH224726   1.146   3.210  11.010 -0.2697 -0.0725  0.5518
 1104TIP3    H124727   1.154   3.244  11.099  0.2638  0.8539  0.1692
 1104TIP3    H224728   1.077   3.264  10.970 -0.5823 -0.5553  0.4380
 1105TIP3   OH224729   3.170   3.156  13.406 -0.1226 -0.1898 -0.1555
 1105TIP3    H124730   3.198   3.068  13.380 -0.0572  0.1550 -1.2778
 1105TIP3    H224731   3.207   3.168  13.494  0.9151 -0.8099 -0.4925
 1106TIP3   OH224732   3.439   0.231   0.503 -0.5240  0.5663 -0.4048
 1106TIP3    H124733   3.353   0.231   0.543  0.0699 -0.9776  0.9608
 1106TIP3    H224734   3.481   0.151   0.537  0.7397  0.2788 -2.5170
 1107TIP3   OH224735   5.421   1.781  11.215  0.4755  0.0214 -0.4622
 1107TIP3    H124736   5.357   1.813  11.278  0.8607 -0.1069 -0.0002
 1107TIP3    H224737   5.406   1.687  11.211 -0.8931  0.2954 -2.0845
 1108TIP3   OH224738   6.749   5.620   4.379  0.3970 -0.3469 -0.4076
 1108TIP3    H124739   6.702   5.593   4.300 -0.1434  2.5254 -1.1221
 1108TIP3    H224740   6.684   5.614   4.448  0.8103 -2.6573 -0.1742
 1109TIP3   OH224741   5.871   0.803   5.284  0.4027 -0.2844 -0.5496
 1109TIP3    H124742   5.934   0.874   5.273 -0.3797  0.6658  0.9099
 1109TIP3    H224743   5.868   0.760   5.198  3.5850 -0.8450 -0.4248
 1110TIP3   OH224744   4.270   2.048  15.632  0.2017  0.4538  0.4009
 1110TIP3    H124745   4.231   2.099  15.560 -1.4164 -0.6040  0.4891
 1110TIP3    H224746   4.238   1.959  15.618  1.4278 -0.1536  1.3584
 1111TIP3   OH224747   5.173   5.471  13.174  0.2769  0.4955  0.5512
 1111TIP3    H124748   5.212   5.552  13.142 -1.0288  1.0012  0.2463
 1111TIP3    H224749   5.082   5.493  13.193  0.0756 -0.7351  1.0661
 1112TIP3   OH224750   6.635   5.680   1.752 -0.1131  0.2203 -0.3579
 1112TIP3    H124751   6.587   5.703   1.673  1.1477 -0.7276 -1.4138
 1112TIP3    H224752   6.592   5.730   1.821 -0.6878  1.7170 -1.7655
 1113TIP3   OH224753   0.276   0.683   6.050 -0.4000  0.0272  0.4616
 1113TIP3    H124754   0.238   0.706   5.965  1.0694 -0.1784 -0.2677
 1113TIP3    H224755   0.232   0.602   6.075 -0.6077 -0.0857 -0.2620
 1114TIP3   OH224756   2.704   5.707  15.096  0.0545 -0.2419 -0.7555
 1114TIP3    H124757   2.624   5.741  15.136  1.2188  1.7842 -0.0736
 1114TIP3    H224758   2.674   5.660  15.019 -1.9550 -1.1664  0.5412
 1115TIP3   OH224759   4.554   3.628  15.148  0.1219 -0.1586 -0.2969
 1115TIP3    H124760   4.483   3.669  15.198  1.6168  0.5451  1.3463
 1115TIP3    H224761   4.540   3.656  15.058 -0.6577  1.4785  0.3093
 1116TIP3   OH224762   5.084   2.276  13.351 -0.2243  0.3227  0.1215
 1116TIP3    H124763   5.108   2.312  13.265 -1.4279  1.6636  0.3362
 1116TIP3    H224764   5.122   2.338  13.414 -0.3660 -0.0106  0.5366
 1117TIP3   OH224765   5.690   5.162  12.577  0.2359  0.5030  0.1737
 1117TIP3    H124766   5.658   5.149  12.666 -0.0111 -1.9900 -0.2452
 1117TIP3    H224767   5.735   5.247  12.580  1.0084  0.0464  2.8757
 1118TIP3   OH224768   0.281   3.827  16.080 -0.2278 -0.0970 -0.3401
 1118TIP3    H124769   0.220   3.758  16.052 -0.3249 -0.1679  0.0295
 1118TIP3    H224770   0.280   3.821  16.176  3.1357 -2.5188 -0.3651
 1119TIP3   OH224771   2.130   5.397  16.282 -0.2467 -0.3630  0.2939
 1119TIP3    H124772   2.052   5.352  16.251  1.2156 -1.8565 -1.3171
 1119TIP3    H224773   2.202   5.356  16.234  1.7255 -0.3202  3.1030
 1120TIP3   OH224774   6.091   1.683   3.748  0.1252 -0.1231 -0.1549
 1120TIP3    H124775   6.186   1.693   3.755  0.2409 -1.0778 -0.2365
 1120TIP3    H224776   6.062   1.763   3.705  0.6038  1.2440  1.9830
 1121TIP3   OH224777   6.680   2.786  14.102  0.0284  0.2402 -0.1548
 1121TIP3    H124778   6.669   2.836  14.183  0.8005  1.5237 -0.8163
 1121TIP3    H224779   6.707   2.852  14.037  1.4760 -1.0962 -0.9463
 1122TIP3   OH224780   6.564   2.347   0.992  0.1838 -0.5321 -0.9695
 1122TIP3    H124781   6.579   2.441   0.986  1.3710 -0.6981 -0.7897
 1122TIP3    H224782   6.640   2.308   0.949  1.8336 -1.4900  2.6701
 1123TIP3   OH224783   1.965   3.528   4.623 -0.1294  0.1803 -0.4259
 1123TIP3    H124784   1.924   3.565   4.545  0.0754  0.2270 -0.5112
 1123TIP3    H224785   1.999   3.604   4.670  0.2871  0.1047 -0.5982
 1124TIP3   OH224786   4.808   1.853  15.216 -0.2276  0.0943  0.2367
 1124TIP3    H124787   4.714   1.866  15.202 -0.0328  1.7949  0.3424
 1124TIP3    H224788   4.846   1.852  15.128 -0.3924 -0.9908  0.1780
 1125TIP3   OH224789   6.175   3.860  14.883  0.5391 -0.1163  0.5369
 1125TIP3    H124790   6.179   3.908  14.800  2.3054 -1.1216  0.0065
 1125TIP3    H224791   6.086   3.824  14.886 -0.9206  3.3468  1.0837
 1126TIP3   OH224792   3.138   1.539   3.438  0.6877 -0.3359 -0.0665
 1126TIP3    H124793   3.045   1.524   3.457 -0.4706  3.0697 -2.6589
 1126TIP3    H224794   3.152   1.498   3.353  0.9499  1.1287 -0.7458
 1127TIP3   OH224795   3.878   1.765  15.075  0.0089 -0.8174 -0.5136
 1127TIP3    H124796   3.844   1.754  15.163 -1.5623 -1.6126 -1.2094
 1127TIP3    H224797   3.814   1.821  15.031  0.2989 -1.1949 -1.4339
 1128TIP3   OH224798   3.146   0.923  15.063 -0.5761 -0.4353  0.1299
 1128TIP3    H124799   3.071   0.883  15.107 -2.4910  0.0923 -2.5360
 1128TIP3    H224800   3.190   0.851  15.019 -0.3246 -0.5222  0.5162
 1129TIP3   OH224801   1.947   3.752  16.862 -0.2678  0.3900  0.2777
 1129TIP3    H124802   2.004   3.720  16.792 -1.7793 -1.2039 -0.2473
 1129TIP3    H224803   1.997   3.739  16.942  2.0085  3.3925 -0.5340
 1130TIP3   OH224804   4.681   2.172  16.221  0.1142  0.5848  0.7797
 1130TIP3    H124805   4.636   2.150  16.303 -0.4665  2.0079  0.8666
 1130TIP3    H224806   4.774   2.172  16.244  0.0426 -0.4887  1.0817
 1131TIP3   OH224807   1.843   4.331  13.014  0.3400 -0.2227  0.3257
 1131TIP3    H124808   1.869   4.399  13.076  1.6270 -0.7008  0.3385
 1131TIP3    H224809   1.884   4.251  13.048  0.8785 -0.5369 -1.0178
 1132TIP3   OH224810   6.029   3.938   4.658 -0.3351 -0.3894  0.6028
 1132TIP3    H124811   6.018   3.846   4.636  1.2645 -1.0825  2.5469
 1132TIP3    H224812   6.114   3.962   4.619 -1.5158  0.7676 -1.3694
 1133TIP3   OH224813   2.317   3.676  14.979 -0.0877 -0.8883  0.2533
 1133TIP3    H124814   2.242   3.681  14.919 -0.1505  0.7785  0.4467
 1133TIP3    H224815   2.386   3.727  14.935 -0.7922  2.1851  2.4915
 1134TIP3   OH224816   4.743   0.567   1.862 -0.4750 -0.7859  0.4544
 1134TIP3    H124817   4.775   0.651   1.895  1.1048 -2.4395  3.4069
 1134TIP3    H224818   4.810   0.539   1.800 -0.6973 -0.1464 -0.0780
 1135TIP3   OH224819   2.581   1.206   1.565 -0.0975 -0.1289  0.4247
 1135TIP3    H124820   2.653   1.175   1.511  1.1391  2.5270  0.4885
 1135TIP3    H224821   2.533   1.126   1.588  3.1096 -2.0176  0.8705
 1136TIP3   OH224822   0.474   4.921  11.705 -0.2323  0.2606 -0.0692
 1136TIP3    H124823   0.481   5.017  11.701 -0.3547  0.3017  0.7366
 1136TIP3    H224824   0.453   4.895  11.615  1.5828  0.8472 -0.6992
 1137TIP3   OH224825   3.038   3.825  14.728  0.2243  0.6362 -0.1020
 1137TIP3    H124826   3.087   3.905  14.751  2.8412 -0.6164 -1.1233
 1137TIP3    H224827   2.970   3.855  14.668 -0.0427  2.3711  1.0243
 1138TIP3   OH224828   3.531   0.411  11.369  0.0752  0.2320  0.2452
 1138TIP3    H124829   3.567   0.411  11.280 -2.6448 -0.8579 -0.8825
 1138TIP3    H224830   3.531   0.504  11.394 -0.4222  0.7036 -1.4263
 1139TIP3   OH224831   4.392   4.559  13.877 -0.3213 -0.3074  0.0068
 1139TIP3    H124832   4.474   4.544  13.830 -0.6579  0.2505 -0.7782
 1139TIP3    H224833   4.419   4.590  13.964  0.2983  0.6911 -0.5244
 1140TIP3   OH224834   3.472   5.798   1.171 -0.0177  0.0549 -0.3502
 1140TIP3    H124835   3.509   5.850   1.243 -1.2191 -0.8374  0.9194
 1140TIP3    H224836   3.393   5.845   1.146  0.7490  0.7268 -1.5527
 1141TIP3   OH224837   2.449   5.047  11.541  0.1588  0.2855 -0.1629
 1141TIP3    H124838   2.411   5.094  11.614 -1.8332  0.4796 -1.2753
 1141TIP3    H224839   2.388   4.974  11.525  0.5906  0.2162 -1.5714
 1142TIP3   OH224840   2.813   4.248   1.651 -0.1634 -0.2466 -0.2139
 1142TIP3    H124841   2.835   4.331   1.692  1.2496 -0.5777 -0.2651
 1142TIP3    H224842   2.819   4.265   1.557  1.6145 -0.7545 -0.2231
 1143TIP3   OH224843   3.050   3.838   5.273 -0.1180  0.4134 -0.0357
 1143TIP3    H124844   2.971   3.866   5.318 -0.3921  0.1399 -0.3413
 1143TIP3    H224845   3.042   3.876   5.185  1.2182  2.3596  0.6572
 1144TIP3   OH224846   2.494   2.967   3.620 -0.0709 -0.1371  0.0013
 1144TIP3    H124847   2.408   3.002   3.647  1.8356  3.0772  2.2446
 1144TIP3    H224848   2.539   2.948   3.702  2.5065  1.2329 -1.0466
 1145TIP3   OH224849   3.269   0.500  11.890  0.1094 -0.0553 -0.4537
 1145TIP3    H124850   3.312   0.555  11.825  0.2663  0.2828 -0.0642
 1145TIP3    H224851   3.264   0.413  11.849 -0.5169  0.3446 -1.2359
 1146TIP3   OH224852   0.245   5.415  16.976 -0.2460 -0.7124 -0.9664
 1146TIP3    H124853   0.199   5.457  17.049  0.4300  0.4193 -1.1852
 1146TIP3    H224854   0.243   5.321  16.998  0.0826 -0.3835  0.5852
 1147TIP3   OH224855   3.398   0.571  16.268  0.2941 -0.0387 -0.8961
 1147TIP3    H124856   3.435   0.631  16.203 -0.2615  1.1679 -0.1338
 1147TIP3    H224857   3.434   0.486  16.246  0.3960  0.4145 -2.5637
 1148TIP3   OH224858   1.209   5.685   0.782 -0.5797 -0.3213 -0.1390
 1148TIP3    H124859   1.256   5.637   0.850  1.0906  1.3416 -0.0904
 1148TIP3    H224860   1.146   5.739   0.829 -0.5837 -0.4197 -0.0330
 1149TIP3   OH224861   3.679   3.482   5.335  0.1612 -0.1912 -0.2245
 1149TIP3    H124862   3.624   3.473   5.258  0.3636 -2.4807 -0.1252
 1149TIP3    H224863   3.731   3.560   5.318 -0.8840  0.2108 -1.6982
 1150TIP3   OH224864   6.159   0.102  17.238 -0.2123  0.1312 -0.7372
 1150TIP3    H124865   6.161   0.091  17.143  1.1078 -0.0829 -0.6940
 1150TIP3    H224866   6.195   0.189  17.254 -0.1732  0.0587 -0.4159
 1151TIP3   OH224867   5.094   3.341  11.713  0.1618 -0.5653  0.1295
 1151TIP3    H124868   5.018   3.350  11.770 -0.7376  0.1738 -1.1675
 1151TIP3    H224869   5.061   3.297  11.635  0.5353  1.7712 -1.4114
 1152TIP3   OH224870   2.460   5.589  11.037  0.2573 -0.4410  0.0892
 1152TIP3    H124871   2.454   5.662  10.975 -0.2508  0.3860  1.0880
 1152TIP3    H224872   2.524   5.530  10.998  0.7388  0.5794 -0.7118
 1153TIP3   OH224873   0.421   5.058  17.144  0.5204 -0.6339 -0.0720
 1153TIP3    H124874   0.331   5.085  17.160  0.9527  0.5100  0.4362
 1153TIP3    H224875   0.415   5.001  17.067 -0.4641  0.5021 -0.8556
 1154TIP3   OH224876   2.659   3.203  14.830  0.1133  0.1975 -0.0346
 1154TIP3    H124877   2.741   3.166  14.863  0.7934  1.6871 -0.0553
 1154TIP3    H224878   2.685   3.276  14.774 -1.1500 -0.5470 -1.6439
 1155TIP3   OH224879   3.943   4.284  13.930  0.0351 -0.2681  0.2279
 1155TIP3    H124880   3.953   4.189  13.929 -0.7181 -0.3609  1.2961
 1155TIP3    H224881   3.961   4.310  13.840  0.5944 -1.3844  0.0038
 1156TIP3   OH224882   3.973   3.333  13.730 -0.2061  0.4123 -0.0674
 1156TIP3    H124883   4.006   3.303  13.815 -0.3750  0.3747 -0.0160
 1156TIP3    H224884   4.022   3.281  13.666 -0.7486 -0.2282  0.0335
 1157TIP3   OH224885   0.044   4.519  16.264 -0.7592  0.1335 -0.2836
 1157TIP3    H124886   0.102   4.530  16.189 -0.7209  0.1321 -0.2552
 1157TIP3    H224887  -0.040   4.492  16.226 -0.7235  0.0762 -0.3198
 1158TIP3   OH224888   0.327   3.465   6.234 -0.3154  0.2118  0.0331
 1158TIP3    H124889   0.335   3.558   6.213 -0.4056  0.0563 -0.6739
 1158TIP3    H224890   0.412   3.441   6.271 -0.4261  0.6684  0.5943
 1159TIP3   OH224891   1.451   5.763   6.083 -0.0451  0.1951  0.0593
 1159TIP3    H124892   1.480   5.762   6.175  0.1568 -0.1844 -0.0077
 1159TIP3    H224893   1.371   5.816   6.084  0.3270  0.7519  0.3398
 1160TIP3   OH224894   5.590   0.563  13.063 -0.0066  0.1313 -0.7022
 1160TIP3    H124895   5.500   0.551  13.036 -0.4441  1.8359 -0.0841
 1160TIP3    H224896   5.592   0.537  13.154  0.8752 -3.0374 -1.5717
 1161TIP3   OH224897   3.442   1.470   0.741  0.7481 -0.5652  0.6469
 1161TIP3    H124898   3.365   1.433   0.785  0.6118  0.2907  1.1431
 1161TIP3    H224899   3.449   1.421   0.659 -0.4389 -0.5276  0.5184
 1162TIP3   OH224900   4.066   3.416  15.872 -0.4800 -0.0472 -0.0158
 1162TIP3    H124901   4.096   3.337  15.827  0.1686  1.0015 -1.4347
 1162TIP3    H224902   3.984   3.439  15.826 -0.9198 -0.1598  0.7082
 1163TIP3   OH224903   2.495   2.888   1.264  0.3840  0.8355 -0.0705
 1163TIP3    H124904   2.506   2.919   1.354  0.6303  0.0885  0.1558
 1163TIP3    H224905   2.526   2.961   1.210 -0.0051  1.3903  0.4374
 1164TIP3   OH224906   3.058   1.753  11.833 -0.1131  0.0915  0.3991
 1164TIP3    H124907   3.019   1.687  11.890  0.1803  0.0723  0.5785
 1164TIP3    H224908   3.132   1.708  11.791  0.4371  0.4714  0.9551
 1165TIP3   OH224909   5.507   2.482   3.138  0.0155  0.7133  0.0837
 1165TIP3    H124910   5.576   2.548   3.129  1.0599 -0.4232 -0.4148
 1165TIP3    H224911   5.493   2.450   3.049 -0.5363  0.3150  0.3105
 1166TIP3   OH224912   6.144   6.672  14.561  0.1194  0.1728  0.1011
 1166TIP3    H124913   6.207   6.693  14.630  1.1569 -3.2582  0.2819
 1166TIP3    H224914   6.187   6.700  14.480  1.0196 -0.2510  0.4189
 1167TIP3   OH224915   5.303   4.950   0.370 -0.6864 -0.1178  0.1767
 1167TIP3    H124916   5.250   4.973   0.447  1.7761  1.7459  1.4062
 1167TIP3    H224917   5.332   4.860   0.387 -0.5647  0.1068  1.2390
 1168TIP3   OH224918   0.667   3.890   3.450  0.0846 -0.7876 -0.3475
 1168TIP3    H124919   0.655   3.799   3.480  0.6154 -0.7881 -0.1170
 1168TIP3    H224920   0.679   3.940   3.531 -0.6327 -0.4438 -0.4542
 1169TIP3   OH224921   1.387   5.437   6.462 -0.3088 -0.3957 -0.5047
 1169TIP3    H124922   1.321   5.429   6.394 -1.0477  0.2018  0.1351
 1169TIP3    H224923   1.384   5.353   6.508 -0.7205 -0.3115 -0.3824
 1170TIP3   OH224924   2.015   6.378   5.487  0.1519  0.3733  0.1901
 1170TIP3    H124925   2.021   6.470   5.516 -2.0524  0.5210  0.2701
 1170TIP3    H224926   2.099   6.361   5.444  1.0251  2.0912  1.1332
 1171TIP3   OH224927   2.099   5.872  15.733  0.0003  0.1645 -0.0653
 1171TIP3    H124928   2.029   5.809  15.713  1.2408 -0.4603 -2.5748
 1171TIP3    H224929   2.172   5.818  15.763  0.5224  0.5473 -0.6503
 1172TIP3   OH224930   5.826   4.801  13.066  0.3339  0.0644  0.3671
 1172TIP3    H124931   5.879   4.825  12.990  1.2966  0.4714  1.1508
 1172TIP3    H224932   5.868   4.722  13.101 -0.7910 -0.8026 -0.1887
 1173TIP3   OH224933   1.386   4.255   1.643  0.1226 -0.1001  0.2170
 1173TIP3    H124934   1.337   4.300   1.574 -0.2049  0.7215  0.9806
 1173TIP3    H224935   1.466   4.225   1.600  0.3421  1.2202 -0.3090
 1174TIP3   OH224936   6.714   5.064  16.401  0.2553  0.5012  0.0619
 1174TIP3    H124937   6.709   5.022  16.315  0.5399  1.9539 -0.6791
 1174TIP3    H224938   6.642   5.127  16.401  0.4238  0.6965  0.7876
 1175TIP3   OH224939   4.031   2.510   4.611  0.6647  0.0082  0.1099
 1175TIP3    H124940   4.074   2.442   4.662  0.3799  0.4972  1.0269
 1175TIP3    H224941   3.953   2.468   4.575 -0.0969  0.1087  1.5717
 1176TIP3   OH224942   5.810   5.965  11.718 -0.1820 -0.1739  0.4468
 1176TIP3    H124943   5.731   5.915  11.739  1.2303 -2.9123 -0.5277
 1176TIP3    H224944   5.782   6.029  11.654 -1.6627 -0.9820  0.2663
 1177TIP3   OH224945   3.561   3.153  16.630 -0.0916  0.0402 -0.1611
 1177TIP3    H124946   3.540   3.081  16.570 -0.3581 -2.0443  2.3323
 1177TIP3    H224947   3.483   3.161  16.685  0.8333  0.6880  1.0617
 1178TIP3   OH224948   6.094   3.094  12.296  0.1926 -0.8839  0.2556
 1178TIP3    H124949   6.094   3.189  12.284  0.6058 -0.9173 -0.0520
 1178TIP3    H224950   6.013   3.075  12.342 -0.0554 -0.4164  0.0135
 1179TIP3   OH224951   0.009   2.316  13.083  0.0027 -0.1876  0.2375
 1179TIP3    H124952   0.054   2.234  13.062  1.1295  0.2053  1.1131
 1179TIP3    H224953   0.061   2.355  13.153 -0.3029  1.4900 -0.4566
 1180TIP3   OH224954   2.535   3.037  11.259  0.0805 -0.0052 -0.1246
 1180TIP3    H124955   2.455   3.072  11.220  0.1996  1.2393  0.7232
 1180TIP3    H224956   2.580   3.114  11.294  1.7008 -0.6818 -0.6776
 1181TIP3   OH224957   0.338   1.466   3.286 -1.5116  0.3448  0.0771
 1181TIP3    H124958   0.284   1.452   3.363  0.2148  0.7876  1.3947
 1181TIP3    H224959   0.355   1.561   3.285 -1.0507  0.2627 -0.4950
 1182TIP3   OH224960   2.868   6.392   3.837  0.0114  0.2486 -0.2669
 1182TIP3    H124961   2.963   6.403   3.844  0.1932 -1.3548  0.0156
 1182TIP3    H224962   2.849   6.314   3.889 -1.2842 -0.2016 -1.3727
 1183TIP3   OH224963   3.654   4.497  15.525  0.0683 -0.1065 -0.3164
 1183TIP3    H124964   3.672   4.559  15.596  0.5025  0.4185 -0.8876
 1183TIP3    H224965   3.601   4.546  15.463  0.3066 -0.3450 -0.7062
 1184TIP3   OH224966   0.305   5.481   2.579  0.3175 -0.0429 -0.0232
 1184TIP3    H124967   0.215   5.496   2.550  0.2936 -0.3244 -0.0924
 1184TIP3    H224968   0.324   5.555   2.637  0.1069  0.1170 -0.1582
 1185TIP3   OH224969   1.070   5.631   3.197 -0.1002 -0.0557 -0.6685
 1185TIP3    H124970   0.997   5.587   3.153 -1.0468 -1.0745  1.8218
 1185TIP3    H224971   1.145   5.574   3.180 -0.4589 -0.4665 -0.9130
 1186TIP3   OH224972   2.984   4.693  13.024  0.0337  0.1137 -0.8842
 1186TIP3    H124973   2.972   4.694  13.119 -0.4231 -2.1039 -0.9025
 1186TIP3    H224974   3.079   4.705  13.012  0.8367 -4.4207  0.0641
 1187TIP3   OH224975   6.042   3.681   1.890  0.2571  0.6152 -0.3898
 1187TIP3    H124976   6.040   3.590   1.919  1.5946  0.2543 -1.3969
 1187TIP3    H224977   6.106   3.723   1.947 -0.9316  1.1334  0.5997
 1188TIP3   OH224978   2.543   4.284   5.002  0.3134 -0.0236 -0.3769
 1188TIP3    H124979   2.578   4.325   5.080  0.6265  2.0094 -1.5612
 1188TIP3    H224980   2.459   4.327   4.987  0.0987 -0.6241 -0.9744
 1189TIP3   OH224981   2.626   5.523  14.901  0.1961 -0.5877  0.1713
 1189TIP3    H124982   2.585   5.509  14.816  1.3431  0.0742 -0.4979
 1189TIP3    H224983   2.640   5.434  14.936  2.3446 -0.9735 -1.5988
 1190TIP3   OH224984   0.990   1.210  12.064 -0.2487 -0.0835 -0.7014
 1190TIP3    H124985   1.012   1.295  12.025 -3.3301  0.6638 -0.9776
 1190TIP3    H224986   1.015   1.146  11.998  1.2542  0.6632 -0.8768
 1191TIP3   OH224987   0.309   1.367   5.861 -0.2002 -0.4365  0.4667
 1191TIP3    H124988   0.296   1.455   5.897  0.3127  0.0268 -0.4528
 1191TIP3    H224989   0.308   1.309   5.937  1.5565  0.6032  1.2901
 1192TIP3   OH224990   4.440   5.493   5.804  0.1451 -0.3509  0.0463
 1192TIP3    H124991   4.358   5.540   5.787 -0.2868 -1.2915 -0.4619
 1192TIP3    H224992   4.450   5.497   5.899 -0.0140  0.5575  0.0346
 1193TIP3   OH224993   6.652   0.888  13.141  0.0771  0.5424  0.1314
 1193TIP3    H124994   6.725   0.948  13.156  0.1252  0.6771 -0.6361
 1193TIP3    H224995   6.598   0.895  13.219  0.6912  0.7216  0.5430
 1194TIP3   OH224996   2.604   2.833  13.669  0.1210 -0.5481 -0.2009
 1194TIP3    H124997   2.539   2.768  13.695 -1.1491  0.3355 -1.0987
 1194TIP3    H224998   2.633   2.805  13.582 -0.6223  0.2065 -0.7020
 1195TIP3   OH224999   0.399   1.449  13.999  0.0849  0.6112  0.0935
 1195TIP3    H125000   0.315   1.483  14.030  0.2130  0.5716  0.4853
 1195TIP3    H225001   0.377   1.392  13.926 -0.3653 -0.6199  1.1774
 1196TIP3   OH225002   3.048   1.044   2.048  0.4290  0.2943  0.6427
 1196TIP3    H125003   3.000   0.962   2.057  0.7018 -0.2255 -2.2160
 1196TIP3    H225004   2.999   1.095   1.984  0.8006  1.9916  1.6493
 1197TIP3   OH225005   3.142   3.214  11.456  0.2788 -0.7639  0.0589
 1197TIP3    H125006   3.084   3.273  11.503  1.4627 -0.2369  0.8520
 1197TIP3    H225007   3.167   3.148  11.520  1.5544 -0.2807  0.0768
 1198TIP3   OH225008   3.970   5.931  14.073  0.5808 -0.3730 -0.1385
 1198TIP3    H125009   4.050   5.984  14.078 -0.2429  0.8615  0.1073
 1198TIP3    H225010   3.985   5.859  14.135  0.3018  1.5036  2.1715
 1199TIP3   OH225011   0.849   1.067   4.303 -0.4284 -0.7572  0.5362
 1199TIP3    H125012   0.758   1.089   4.321 -0.2405  1.3306 -0.8284
 1199TIP3    H225013   0.846   1.015   4.223 -0.2452  2.0276 -1.3604
 1200TIP3   OH225014   3.403   2.104   5.280  0.0297 -0.0714 -0.4446
 1200TIP3    H125015   3.355   2.028   5.313 -1.0504  0.9919  0.5211
 1200TIP3    H225016   3.477   2.113   5.339 -0.3280  0.1341 -0.0205
 1201TIP3   OH225017   4.717   5.556   5.686  0.5885  0.0558 -0.3409
 1201TIP3    H125018   4.625   5.583   5.681  0.5133  0.0098  0.7858
 1201TIP3    H225019   4.714   5.465   5.716  1.0739  0.8105  2.1074
 1202TIP3   OH225020   3.238   1.820   1.395 -0.4439  0.4731  0.4448
 1202TIP3    H125021   3.334   1.816   1.393 -0.5192 -1.6330 -0.8378
 1202TIP3    H225022   3.215   1.883   1.327  0.0202  0.6048  0.4087
 1203TIP3   OH225023   0.708   2.903   4.060 -0.0671  0.5284 -0.3149
 1203TIP3    H125024   0.650   2.942   4.126 -0.9555  0.2774 -0.9315
 1203TIP3    H225025   0.721   2.813   4.091  0.7768  0.8701  0.3283
 1204TIP3   OH225026   5.529   4.784   1.702 -0.0640  0.4844 -0.7645
 1204TIP3    H125027   5.611   4.825   1.676  0.9708 -0.8786  0.2631
 1204TIP3    H225028   5.552   4.692   1.717 -1.5569  0.3022  0.5384
 1205TIP3   OH225029   3.063   5.730   5.646  0.8617  0.4350 -0.1444
 1205TIP3    H125030   2.978   5.772   5.635  0.7535  0.0728 -0.7527
 1205TIP3    H225031   3.092   5.754   5.734 -0.1828  0.0000  0.3213
 1206TIP3   OH225032   2.708   3.920  15.098  0.3198  0.2145 -0.8011
 1206TIP3    H125033   2.738   3.972  15.023  0.3722 -0.1125 -1.0127
 1206TIP3    H225034   2.716   3.978  15.173  0.8915  0.3404 -0.9523
 1207TIP3   OH225035   3.786   2.237  14.438  0.5775 -0.0044  0.1286
 1207TIP3    H125036   3.841   2.312  14.417 -0.4363  0.9502  0.8431
 1207TIP3    H225037   3.700   2.275  14.457  0.2068 -1.2904  1.0777
 1208TIP3   OH225038   3.340   4.274   2.671 -0.4425 -0.0967 -0.0651
 1208TIP3    H125039   3.377   4.362   2.661  2.2671 -1.1552 -0.0028
 1208TIP3    H225040   3.249   4.282   2.643 -0.0350  2.5474 -0.7695
 1209TIP3   OH225041   1.714   4.735   1.834  0.1083  0.5344  0.2025
 1209TIP3    H125042   1.737   4.695   1.918  0.4235  1.3127  0.4985
 1209TIP3    H225043   1.644   4.680   1.799  1.2745 -0.8953  0.0852
 1210TIP3   OH225044   0.046   1.512   0.338 -0.7751 -0.6625 -0.0800
 1210TIP3    H125045   0.034   1.430   0.291 -0.1574 -1.4402  1.1054
 1210TIP3    H225046   0.060   1.577   0.269 -1.3067 -1.5411 -1.0266
 1211TIP3   OH225047   4.366   2.711   3.456  0.3598 -0.2938  0.3816
 1211TIP3    H125048   4.381   2.622   3.424 -0.3159  0.2768 -1.5505
 1211TIP3    H225049   4.278   2.733   3.427  0.8483  1.3297  0.1038
 1212TIP3   OH225050   6.197   1.543  10.934  0.2519  0.4286 -0.2279
 1212TIP3    H125051   6.259   1.608  10.903  0.2180 -0.0901 -1.4161
 1212TIP3    H225052   6.111   1.578  10.910  0.1996  0.2192 -0.3464
 1213TIP3   OH225053   2.234   4.867   5.728  0.2767  0.9856  0.0912
 1213TIP3    H125054   2.231   4.773   5.714 -0.6024  0.9692  0.3381
 1213TIP3    H225055   2.210   4.905   5.643  2.1387  1.0221 -0.4331
 1214TIP3   OH225056   3.104   1.610   0.128 -0.3535  0.2643 -0.1685
 1214TIP3    H125057   3.163   1.592   0.055 -0.9283  0.7809 -0.7670
 1214TIP3    H225058   3.116   1.703   0.147 -1.5770  0.5764 -0.8482
 1215TIP3   OH225059   5.196   5.873   4.716  0.4074  0.5182  0.6038
 1215TIP3    H125060   5.124   5.931   4.691 -0.3481  0.7230  3.0679
 1215TIP3    H225061   5.222   5.831   4.635 -0.7232  2.4227 -0.8002
 1216TIP3   OH225062   1.897   0.068  14.058 -0.1647 -0.2318 -0.1384
 1216TIP3    H125063   1.861   0.134  13.999 -1.1667 -0.1224  0.5766
 1216TIP3    H225064   1.859   0.089  14.143  2.1789  0.3379  0.8143
 1217TIP3   OH225065   6.630   3.992  12.794  0.0439 -0.4240 -0.6502
 1217TIP3    H125066   6.697   4.051  12.759  0.4822 -0.9237 -0.6656
 1217TIP3    H225067   6.591   4.040  12.867 -0.7153  0.5312 -1.6764
 1218TIP3   OH225068   5.655   2.458   0.394 -0.2635 -0.0710 -0.4867
 1218TIP3    H125069   5.726   2.522   0.390 -0.7578  0.5156  0.0282
 1218TIP3    H225070   5.575   2.511   0.397 -0.7275 -0.7282 -1.1465
 1219TIP3   OH225071   3.053   1.410  11.583 -0.0745  0.5890 -0.2746
 1219TIP3    H125072   3.001   1.395  11.504  0.1402 -0.4747 -0.2189
 1219TIP3    H225073   3.043   1.504  11.601 -0.0810  0.8474 -1.5932
 1220TIP3   OH225074   6.676   6.552   1.930 -0.6194  0.1184  0.5447
 1220TIP3    H125075   6.712   6.567   1.843 -0.4047  0.1707  0.6406
 1220TIP3    H225076   6.583   6.571   1.922 -0.7681 -0.7637  0.1064
 1221TIP3   OH225077   5.409   6.039   4.813 -0.4976  0.0621  0.0713
 1221TIP3    H125078   5.445   5.951   4.817  1.2358  0.7699  0.7530
 1221TIP3    H225079   5.375   6.047   4.724  2.7284 -0.0311 -1.2430
 1222TIP3   OH225080   4.251   1.603   0.804  0.0192 -0.1653  0.1197
 1222TIP3    H125081   4.267   1.664   0.875  0.0416  0.8843 -0.7701
 1222TIP3    H225082   4.332   1.552   0.796 -0.0570 -0.4306  0.9630
 1223TIP3   OH225083   2.601   5.875   1.128  0.4128  0.0986  0.2243
 1223TIP3    H125084   2.660   5.803   1.152 -1.0637 -1.0238  0.5848
 1223TIP3    H225085   2.544   5.885   1.204 -0.3610  0.6309 -0.4204
 1224TIP3   OH225086   3.232   4.658  16.355  0.4317  0.0010  0.0944
 1224TIP3    H125087   3.200   4.732  16.304  1.0293  0.0965 -0.1468
 1224TIP3    H225088   3.286   4.608  16.294 -0.0289 -0.6815  0.2345
 1225TIP3   OH225089   1.935   4.931   0.784  0.2524  0.2513 -0.3156
 1225TIP3    H125090   2.029   4.915   0.793 -0.0055 -0.3880  1.6174
 1225TIP3    H225091   1.898   4.846   0.764 -0.0158  0.3093 -0.0717
 1226TIP3   OH225092   5.534   2.614  14.300 -0.0865 -0.0927  0.9032
 1226TIP3    H125093   5.587   2.545  14.260 -0.6611 -0.5505  0.9327
 1226TIP3    H225094   5.459   2.568  14.337 -0.2478  0.4965  1.3126
 1227TIP3   OH225095   2.648   3.485   3.797 -0.4887 -0.4116 -0.2536
 1227TIP3    H125096   2.597   3.563   3.776  0.3955  0.0750 -0.6191
 1227TIP3    H225097   2.583   3.417   3.815 -1.2544  0.0162 -1.4293
 1228TIP3   OH225098   1.081   6.484   0.964  0.4442  0.2388 -0.0048
 1228TIP3    H125099   1.136   6.445   1.033  1.0179  0.6822 -0.2082
 1228TIP3    H225100   1.140   6.493   0.889 -0.1584 -0.1685 -0.5325
 1229TIP3   OH225101   0.086   0.203  15.226 -0.3769 -0.0230  0.3380
 1229TIP3    H125102   0.129   0.216  15.311  0.4679  3.0288 -0.5031
 1229TIP3    H225103  -0.005   0.227  15.241 -0.4428 -0.4095  0.5828
 1230TIP3   OH225104   1.775   0.526   5.383 -0.2348 -0.0093  0.6789
 1230TIP3    H125105   1.778   0.480   5.299 -0.0952  0.7792  0.2485
 1230TIP3    H225106   1.797   0.617   5.362 -0.6575  0.2913  1.5020
 1231TIP3   OH225107   3.379   6.160  16.848 -0.3119  0.2069  0.5750
 1231TIP3    H125108   3.404   6.237  16.899 -2.3563  0.7248  0.8310
 1231TIP3    H225109   3.299   6.186  16.802 -1.2976 -1.8947  1.0031
 1232TIP3   OH225110   4.682   6.118   3.318 -0.1238  0.0819 -0.2208
 1232TIP3    H125111   4.620   6.118   3.245  1.2612 -3.9502 -1.5412
 1232TIP3    H225112   4.765   6.143   3.279  0.4729 -1.3433  0.1236
 1233TIP3   OH225113   1.666   1.965   1.473  0.1403 -0.5054 -0.4601
 1233TIP3    H125114   1.648   1.981   1.380  0.4385 -0.1050 -0.4483
 1233TIP3    H225115   1.698   1.875   1.475  0.6330 -0.3449 -0.8161
 1234TIP3   OH225116   5.933   1.658   3.348 -0.3515 -0.2651  0.0060
 1234TIP3    H125117   5.842   1.647   3.322 -0.8811  0.2763  1.5302
 1234TIP3    H225118   5.939   1.751   3.373  0.7119 -0.2022 -0.4665
 1235TIP3   OH225119   1.333   0.754  11.360  0.4477  0.4626 -0.1002
 1235TIP3    H125120   1.326   0.670  11.406  0.4743  0.2741 -0.4405
 1235TIP3    H225121   1.287   0.740  11.277  2.2706  0.1297 -1.0624
 1236TIP3   OH225122   5.466   4.286  16.825 -0.2142  0.1433 -0.6071
 1236TIP3    H125123   5.390   4.263  16.771 -0.1004  0.0925 -0.7443
 1236TIP3    H225124   5.451   4.239  16.908  0.6507 -1.4943 -1.3523
 1237TIP3   OH225125   5.623   3.694   2.520 -0.3819 -0.1413  0.6255
 1237TIP3    H125126   5.688   3.758   2.550 -1.0908 -0.0834  2.0857
 1237TIP3    H225127   5.676   3.621   2.486  0.4316  0.6560  0.1523
 1238TIP3   OH225128   2.417   6.402  10.861 -0.1519 -0.1267  0.7840
 1238TIP3    H125129   2.353   6.405  10.790 -0.5036 -2.1336  0.9823
 1238TIP3    H225130   2.372   6.354  10.931  1.2586 -0.8401  1.2137
 1239TIP3   OH225131   1.292   4.826   5.727 -0.1769 -0.3192 -0.7042
 1239TIP3    H125132   1.372   4.777   5.748 -0.4035  0.1029  1.3034
 1239TIP3    H225133   1.297   4.842   5.633  2.9375  1.1441 -0.3553
 1240TIP3   OH225134   0.471   4.765   4.383 -0.6498  0.3654 -0.5988
 1240TIP3    H125135   0.411   4.696   4.411 -1.1785  1.3209  0.7281
 1240TIP3    H225136   0.432   4.799   4.302 -1.1013 -0.0046 -0.5401
 1241TIP3   OH225137   3.911   2.802  10.895  0.4967  0.4581 -0.7269
 1241TIP3    H125138   3.873   2.827  10.811  0.3408 -0.1937 -0.8506
 1241TIP3    H225139   3.840   2.759  10.942  1.0441 -0.6707 -0.9180
 1242TIP3   OH225140   4.839   2.897  16.530 -0.5866 -0.1816 -0.2479
 1242TIP3    H125141   4.849   2.943  16.613 -0.7440 -1.3774  0.4439
 1242TIP3    H225142   4.862   2.807  16.550 -1.0061 -0.5547 -1.4210
 1243TIP3   OH225143   0.693   2.971   5.327 -0.3272  0.0832 -0.1933
 1243TIP3    H125144   0.606   2.930   5.322 -0.7565  0.8223  0.9873
 1243TIP3    H225145   0.753   2.898   5.336 -0.8423 -0.4324 -0.8690
 1244TIP3   OH225146   6.214   4.816  14.823 -0.4950  0.0341  0.4504
 1244TIP3    H125147   6.291   4.772  14.787  0.7355  1.4481  1.3108
 1244TIP3    H225148   6.152   4.820  14.750  0.4795 -0.5658 -0.4243
 1245TIP3   OH225149   3.198   2.761   3.435  0.5416 -0.0902 -0.1261
 1245TIP3    H125150   3.151   2.697   3.380  1.5282 -1.1346  0.2424
 1245TIP3    H225151   3.154   2.844   3.417  2.0137 -0.0520 -3.9176
 1246TIP3   OH225152   3.856   5.411  14.284 -0.1218  0.0134  0.0201
 1246TIP3    H125153   3.770   5.400  14.325 -0.4497 -0.2633 -0.7315
 1246TIP3    H225154   3.893   5.323  14.282  0.2654  0.1637  0.5251
 1247TIP3   OH225155   2.475   0.094  12.185  0.1004 -0.2260  0.3387
 1247TIP3    H125156   2.383   0.107  12.205 -0.2030 -1.1938 -0.3882
 1247TIP3    H225157   2.492   0.003  12.207  0.2575 -0.7509 -1.7860
 1248TIP3   OH225158   6.042   3.604  15.211  0.5158 -0.1712  0.3030
 1248TIP3    H125159   6.113   3.654  15.251  0.1859  1.3307 -0.9407
 1248TIP3    H225160   5.962   3.643  15.246  0.2543  0.2343 -0.7245
 1249TIP3   OH225161   0.586   0.245   5.805 -0.1402 -0.5682 -0.0660
 1249TIP3    H125162   0.657   0.306   5.824 -2.0433  0.8999  2.7392
 1249TIP3    H225163   0.568   0.257   5.712 -0.4042  3.1410  0.3834
 1250TIP3   OH225164   4.609   5.046   1.365  0.0116 -0.1386 -0.4791
 1250TIP3    H125165   4.677   5.001   1.315  1.0938  0.1421  0.7169
 1250TIP3    H225166   4.530   5.039   1.310  0.4143 -2.4903 -0.8337
 1251TIP3   OH225167   3.291   3.919  15.261  0.1015 -0.1829  0.1592
 1251TIP3    H125168   3.339   3.966  15.329  0.5252  1.0737 -0.9801
 1251TIP3    H225169   3.256   3.988  15.205  0.8283 -1.2104 -1.6083
 1252TIP3   OH225170   4.036   2.148  16.822 -0.4929  0.2243 -0.1224
 1252TIP3    H125171   4.015   2.216  16.759 -2.7195  0.2908  0.6387
 1252TIP3    H225172   4.086   2.083  16.772 -3.3128 -0.3433 -2.3199
 1253TIP3   OH225173   1.030   5.034   0.990 -0.2817 -0.0230  0.4187
 1253TIP3    H125174   1.110   5.083   1.007 -1.2072  1.4485  0.5891
 1253TIP3    H225175   1.033   4.960   1.051  2.9935 -2.4274 -2.4695
 1254TIP3   OH225176   5.648   2.361  14.232 -0.2137 -0.5751 -0.2437
 1254TIP3    H125177   5.737   2.326  14.243 -0.4168 -0.5724  1.4848
 1254TIP3    H225178   5.593   2.283  14.230 -0.6735 -0.4580  3.6691
 1255TIP3   OH225179   3.228   2.228  16.381  0.4749 -0.1799  0.3235
 1255TIP3    H125180   3.184   2.177  16.312  0.0321  1.0578 -0.3281
 1255TIP3    H225181   3.206   2.183  16.462 -1.0097 -0.2795 -0.1108
 1256TIP3   OH225182   2.235   3.413  14.704 -0.0906 -0.1840  0.1099
 1256TIP3    H125183   2.292   3.412  14.781  0.2482 -0.0751 -0.1408
 1256TIP3    H225184   2.295   3.410  14.630 -0.4393 -0.7607 -0.1424
 1257TIP3   OH225185   0.906   3.550  12.181  0.0706 -0.3465 -0.1055
 1257TIP3    H125186   0.845   3.600  12.236 -0.4924  0.6983 -1.6527
 1257TIP3    H225187   0.955   3.496  12.243 -3.3044 -2.1862  1.0895
 1258TIP3   OH225188   5.483   3.226   3.872  0.3649  0.3043 -0.0520
 1258TIP3    H125189   5.448   3.239   3.784 -0.1036  0.4603  0.1558
 1258TIP3    H225190   5.533   3.306   3.889  1.2931 -0.1534 -0.5633
 1259TIP3   OH225191   3.643   5.136  14.201 -0.2013  0.2032 -0.7342
 1259TIP3    H125192   3.695   5.056  14.208 -1.0720 -0.4516 -1.6437
 1259TIP3    H225193   3.564   5.109  14.155 -0.4229  1.6306 -1.2084
 1260TIP3   OH225194   0.156   1.398   3.083 -0.5215 -0.7390  0.0584
 1260TIP3    H125195   0.199   1.429   3.162  0.9310  1.0637 -1.3951
 1260TIP3    H225196   0.074   1.448   3.080  0.0383  0.1790 -0.2533
 1261TIP3   OH225197   4.282   0.189  16.265 -0.3451 -0.2315  0.4955
 1261TIP3    H125198   4.284   0.152  16.177  1.0190  1.7437 -0.3338
 1261TIP3    H225199   4.220   0.134  16.313 -1.1624 -1.2783 -1.7107
 1262TIP3   OH225200   1.060   0.254   2.220 -0.0220 -0.1946 -0.0748
 1262TIP3    H125201   1.124   0.214   2.161  1.9257  0.2087  1.7130
 1262TIP3    H225202   1.070   0.348   2.208  1.1009 -0.0814  1.6007
 1263TIP3   OH225203   6.189   2.911   1.601  0.0270  0.0872  0.1816
 1263TIP3    H125204   6.189   3.007   1.608 -4.7955  0.2642 -0.5036
 1263TIP3    H225205   6.173   2.893   1.508 -0.8903 -1.3216  0.5900
 1264TIP3   OH225206   4.609   1.933  16.625 -0.4764  0.0838  0.1409
 1264TIP3    H125207   4.624   1.839  16.618 -1.8823 -0.0273 -1.8054
 1264TIP3    H225208   4.563   1.944  16.708 -0.1792 -0.9117  0.4451
 1265TIP3   OH225209   4.712   1.580  13.115 -0.6667  0.6431  0.5613
 1265TIP3    H125210   4.650   1.557  13.046 -0.4858 -0.4908  0.7619
 1265TIP3    H225211   4.751   1.662  13.086 -0.3708  0.0210 -0.8421
 1266TIP3   OH225212   2.739   3.018   0.027 -0.3846 -1.0183 -0.2674
 1266TIP3    H125213   2.676   3.079   0.064 -1.0561 -0.9132 -1.5847
 1266TIP3    H225214   2.813   3.074  -0.000  0.7583 -1.2450  2.1947
 1267TIP3   OH225215   1.329   4.584   3.725 -0.1782 -0.7284 -0.2769
 1267TIP3    H125216   1.397   4.555   3.664 -0.1051 -0.2465 -0.4311
 1267TIP3    H225217   1.302   4.505   3.771 -0.2492 -1.1001 -0.9525
 1268TIP3   OH225218   4.919   1.594  12.169 -0.6291 -0.4527 -0.3842
 1268TIP3    H125219   4.840   1.642  12.148 -0.2701  0.2387 -0.1637
 1268TIP3    H225220   4.991   1.649  12.138 -0.0849  0.5634  2.4774
 1269TIP3   OH225221   0.178   0.056  16.641 -0.2651  0.1519  0.4903
 1269TIP3    H125222   0.091   0.093  16.625 -0.7872 -0.3062  2.1309
 1269TIP3    H225223   0.161  -0.034  16.669  0.8725 -0.6356 -1.2901
 1270TIP3   OH225224   3.805   0.147   0.467 -0.7669  0.2692  0.2102
 1270TIP3    H125225   3.718   0.108   0.469 -1.3015  1.4646  0.5497
 1270TIP3    H225226   3.836   0.141   0.557 -1.0031  0.9585  0.3402
 1271TIP3   OH225227   6.354   3.964   3.825 -0.3569  0.2993  0.1644
 1271TIP3    H125228   6.323   3.954   3.915  0.0688  0.7790  0.3684
 1271TIP3    H225229   6.449   3.967   3.833 -0.2433 -1.2305 -0.4552
 1272TIP3   OH225230   0.348   3.146  15.443 -0.6377 -0.8937  0.1231
 1272TIP3    H125231   0.260   3.108  15.447 -0.4723 -1.1306  1.9081
 1272TIP3    H225232   0.406   3.075  15.470 -0.0059 -0.3707  0.1599
 1273TIP3   OH225233   4.344   5.699  13.474 -0.0961  0.5594 -0.0445
 1273TIP3    H125234   4.383   5.775  13.431 -0.4325  0.9649  0.3527
 1273TIP3    H225235   4.313   5.733  13.559 -0.7855  0.1165 -0.1151
 1274TIP3   OH225236   5.353   5.082  12.608 -0.7378 -0.2101 -0.4358
 1274TIP3    H125237   5.386   5.173  12.612 -0.3134 -0.4228  1.5365
 1274TIP3    H225238   5.349   5.063  12.515  1.6668  0.9759 -0.8518
 1275TIP3   OH225239   2.384   6.393   2.688 -0.1764  0.3148 -0.9327
 1275TIP3    H125240   2.406   6.455   2.618 -1.2572  0.8710 -0.7823
 1275TIP3    H225241   2.290   6.379   2.679 -0.4534  0.9384  0.8591
 1276TIP3   OH225242   4.805   6.697  14.977  0.2146  0.5776  0.4284
 1276TIP3    H125243   4.821   6.650  14.896  0.3409  0.2762  0.6289
 1276TIP3    H225244   4.889   6.695  15.023 -0.5272 -1.4823  1.7316
 1277TIP3   OH225245   0.733   0.338  10.513  0.8868  0.0942  0.2896
 1277TIP3    H125246   0.737   0.245  10.493 -0.1990  0.0854  0.0916
 1277TIP3    H225247   0.646   0.365  10.484  1.4752  1.3297 -0.3619
 1278TIP3   OH225248   1.808   4.075  15.554 -0.0229  0.2835 -0.4620
 1278TIP3    H125249   1.729   4.055  15.504 -0.2495 -0.4381  0.1735
 1278TIP3    H225250   1.859   3.995  15.551 -0.1500  0.1607  0.6715
 1279TIP3   OH225251   0.616   3.558   5.971  0.3284  0.0672 -0.0154
 1279TIP3    H125252   0.664   3.525   6.047 -0.0636 -1.3855 -0.3763
 1279TIP3    H225253   0.557   3.624   6.006  1.6194  0.9133  0.6343
 1280TIP3   OH225254   1.246   3.100   2.320 -0.0697 -0.6386 -0.1394
 1280TIP3    H125255   1.269   3.062   2.405 -0.9015  0.5307  0.6362
 1280TIP3    H225256   1.323   3.085   2.265 -0.6323 -4.0414 -0.0947
 1281TIP3   OH225257   5.099   5.175  13.858  0.4006  0.5213  0.4135
 1281TIP3    H125258   5.004   5.162  13.845  0.5241 -0.7977  0.7694
 1281TIP3    H225259   5.136   5.168  13.770  0.0744  1.9191  0.1577
 1282TIP3   OH225260   1.744   5.001   0.063  0.1135  0.7142 -0.1071
 1282TIP3    H125261   1.804   5.047   0.006  1.1381  1.0838  1.2545
 1282TIP3    H225262   1.686   4.954   0.003  1.6265  0.4983 -1.4389
 1283TIP3   OH225263   3.290   0.070   4.403  0.3736 -0.0622 -0.2336
 1283TIP3    H125264   3.227  -0.001   4.391  1.2465 -1.3049  2.2240
 1283TIP3    H225265   3.374   0.033   4.378  1.1651 -0.6230  3.0108
 1284TIP3   OH225266   0.334   0.819  12.686  0.8794  0.6897  0.8536
 1284TIP3    H125267   0.305   0.777  12.766  1.4908  0.8576  1.1662
 1284TIP3    H225268   0.263   0.878  12.662  0.1549 -0.2870  0.5849
 1285TIP3   OH225269   3.283   0.217   5.824  0.6337 -0.2039 -0.4389
 1285TIP3    H125270   3.198   0.246   5.791 -0.3244 -1.0998  1.1520
 1285TIP3    H225271   3.320   0.164   5.754 -1.0195 -1.4583 -0.3854
 1286TIP3   OH225272   4.507   2.004  11.211 -0.2929 -0.4114 -0.0068
 1286TIP3    H125273   4.466   1.918  11.212 -3.1778  0.9070  1.7111
 1286TIP3    H225274   4.434   2.065  11.201  1.5673  1.8963  0.0523
 1287TIP3   OH225275   2.338   2.323   5.509  0.4164 -0.2576  0.1100
 1287TIP3    H125276   2.388   2.399   5.538  0.4838 -1.7784  4.3716
 1287TIP3    H225277   2.247   2.355   5.504  0.3378  0.0244  2.5358
 1288TIP3   OH225278   4.327   3.662   2.564  0.3068  0.2923  0.0466
 1288TIP3    H125279   4.289   3.619   2.487  0.3696  0.3883 -0.0371
 1288TIP3    H225280   4.379   3.734   2.529  0.5815  0.1497  0.1606
 1289TIP3   OH225281   6.429   4.552   5.929  0.5407  0.1611 -0.5190
 1289TIP3    H125282   6.402   4.591   6.012 -0.1237  0.3353 -0.8106
 1289TIP3    H225283   6.517   4.516   5.946  0.0190 -0.6397  0.5058
 1290TIP3   OH225284   6.031   3.579  15.595 -0.3963  0.9002 -0.6608
 1290TIP3    H125285   6.113   3.628  15.581  0.8829 -1.0258 -0.0785
 1290TIP3    H225286   5.972   3.643  15.634  0.5824  2.5362 -1.7651
 1291TIP3   OH225287   0.844   5.514  14.930  0.3753  0.5548 -0.2348
 1291TIP3    H125288   0.779   5.523  14.860  1.1031 -0.3227 -1.0295
 1291TIP3    H225289   0.904   5.587  14.916  1.0452 -0.1569 -1.0899
 1292TIP3   OH225290   0.474   5.720  14.111 -0.5484 -0.0359 -0.2512
 1292TIP3    H125291   0.557   5.693  14.070 -1.2422  0.6024 -2.1579
 1292TIP3    H225292   0.407   5.676  14.060 -1.3773 -0.9233  1.5961
 1293TIP3   OH225293   1.710   1.022   2.759 -0.3216  0.0529  0.2537
 1293TIP3    H125294   1.768   1.089   2.722 -2.8852  1.1219 -2.0136
 1293TIP3    H225295   1.750   0.939   2.735  1.7814  0.7364  1.2623
 1294TIP3   OH225296   3.924   5.808  11.636  0.5657  0.1162  0.6163
 1294TIP3    H125297   3.840   5.845  11.612  0.9606  0.0382 -0.8925
 1294TIP3    H225298   3.965   5.875  11.692  1.5285  2.2479 -2.5388
 1295TIP3   OH225299   2.760   6.284  12.844  0.7707 -0.1591 -1.2020
 1295TIP3    H125300   2.705   6.224  12.793  1.9773  0.1405 -2.8948
 1295TIP3    H225301   2.728   6.371  12.821 -1.8975 -0.0707  2.2909
 1296TIP3   OH225302   2.963   3.321   1.014  0.0042 -0.1229 -0.0741
 1296TIP3    H125303   2.883   3.327   0.963 -0.4079 -0.5619  0.5184
 1296TIP3    H225304   3.029   3.365   0.960 -0.5745  0.0178 -0.6730
 1297TIP3   OH225305   0.523   2.470  11.470  0.4685  0.8936  0.0720
 1297TIP3    H125306   0.457   2.538  11.455 -0.9224 -0.3693  0.4041
 1297TIP3    H225307   0.606   2.517  11.465 -0.4683  2.6613  0.4766
 1298TIP3   OH225308   4.926   4.308  15.322  0.1973 -0.8945  0.5381
 1298TIP3    H125309   4.843   4.275  15.356 -0.7357  2.0026  1.2428
 1298TIP3    H225310   4.985   4.308  15.398  0.4576 -1.7000  0.3414
 1299TIP3   OH225311   1.794   2.378   6.727 -0.5537  0.4010 -0.2317
 1299TIP3    H125312   1.847   2.306   6.761 -1.3302 -0.6208 -1.1292
 1299TIP3    H225313   1.818   2.384   6.634  0.2169  1.9516  0.0499
 1300TIP3   OH225314   4.843   0.487  13.365  0.3009  0.1064  0.0967
 1300TIP3    H125315   4.875   0.476  13.454  0.6654 -0.6246 -0.1219
 1300TIP3    H225316   4.813   0.400  13.339  0.7959  0.1711 -0.7260
 1301TIP3   OH225317   2.929   6.123   2.877  0.2745 -0.6616  0.0100
 1301TIP3    H125318   2.896   6.166   2.956 -0.2611 -0.1018 -0.5107
 1301TIP3    H225319   3.024   6.121   2.889  0.0991 -1.7510  1.2464
 1302TIP3   OH225320   0.492   4.271  15.227  0.2922  0.8345  0.3076
 1302TIP3    H125321   0.583   4.286  15.203  0.7257  0.7615  1.8055
 1302TIP3    H225322   0.446   4.260  15.144  1.5960  1.1593 -0.4695
 1303TIP3   OH225323   5.557   0.868   2.927 -0.4764 -0.1297  0.0297
 1303TIP3    H125324   5.503   0.943   2.902 -0.4559 -0.3819 -0.7716
 1303TIP3    H225325   5.643   0.886   2.891 -0.3411 -0.2952  0.2705
 1304TIP3   OH225326   6.146   5.499   4.760 -0.3527  0.3132 -0.1616
 1304TIP3    H125327   6.092   5.578   4.771  0.4985  0.6731  1.6080
 1304TIP3    H225328   6.144   5.482   4.666  0.1827  2.9737 -0.6917
 1305TIP3   OH225329   0.582   3.171  12.412 -0.3425  0.5173 -0.1620
 1305TIP3    H125330   0.572   3.223  12.492 -1.8097 -0.2024  0.1400
 1305TIP3    H225331   0.510   3.198  12.356 -0.2685 -0.1373 -0.5792
 1306TIP3   OH225332   2.378   1.236  13.315 -0.1824 -0.2966  0.2058
 1306TIP3    H125333   2.341   1.235  13.227  0.1043 -1.2747  0.0917
 1306TIP3    H225334   2.470   1.261  13.302 -0.1419 -0.4346  0.2326
 1307TIP3   OH225335   5.477   3.458   1.042  0.0081  0.0648  0.0624
 1307TIP3    H125336   5.487   3.385   0.981  0.4556 -0.1667  0.4015
 1307TIP3    H225337   5.565   3.470   1.078  0.1721  1.4609 -0.7756
 1308TIP3   OH225338   0.411   2.060   1.394  0.0753  0.0754 -0.5884
 1308TIP3    H125339   0.502   2.088   1.396  0.7813 -2.1335 -0.4769
 1308TIP3    H225340   0.403   2.012   1.312 -0.3387 -1.8062  0.5425
 1309TIP3   OH225341   5.805   3.526   3.158  0.0490 -0.2067 -0.4830
 1309TIP3    H125342   5.782   3.493   3.246  0.2775  0.2455 -0.2541
 1309TIP3    H225343   5.811   3.447   3.104 -0.7296 -0.4376 -0.2375
 1310TIP3   OH225344   2.247   0.569  13.803 -0.2838 -0.2415  0.8100
 1310TIP3    H125345   2.214   0.483  13.830 -0.2554 -0.0034  1.6087
 1310TIP3    H225346   2.169   0.624  13.795 -0.3890 -0.5703 -0.5653
 1311TIP3   OH225347   2.519   1.529  16.769 -0.4129  0.0013  0.1025
 1311TIP3    H125348   2.555   1.575  16.693  0.4358 -0.7141  0.0654
 1311TIP3    H225349   2.590   1.471  16.798 -0.5983  0.5241  1.6570
 1312TIP3   OH225350   6.414   1.358   6.565  0.1979  0.4807  0.4670
 1312TIP3    H125351   6.406   1.453   6.567 -0.0308  0.4890 -0.6349
 1312TIP3    H225352   6.341   1.328   6.511  0.4961 -0.2897  0.4783
 1313TIP3   OH225353   0.487   6.592  12.906  0.4822  0.3678 -0.3180
 1313TIP3    H125354   0.423   6.616  12.839  1.3991 -1.9262 -2.0566
 1313TIP3    H225355   0.569   6.581  12.859  1.3321 -0.4790  1.3149
 1314TIP3   OH225356   2.696   6.559   6.174  0.0270 -0.0759 -0.1019
 1314TIP3    H125357   2.699   6.655   6.164 -1.5750 -0.1144 -1.1854
 1314TIP3    H225358   2.628   6.545   6.240  0.5096 -0.4635  0.3189
 1315TIP3   OH225359   4.091   3.740  12.942 -0.3612  0.1248 -0.3654
 1315TIP3    H125360   4.000   3.752  12.915 -0.8432 -0.9085  0.7635
 1315TIP3    H225361   4.117   3.656  12.904 -0.2097 -0.0679  0.1515
 1316TIP3   OH225362   3.361   4.442   1.123 -0.3758 -0.1028  0.1677
 1316TIP3    H125363   3.360   4.483   1.210  2.0701  2.5324 -0.9881
 1316TIP3    H225364   3.283   4.478   1.079 -0.7079 -0.1610  0.7044
 1317TIP3   OH225365   0.888   4.342   3.379 -0.3308 -0.1004 -0.5760
 1317TIP3    H125366   0.813   4.306   3.332 -0.2189  1.0431 -1.6818
 1317TIP3    H225367   0.964   4.297   3.341 -0.0522  2.3208 -3.0784
 1318TIP3   OH225368   1.044   3.402   6.441 -0.1185  0.3570  0.0143
 1318TIP3    H125369   0.958   3.386   6.401 -1.0904  0.6237  1.9786
 1318TIP3    H225370   1.065   3.492   6.416 -0.5163  0.3742 -0.2646
 1319TIP3   OH225371   2.367   2.805  11.327 -0.1555  0.6886 -0.8157
 1319TIP3    H125372   2.409   2.882  11.289  0.1779  0.3742 -1.0898
 1319TIP3    H225373   2.403   2.731  11.278  0.5014  0.2495  0.2915
 1320TIP3   OH225374   3.736   6.762  13.142 -0.1935 -0.4087 -0.2915
 1320TIP3    H125375   3.718   6.687  13.199 -2.3226 -0.7761 -1.3817
 1320TIP3    H225376   3.707   6.733  13.056  2.7826  0.2332 -1.5453
 1321TIP3   OH225377   1.515   4.712  16.881 -0.6200  0.5920  0.1387
 1321TIP3    H125378   1.475   4.638  16.837  1.4834 -0.4147 -0.1394
 1321TIP3    H225379   1.539   4.772  16.810  2.8185 -1.0541 -0.1885
 1322TIP3   OH225380   2.047   6.516   2.276 -0.3393 -0.3146  0.3285
 1322TIP3    H125381   1.981   6.506   2.207  0.2768 -0.6008 -0.2215
 1322TIP3    H225382   2.003   6.484   2.355 -0.0418 -2.8714 -0.4977
 1323TIP3   OH225383   1.912   1.220   4.033  1.5745  0.6657  0.0051
 1323TIP3    H125384   2.006   1.201   4.030  1.5234  0.0441  1.9203
 1323TIP3    H225385   1.887   1.206   4.124 -0.3857  0.8431 -0.4778
 1324TIP3   OH225386   1.018   5.104   2.308  0.0857  0.4166 -0.5128
 1324TIP3    H125387   1.103   5.097   2.264 -1.0819  0.3935 -2.8418
 1324TIP3    H225388   0.956   5.125   2.237 -1.8594  0.3796  1.1352
 1325TIP3   OH225389   5.956   2.774  16.880  0.3219 -0.0910 -0.1755
 1325TIP3    H125390   5.997   2.799  16.963  1.6102 -0.6418 -0.6363
 1325TIP3    H225391   6.000   2.693  16.855 -0.1739 -0.0125 -1.3232
 1326TIP3   OH225392   0.424   1.486   2.589  0.1875  0.3507 -0.1358
 1326TIP3    H125393   0.367   1.441   2.527  0.7056 -0.1096 -0.2881
 1326TIP3    H225394   0.506   1.436   2.586 -0.0961 -0.2482  1.6283
 1327TIP3   OH225395   5.635   2.121  12.257 -0.4181 -0.3954 -0.1125
 1327TIP3    H125396   5.589   2.120  12.173  0.7708  0.9767 -0.7986
 1327TIP3    H225397   5.727   2.111  12.234  0.0449  1.2851  0.9144
 1328TIP3   OH225398   3.808   5.477   5.986  0.1184  0.0234 -0.2894
 1328TIP3    H125399   3.841   5.389   5.969 -1.2860 -1.0471  2.2248
 1328TIP3    H225400   3.862   5.510   6.057 -0.2648  0.6470 -0.2785
 1329TIP3   OH225401   0.004   5.262   4.797 -0.5191 -0.5672 -0.0066
 1329TIP3    H125402   0.030   5.326   4.731 -0.5680 -0.4447  0.0920
 1329TIP3    H225403   0.027   5.177   4.759 -1.9014 -0.5944 -0.8134
 1330TIP3   OH225404   4.905   3.884   4.569 -0.2243 -0.2628 -0.3484
 1330TIP3    H125405   4.986   3.933   4.554 -0.3161 -0.3144 -1.0050
 1330TIP3    H225406   4.864   3.929   4.643  1.1408 -1.1529  1.0169
 1331TIP3   OH225407   1.430   4.558   2.491  0.0623 -0.0456  0.1342
 1331TIP3    H125408   1.354   4.504   2.512 -0.0880  0.1846  0.1819
 1331TIP3    H225409   1.412   4.642   2.532 -1.5059  1.3372 -3.1660
 1332TIP3   OH225410   1.151   2.806   0.297 -0.1885  0.2082 -0.2929
 1332TIP3    H125411   1.136   2.805   0.202 -0.7672 -0.2715 -0.2021
 1332TIP3    H225412   1.212   2.877   0.311  0.9261 -0.5543 -1.1800
 1333TIP3   OH225413   3.649   1.205   0.922  0.1726  0.2346 -0.8266
 1333TIP3    H125414   3.707   1.276   0.949 -1.7712  1.6760 -0.3718
 1333TIP3    H225415   3.623   1.229   0.832  0.6838 -0.6730 -1.2218
 1334TIP3   OH225416   4.350   3.371  11.824 -0.5885 -0.4820  0.0327
 1334TIP3    H125417   4.417   3.341  11.885 -0.2083  1.8761  0.8283
 1334TIP3    H225418   4.380   3.341  11.738  0.3571 -1.3232  0.6585
 1335TIP3   OH225419   4.628   3.318  12.548  0.0165  0.0184 -0.1151
 1335TIP3    H125420   4.621   3.306  12.642  0.8852  1.2242  0.1230
 1335TIP3    H225421   4.558   3.380  12.526  1.2665  1.5647  0.1321
 1336TIP3   OH225422   3.399   4.136   2.913 -0.5976 -1.0503  0.4117
 1336TIP3    H125423   3.399   4.186   2.832 -0.6389 -0.4718  0.7668
 1336TIP3    H225424   3.448   4.056   2.892 -0.7095 -0.9578 -0.2108
 1337TIP3   OH225425   5.314   2.855  12.298 -0.1037  0.8249 -0.0237
 1337TIP3    H125426   5.250   2.786  12.313 -0.4407  1.4200  1.4167
 1337TIP3    H225427   5.397   2.817  12.328 -0.1466  0.7602  0.0127
 1338TIP3   OH225428   1.254   2.465  11.486  0.1729 -0.7461  0.4859
 1338TIP3    H125429   1.291   2.540  11.532 -0.6181  0.7289 -1.2028
 1338TIP3    H225430   1.238   2.400  11.554  1.5596  0.3415  1.8726
 1339TIP3   OH225431   5.122   4.788  12.481  0.6477  0.1939 -0.1223
 1339TIP3    H125432   5.203   4.792  12.429 -0.5339 -0.4455 -2.0803
 1339TIP3    H225433   5.071   4.863  12.452  0.2091  0.1552  0.5434
 1340TIP3   OH225434   3.197   4.369  12.574 -0.2232  0.3235 -0.3005
 1340TIP3    H125435   3.255   4.438  12.607 -0.1474 -0.4358  1.1734
 1340TIP3    H225436   3.256   4.300  12.544 -0.3307 -0.2042  0.6674
 1341TIP3   OH225437   2.033   0.473   3.510 -0.2690  0.0416 -0.0425
 1341TIP3    H125438   2.101   0.411   3.482 -0.8598 -1.8399  2.5356
 1341TIP3    H225439   2.023   0.456   3.603 -0.1276  4.4045  0.8383
 1342TIP3   OH225440   3.172   1.307  14.437  0.8344 -1.0116  0.0310
 1342TIP3    H125441   3.079   1.296  14.419  0.3839  2.3920  0.1127
 1342TIP3    H225442   3.177   1.316  14.533  1.1871 -0.5996 -0.0246
 1343TIP3   OH225443   2.323   5.371  12.861  0.0489  0.0096  0.2541
 1343TIP3    H125444   2.332   5.381  12.767 -3.9252 -1.4716 -0.3775
 1343TIP3    H225445   2.390   5.308  12.886  1.2360  0.5424 -1.5467
 1344TIP3   OH225446   3.757   0.341   5.148 -0.0833 -0.4273 -0.2395
 1344TIP3    H125447   3.699   0.401   5.102  0.6788  0.8368  0.4273
 1344TIP3    H225448   3.833   0.331   5.091  0.2518  0.0658  0.1151
 1345TIP3   OH225449   5.939   3.907  15.333  0.3638  0.3468  1.0226
 1345TIP3    H125450   5.874   3.974  15.316 -0.7625 -1.1950 -0.9669
 1345TIP3    H225451   5.899   3.825  15.303  1.6444 -1.2583  3.4917
 1346TIP3   OH225452   6.117   5.710   5.815  0.0990 -0.2514  0.0295
 1346TIP3    H125453   6.090   5.658   5.892  3.4620 -0.3435  1.2226
 1346TIP3    H225454   6.174   5.651   5.766 -2.0291 -0.1851 -2.6243
 1347TIP3   OH225455   4.324   2.489   0.164  0.0238 -0.2436  0.1965
 1347TIP3    H125456   4.348   2.550   0.095  0.0541  1.9874  2.1152
 1347TIP3    H225457   4.392   2.499   0.231 -0.8992 -1.1311  1.2996
 1348TIP3   OH225458   2.498   5.721  16.560  0.1523  0.0975 -0.0272
 1348TIP3    H125459   2.436   5.714  16.632 -0.5048  1.1729 -0.4773
 1348TIP3    H225460   2.556   5.646  16.570 -0.9462 -0.6604  0.6617
 1349TIP3   OH225461   3.694   1.951  12.330  0.0468 -0.1456  0.7568
 1349TIP3    H125462   3.618   1.970  12.385  0.1842 -0.7064  1.1349
 1349TIP3    H225463   3.656   1.925  12.246 -0.1631  0.4955  0.6490
 1350TIP3   OH225464   6.659   4.056   2.553  0.4313  0.5327  0.1409
 1350TIP3    H125465   6.654   4.026   2.462 -0.2815 -1.7491  0.9093
 1350TIP3    H225466   6.605   3.994   2.602  1.4738  1.2567  2.2637
 1351TIP3   OH225467   2.176   3.181   5.015  0.2073  1.1029 -0.6621
 1351TIP3    H125468   2.090   3.208   5.048  0.2273 -0.4660  0.7717
 1351TIP3    H225469   2.216   3.134   5.088  1.6840  0.5257 -1.8129
 1352TIP3   OH225470   5.324   4.788  14.054 -0.1853  0.2093  0.3790
 1352TIP3    H125471   5.280   4.708  14.082  0.2905 -0.6889 -1.4037
 1352TIP3    H225472   5.368   4.820  14.133 -1.2501 -0.7036  1.3514
 1353TIP3   OH225473   4.602   0.374   1.223  0.0300  0.7651 -0.2032
 1353TIP3    H125474   4.678   0.430   1.237  0.3042  0.5522 -0.8466
 1353TIP3    H225475   4.625   0.291   1.264 -0.0372  0.8404 -0.0082
 1354TIP3   OH225476   6.655   3.460   3.815  0.1750  0.0793  0.1679
 1354TIP3    H125477   6.698   3.448   3.899  0.0281 -0.8927  0.1057
 1354TIP3    H225478   6.725   3.490   3.756  1.1518 -3.0063 -0.3267
 1355TIP3   OH225479   3.894   2.813   4.636  0.1807 -0.0730 -0.6674
 1355TIP3    H125480   3.856   2.804   4.723 -2.1437  1.0871 -1.5423
 1355TIP3    H225481   3.888   2.725   4.598  1.3196 -0.6125  0.3616
 1356TIP3   OH225482   3.727   4.158  12.759  0.0045 -0.2754  0.0372
 1356TIP3    H125483   3.753   4.174  12.668 -2.2518  0.1578 -0.5606
 1356TIP3    H225484   3.633   4.176  12.760 -0.3106 -1.9186  2.0852
 1357TIP3   OH225485   6.514   6.242   4.510 -0.1876 -0.4239 -0.2571
 1357TIP3    H125486   6.525   6.324   4.557 -0.2585  0.1653 -1.2440
 1357TIP3    H225487   6.485   6.269   4.422 -0.7307 -1.5214 -0.4216
 1358TIP3   OH225488   3.670   6.536  11.764 -0.3382  0.2117 -0.0807
 1358TIP3    H125489   3.647   6.444  11.749  0.6344  0.3326 -2.6305
 1358TIP3    H225490   3.691   6.541  11.857 -1.7790 -1.8383  0.3796
 1359TIP3   OH225491   4.800   0.543   4.313 -0.4322  0.1500  0.1718
 1359TIP3    H125492   4.840   0.620   4.355  0.1385  1.5866 -2.8621
 1359TIP3    H225493   4.855   0.527   4.236 -1.4124 -2.4422 -0.0176
 1360TIP3   OH225494   0.597   2.525   3.542  0.5644 -0.6365  0.5322
 1360TIP3    H125495   0.516   2.548   3.586 -0.6681 -3.6894 -0.0033
 1360TIP3    H225496   0.664   2.530   3.610  0.1450  2.7235  0.7857
 1361TIP3   OH225497   1.319   2.933   3.719 -0.0534  0.5312 -0.8328
 1361TIP3    H125498   1.227   2.958   3.717 -0.3605 -0.1828  2.0265
 1361TIP3    H225499   1.318   2.840   3.741  1.3888  0.9048  0.9064
 1362TIP3   OH225500   3.708   3.399   0.004  0.4039 -0.1891  0.2214
 1362TIP3    H125501   3.702   3.317   0.053 -0.8967 -0.1210  0.1981
 1362TIP3    H225502   3.686   3.467   0.068 -0.4611 -0.0282 -0.2401
 1363TIP3   OH225503   1.393   2.213   3.686  0.1333  0.0507  0.5339
 1363TIP3    H125504   1.423   2.123   3.673  0.3887  0.6021 -3.3706
 1363TIP3    H225505   1.298   2.207   3.687  0.1735 -0.4120  1.6282
 1364TIP3   OH225506   3.880   1.483  13.488  0.2297 -0.0963 -0.0354
 1364TIP3    H125507   3.859   1.547  13.557  1.2026  0.0176  0.1572
 1364TIP3    H225508   3.824   1.509  13.415  0.8124  1.1688 -0.0569
 1365TIP3   OH225509   6.464   6.066  10.962 -0.4418  0.4852 -0.3572
 1365TIP3    H125510   6.472   6.057  10.867 -0.5690  3.2823 -0.7000
 1365TIP3    H225511   6.384   6.018  10.985 -0.2971 -0.3665 -1.6407
 1366TIP3   OH225512   5.504   2.707   0.383 -0.0110 -0.6993 -0.0668
 1366TIP3    H125513   5.415   2.731   0.409 -0.7268 -2.6551 -0.6169
 1366TIP3    H225514   5.494   2.671   0.295  1.3546 -0.7676 -0.2011
 1367TIP3   OH225515   2.772   5.772   5.335 -0.1415 -0.3573 -0.0237
 1367TIP3    H125516   2.837   5.790   5.267 -0.7320 -2.3161 -1.1278
 1367TIP3    H225517   2.694   5.820   5.308 -0.4224 -1.2484 -0.8413
 1368TIP3   OH225518   4.689   4.588  14.053  0.3726 -0.2590  0.4275
 1368TIP3    H125519   4.761   4.646  14.029  0.4640  0.4916  2.3540
 1368TIP3    H225520   4.732   4.514  14.097  0.0950 -0.6733 -0.0010
 1369TIP3   OH225521   1.819   4.861  16.767 -0.4460  0.7912 -0.3722
 1369TIP3    H125522   1.751   4.794  16.766  0.6034 -0.3169  0.6905
 1369TIP3    H225523   1.856   4.860  16.679  0.2458 -0.7481 -0.0797
 1370TIP3   OH225524   0.499   6.345   0.138 -0.3476 -0.1119  0.4709
 1370TIP3    H125525   0.560   6.419   0.143 -0.9190  0.2845  1.8016
 1370TIP3    H225526   0.440   6.358   0.212  0.0154 -2.3408  1.1660
 1371TIP3   OH225527   6.484   4.342  15.846 -0.4215  0.6439  0.4734
 1371TIP3    H125528   6.529   4.259  15.827 -0.5195  0.6247  0.3295
 1371TIP3    H225529   6.555   4.405  15.860 -0.3519  0.6509  0.0802
 1372TIP3   OH225530   1.903   5.251   4.276 -0.0681 -0.5797 -0.0199
 1372TIP3    H125531   1.970   5.182   4.279  2.0946  1.4853  0.9592
 1372TIP3    H225532   1.916   5.299   4.357 -1.0257  1.4523 -1.0570
 1373TIP3   OH225533   1.261   1.422  16.407  0.4453  0.0275  0.2661
 1373TIP3    H125534   1.311   1.475  16.345  1.5075 -1.2377  0.0021
 1373TIP3    H225535   1.274   1.332  16.377 -1.0607 -0.4082  0.8843
 1374TIP3   OH225536   0.225   0.874  11.340 -0.5562  0.0327 -0.1642
 1374TIP3    H125537   0.244   0.931  11.415 -0.0214 -1.1038  0.5873
 1374TIP3    H225538   0.299   0.813  11.338 -0.7911 -0.2235 -1.3567
 1375TIP3   OH225539   1.660   1.444   3.913 -0.4113 -1.1767 -0.3137
 1375TIP3    H125540   1.659   1.443   4.008  0.8143 -0.9524 -0.2965
 1375TIP3    H225541   1.739   1.493   3.890 -0.2860 -1.8926 -1.4404
 1376TIP3   OH225542   1.493   0.856   3.462 -0.1370 -0.0877  0.1382
 1376TIP3    H125543   1.517   0.809   3.382  1.5611  1.5347 -0.3429
 1376TIP3    H225544   1.562   0.833   3.525  0.0561  0.8445  0.2673
 1377TIP3   OH225545   0.371   0.489   2.026  0.5795 -0.1856 -0.0593
 1377TIP3    H125546   0.309   0.489   1.953  0.9255 -0.0919 -0.3520
 1377TIP3    H225547   0.349   0.569   2.075  1.8319  0.9774 -1.3330
 1378TIP3   OH225548   5.351   5.853  15.763 -0.0116 -0.1953 -0.5195
 1378TIP3    H125549   5.299   5.827  15.688 -1.2966  0.7146  0.0426
 1378TIP3    H225550   5.411   5.919  15.729  0.0046 -0.4184 -0.9242
 1379TIP3   OH225551   6.580   1.130   1.322 -0.4870 -0.0340 -0.3165
 1379TIP3    H125552   6.489   1.149   1.300 -0.3555  1.8365  0.6684
 1379TIP3    H225553   6.616   1.214   1.350  1.9630 -0.4645 -2.0825
 1380TIP3   OH225554   5.143   2.190  12.508  0.2284 -0.3854  0.6375
 1380TIP3    H125555   5.052   2.217  12.521  0.0739 -0.9473  0.7363
 1380TIP3    H225556   5.191   2.233  12.579  0.2060  0.7432 -0.0176
 1381TIP3   OH225557   0.736   0.229   3.714 -0.1649 -0.2559  0.5922
 1381TIP3    H125558   0.754   0.158   3.776 -0.9071  0.4792  1.6711
 1381TIP3    H225559   0.665   0.195   3.658  0.1933 -0.7517  0.4398
 1382TIP3   OH225560   5.866   2.683   0.466 -0.0491 -0.4517  0.6200
 1382TIP3    H125561   5.850   2.649   0.554  0.5094  0.6738  1.1670
 1382TIP3    H225562   5.825   2.769   0.465 -0.7443 -0.7808 -0.4904
 1383TIP3   OH225563   3.599   5.383  14.440 -0.2461 -0.4652 -0.3315
 1383TIP3    H125564   3.520   5.410  14.487  0.7190  0.8226  0.5990
 1383TIP3    H225565   3.664   5.370  14.509  0.4566 -1.2039 -1.1185
 1384TIP3   OH225566   0.722   3.353   5.545 -0.0811 -0.2287  0.5962
 1384TIP3    H125567   0.628   3.358   5.528  0.1442 -2.3089 -1.6843
 1384TIP3    H225568   0.751   3.444   5.549 -1.7722  0.4359 -1.3607
 1385TIP3   OH225569   1.538   0.794  13.332 -0.0655 -0.1397 -0.3580
 1385TIP3    H125570   1.462   0.798  13.274  0.6727  0.2578 -1.3089
 1385TIP3    H225571   1.509   0.741  13.406 -1.1943 -0.1806 -0.8223
 1386TIP3   OH225572   0.079   2.793   4.876  0.0205 -0.1132 -0.5511
 1386TIP3    H125573   0.125   2.748   4.947 -1.1476  1.2885  1.1532
 1386TIP3    H225574   0.022   2.726   4.837  0.7936 -0.9337 -0.2755
 1387TIP3   OH225575   2.655   3.988  12.728 -0.5377 -0.0653  0.2880
 1387TIP3    H125576   2.734   3.962  12.681 -1.0530  2.6148 -2.1633
 1387TIP3    H225577   2.633   3.911  12.781  1.7305 -2.1153 -1.6171
 1388TIP3   OH225578   0.289   3.780  13.845  0.7984  0.3176  0.2633
 1388TIP3    H125579   0.205   3.796  13.803  1.0893 -2.0498 -1.3245
 1388TIP3    H225580   0.269   3.720  13.917  1.3682 -2.0555 -1.4857
 1389TIP3   OH225581   4.706   5.228   1.844  0.0938 -0.3692 -0.1398
 1389TIP3    H125582   4.719   5.182   1.761 -1.3026 -0.6578 -0.1987
 1389TIP3    H225583   4.762   5.181   1.906 -0.5556 -1.5447 -0.4245
 1390TIP3   OH225584   4.860   6.133  15.560 -0.4813 -0.4445 -0.2655
 1390TIP3    H125585   4.870   6.056  15.616 -0.6707 -0.1298  0.1946
 1390TIP3    H225586   4.949   6.151  15.529  0.0007  0.7846  1.7641
 1391TIP3   OH225587   1.480   1.003  11.829 -0.2822  0.2886 -0.0404
 1391TIP3    H125588   1.391   1.007  11.866  0.0985 -0.8971  1.0352
 1391TIP3    H225589   1.538   1.001  11.906  0.5701 -1.1355 -0.7025
 1392TIP3   OH225590   6.559   1.686  17.126 -0.0391 -0.2119  0.1770
 1392TIP3    H125591   6.630   1.700  17.062  0.8719  1.8213  1.5817
 1392TIP3    H225592   6.566   1.594  17.149  1.2408 -0.3769 -0.7947
 1393TIP3   OH225593   2.872   2.155   2.515 -0.0201  0.2067 -0.1943
 1393TIP3    H125594   2.939   2.197   2.461  0.0306  0.5938  0.1720
 1393TIP3    H225595   2.820   2.104   2.453  0.3251  0.2781 -0.5447
 1394TIP3   OH225596   6.475   6.075  12.399  0.1859  0.5228 -0.5742
 1394TIP3    H125597   6.525   6.017  12.341 -0.3886  1.7578 -2.3581
 1394TIP3    H225598   6.401   6.022  12.427  0.8299 -0.3133 -0.4142
 1395TIP3   OH225599   1.412   0.310  11.215 -0.7426 -0.2278  0.3568
 1395TIP3    H125600   1.477   0.252  11.255  0.3053  0.4061 -0.4160
 1395TIP3    H225601   1.449   0.333  11.130 -1.2865  1.3261  0.5226
 1396TIP3   OH225602   5.847   0.110   5.621  0.2021 -0.4084 -0.1053
 1396TIP3    H125603   5.835   0.029   5.571 -0.3231  1.0735 -2.4559
 1396TIP3    H225604   5.760   0.130   5.655  0.2288 -0.5661  0.0553
 1397TIP3   OH225605   1.630   1.499  15.490 -0.6745  0.4158 -0.2952
 1397TIP3    H125606   1.655   1.540  15.572  1.1233  0.4055 -0.8071
 1397TIP3    H225607   1.685   1.421  15.484  0.2772  1.2055 -2.1890
 1398TIP3   OH225608   6.198   4.793   1.428  0.0050  0.3476  0.3657
 1398TIP3    H125609   6.269   4.767   1.369  0.8035  1.3146  0.8862
 1398TIP3    H225610   6.153   4.864   1.383 -1.0118 -0.6496 -0.2222
 1399TIP3   OH225611   2.900   6.032   6.068  0.2549  0.1733 -0.3165
 1399TIP3    H125612   2.822   6.050   6.119  0.7801  1.2620  0.0990
 1399TIP3    H225613   2.883   6.072   5.983  0.1110 -0.1230 -0.4295
 1400TIP3   OH225614   2.438   6.243  13.271  0.0530 -0.2544 -0.2992
 1400TIP3    H125615   2.499   6.214  13.338  0.1924 -1.4269 -0.9230
 1400TIP3    H225616   2.493   6.270  13.197 -0.1738 -1.1679 -0.8053
 1401TIP3   OH225617   2.746   3.197   4.639 -0.0580 -0.1006 -0.4620
 1401TIP3    H125618   2.807   3.268   4.658  1.4108 -1.4419 -0.0194
 1401TIP3    H225619   2.788   3.147   4.569 -0.1696 -1.5887  0.4971
 1402TIP3   OH225620   3.481   4.848  13.408  0.2917  0.2220 -0.1015
 1402TIP3    H125621   3.498   4.784  13.339  0.6777 -0.3441  0.5095
 1402TIP3    H225622   3.483   4.797  13.489  2.3800  1.3027  0.5495
 1403TIP3   OH225623   6.066   1.862   4.461  0.4580 -0.0511  0.0921
 1403TIP3    H125624   6.135   1.918   4.496  0.9800 -1.7113  1.7699
 1403TIP3    H225625   5.997   1.865   4.527  1.6471 -3.5822  1.6081
 1404TIP3   OH225626   4.497   3.754   6.073  0.3270 -0.2182 -0.2087
 1404TIP3    H125627   4.429   3.693   6.046  0.0889  0.7081 -1.7112
 1404TIP3    H225628   4.504   3.740   6.168 -2.6509  0.3765  0.1568
 1405TIP3   OH225629   5.375   5.704  14.904  0.1341  0.0510 -0.1663
 1405TIP3    H125630   5.462   5.746  14.902 -0.8049  2.0920  0.2923
 1405TIP3    H225631   5.356   5.686  14.813 -0.1905  2.3136 -0.5912
 1406TIP3   OH225632   3.580   3.613  14.280  0.3099 -0.1994 -0.0659
 1406TIP3    H125633   3.527   3.663  14.342 -0.9181 -0.5416 -0.8116
 1406TIP3    H225634   3.516   3.563  14.229  1.2107  0.6484 -2.1037
 1407TIP3   OH225635   3.101   5.452  14.350 -0.1553  0.1985  0.3448
 1407TIP3    H125636   3.085   5.492  14.264  0.6066  0.5062  0.3384
 1407TIP3    H225637   3.062   5.513  14.413  0.7059  0.8007  0.3138
 1408TIP3   OH225638   0.092   4.297  14.637  0.6016  0.3726  0.2746
 1408TIP3    H125639   0.126   4.294  14.726  1.3201  0.0477 -0.0121
 1408TIP3    H225640   0.036   4.219  14.631  0.1835  0.6482  0.5919
 1409TIP3   OH225641   4.288   0.175  14.185  0.6184  0.0714 -0.4123
 1409TIP3    H125642   4.198   0.171  14.152  0.7253 -0.9733 -0.5927
 1409TIP3    H225643   4.319   0.262  14.161 -0.2812  0.3663 -0.5216
 1410TIP3   OH225644   6.234   5.352  10.877  0.4691 -0.5689 -0.2921
 1410TIP3    H125645   6.182   5.277  10.849  1.8927 -1.1394 -1.5433
 1410TIP3    H225646   6.282   5.321  10.954 -1.2179  0.0411  1.0159
 1411TIP3   OH225647   3.472   3.188   1.292 -0.2144  0.3875 -0.2920
 1411TIP3    H125648   3.464   3.160   1.201 -0.2479  0.2190 -0.2375
 1411TIP3    H225649   3.522   3.118   1.334  0.0007  0.5762 -0.2339
 1412TIP3   OH225650   4.279   3.290  13.753 -0.0127  0.3548  0.8025
 1412TIP3    H125651   4.284   3.376  13.711  2.3843 -0.6038 -0.9796
 1412TIP3    H225652   4.241   3.233  13.686 -0.1038 -0.3107  1.4146
 1413TIP3   OH225653   1.099   1.565  11.336  0.4314  0.0431  0.4353
 1413TIP3    H125654   1.132   1.655  11.334  0.0716  0.1601 -1.5661
 1413TIP3    H225655   1.037   1.561  11.263  0.5280 -1.8654  0.4410
 1414TIP3   OH225656   2.172   4.501  11.653  0.1626  0.0863 -0.2858
 1414TIP3    H125657   2.177   4.488  11.558 -1.0297 -0.3078 -0.3059
 1414TIP3    H225658   2.186   4.413  11.689  0.0471  0.1404 -0.1134
 1415TIP3   OH225659   1.238   2.551  16.132 -0.0549  0.1325  0.0355
 1415TIP3    H125660   1.322   2.546  16.086 -0.6819 -0.6608 -1.0461
 1415TIP3    H225661   1.177   2.502  16.076 -1.1984  0.5526  0.8984
 1416TIP3   OH225662   2.002   1.681   2.168 -0.3316  0.3739 -0.0808
 1416TIP3    H125663   2.031   1.652   2.081  2.9758  1.1299  0.7089
 1416TIP3    H225664   1.908   1.662   2.169  0.0381 -1.9810 -2.8644
 1417TIP3   OH225665   2.052   4.983   1.630  0.0661 -0.1114 -0.1903
 1417TIP3    H125666   1.966   4.962   1.594  0.3080  1.2263 -1.5638
 1417TIP3    H225667   2.042   4.967   1.724 -0.2600 -4.7173 -0.8519
 1418TIP3   OH225668   6.773   3.729  16.663  0.6491 -0.0312  0.1883
 1418TIP3    H125669   6.708   3.773  16.718 -0.8613  1.0603 -2.3886
 1418TIP3    H225670   6.752   3.636  16.670 -1.7958  0.3831 -1.3326
 1419TIP3   OH225671   4.079   3.453   4.912 -0.2773  0.2327  0.1877
 1419TIP3    H125672   4.012   3.522   4.917 -0.9059 -0.4162  0.9015
 1419TIP3    H225673   4.088   3.423   5.003  1.0429  0.3660  0.1071
 1420TIP3   OH225674   4.685   4.419   2.800 -0.4389  0.3349 -0.4139
 1420TIP3    H125675   4.739   4.349   2.836 -0.0979 -0.1733 -1.8495
 1420TIP3    H225676   4.610   4.374   2.760 -0.5143  0.8217 -0.8314
 1421TIP3   OH225677   1.272   1.242   2.388  0.3459 -0.2113 -0.2752
 1421TIP3    H125678   1.308   1.251   2.300 -1.0158 -0.3961 -0.8612
 1421TIP3    H225679   1.276   1.148   2.406 -0.8367 -0.3661 -0.7781
 1422TIP3   OH225680   3.318   2.451   3.913 -0.0716 -0.0507  0.3230
 1422TIP3    H125681   3.315   2.451   3.818  1.4953  0.7884  0.2514
 1422TIP3    H225682   3.302   2.360   3.938  2.4103 -0.8469 -0.8712
 1423TIP3   OH225683   3.869   1.758  13.004 -0.3803  0.1255 -0.2224
 1423TIP3    H125684   3.868   1.702  12.926  0.2773 -0.2335  0.0274
 1423TIP3    H225685   3.962   1.775  13.020 -0.4610 -0.6234  1.0746
 1424TIP3   OH225686   6.627   2.873   1.663  0.4865 -0.1957  0.1906
 1424TIP3    H125687   6.717   2.854   1.636  0.8000  0.9815  0.3895
 1424TIP3    H225688   6.616   2.823   1.743  1.4033  0.6464  0.8633
 1425TIP3   OH225689   2.362   3.935  13.649  0.1004 -0.1308  0.1253
 1425TIP3    H125690   2.269   3.923  13.629  0.0151 -0.0042  0.4334
 1425TIP3    H225691   2.404   3.855  13.618  0.4237  1.2853 -3.2440
 1426TIP3   OH225692   0.990   1.415  14.003 -0.0663 -0.4940 -0.0368
 1426TIP3    H125693   0.927   1.375  13.944 -1.1073 -1.2905  1.5805
 1426TIP3    H225694   1.065   1.436  13.947 -1.5947  0.1022 -1.8923
 1427TIP3   OH225695   3.596   6.781  13.598  0.1831 -0.1346 -0.0040
 1427TIP3    H125696   3.513   6.818  13.569 -0.0063  0.6348  1.4998
 1427TIP3    H225697   3.575   6.692  13.624 -0.4557  0.5008  1.7005
 1428TIP3   OH225698   2.490   0.381   4.077  0.0495  0.0156  0.3247
 1428TIP3    H125699   2.559   0.361   4.140  0.1750  1.0017  0.5090
 1428TIP3    H225700   2.505   0.473   4.053  0.6049 -0.6133 -1.8749
 1429TIP3   OH225701   6.548   0.926   2.776 -0.1574  0.3450  0.5115
 1429TIP3    H125702   6.516   0.909   2.864 -0.7415  1.5757  0.5463
 1429TIP3    H225703   6.543   1.021   2.767  1.0429  0.3293 -0.4144
 1430TIP3   OH225704   6.433   6.763   1.813  0.3368  0.1717  0.0443
 1430TIP3    H125705   6.393   6.681   1.842 -0.4754  0.6020  0.1537
 1430TIP3    H225706   6.417   6.825   1.884  0.5961  0.5395 -0.2094
 1431TIP3   OH225707   0.202   5.360   2.968 -0.4005 -0.4554  0.3758
 1431TIP3    H125708   0.268   5.294   2.947  0.5111  0.4629  0.3510
 1431TIP3    H225709   0.245   5.443   2.950 -1.6675  0.1370  0.0721
 1432TIP3   OH225710   4.384   3.357   0.287 -0.3650 -0.1132 -0.5897
 1432TIP3    H125711   4.385   3.267   0.318  1.0730  0.2177  0.4145
 1432TIP3    H225712   4.318   3.400   0.341  1.1781  0.1433  1.1858
 1433TIP3   OH225713   1.773   1.709  13.623 -0.5322  1.0718  0.2924
 1433TIP3    H125714   1.685   1.734  13.596 -0.7622 -0.0447 -0.0106
 1433TIP3    H225715   1.766   1.699  13.718 -0.2430  2.8801  0.5347
 1434TIP3   OH225716   6.254   0.662   5.542 -0.3211 -0.0499  0.0383
 1434TIP3    H125717   6.209   0.602   5.484 -1.2033  1.5520 -0.9639
 1434TIP3    H225718   6.285   0.732   5.485 -0.3022  1.0248  1.3413
 1435TIP3   OH225719   6.445   1.511  15.519  0.4681  0.2089 -0.9247
 1435TIP3    H125720   6.360   1.480  15.489  0.1975  0.0715 -0.0497
 1435TIP3    H225721   6.442   1.606  15.509 -0.6197  0.4280  1.1032
 1436TIP3   OH225722   4.038   1.095  13.489 -0.5971  0.4578  0.2754
 1436TIP3    H125723   3.948   1.094  13.521 -0.5729 -0.5569  0.3394
 1436TIP3    H225724   4.039   1.161  13.420 -1.5141  0.1054 -0.0828
 1437TIP3   OH225725   4.609   4.993  10.829  0.1307  0.1704 -0.0447
 1437TIP3    H125726   4.619   4.921  10.766 -1.5630 -0.9133  0.8858
 1437TIP3    H225727   4.670   4.971  10.899 -0.8852 -0.7349  0.5632
 1438TIP3   OH225728   5.796   1.815  13.532 -0.5691 -0.2002  0.3218
 1438TIP3    H125729   5.775   1.785  13.444 -0.0420 -0.9547  0.4481
 1438TIP3    H225730   5.741   1.762  13.590  1.1004 -1.6716  0.6060
 1439TIP3   OH225731   4.055   6.494   6.156  0.0131  0.0203 -0.2725
 1439TIP3    H125732   4.055   6.477   6.250 -0.3963 -1.9513 -0.6042
 1439TIP3    H225733   4.069   6.408   6.116  2.9858  1.2321 -1.9849
 1440TIP3   OH225734   4.367   6.051  16.530 -0.6212  0.2414 -0.1657
 1440TIP3    H125735   4.308   5.995  16.480  0.4691 -1.1481  0.0687
 1440TIP3    H225736   4.309   6.113  16.575 -1.7701 -0.0284 -1.2453
 1441TIP3   OH225737   0.754   4.707  16.179  0.1658 -0.3542  0.2846
 1441TIP3    H125738   0.699   4.628  16.171 -1.7525  0.9713 -0.0614
 1441TIP3    H225739   0.765   4.737  16.089 -1.4764  1.3100  0.6080
 1442TIP3   OH225740   4.600   1.667  16.571 -0.0715  0.4877 -0.1783
 1442TIP3    H125741   4.641   1.602  16.514  1.2305  0.5690  0.6628
 1442TIP3    H225742   4.535   1.710  16.515  0.5197 -0.1052 -1.3296
 1443TIP3   OH225743   3.872   1.226  13.862  0.3543 -0.1468 -0.2963
 1443TIP3    H125744   3.915   1.310  13.879 -1.0609  0.2534  1.4523
 1443TIP3    H225745   3.867   1.184  13.948 -0.0597 -1.4842 -0.9680
 1444TIP3   OH225746   1.369   2.033  13.556 -0.3920  0.1675  0.2258
 1444TIP3    H125747   1.331   2.118  13.536 -0.3771  0.0376 -0.3609
 1444TIP3    H225748   1.433   2.051  13.625  0.1246  0.7511 -0.3994
 1445TIP3   OH225749   2.892   5.971   3.291 -0.6421 -0.5134  0.0269
 1445TIP3    H125750   2.964   6.006   3.343  0.0437  0.6643 -1.6589
 1445TIP3    H225751   2.814   5.985   3.346 -0.0420  1.3944  0.4569
 1446TIP3   OH225752   0.114   6.575   1.255  0.3018 -0.1576  0.5428
 1446TIP3    H125753   0.190   6.534   1.297  0.7213 -0.7901 -0.7917
 1446TIP3    H225754   0.039   6.521   1.283  0.5859 -0.6154  0.4266
 1447TIP3   OH225755   5.140   5.289  11.886  0.3181 -0.0107  0.6806
 1447TIP3    H125756   5.084   5.217  11.855 -0.4157  0.9906 -0.3908
 1447TIP3    H225757   5.206   5.299  11.818  0.2961  0.4504  0.7245
 1448TIP3   OH225758   3.662   3.101  17.238  0.3408 -0.0199  0.5555
 1448TIP3    H125759   3.599   3.112  17.309  1.1635  0.4195  1.2303
 1448TIP3    H225760   3.649   3.011  17.209 -1.4874  0.4592 -0.1873
 1449TIP3   OH225761   6.314   4.473  12.238  0.6319 -0.1109  0.0533
 1449TIP3    H125762   6.363   4.392  12.222  0.6369 -0.1302  0.1709
 1449TIP3    H225763   6.271   4.459  12.323  1.7683  0.5604  0.7514
 1450TIP3   OH225764   6.056   6.730  12.249 -0.3909 -0.6266 -0.1056
 1450TIP3    H125765   6.089   6.641  12.241  0.3105 -0.3397 -0.4946
 1450TIP3    H225766   6.099   6.764  12.328 -0.5905 -0.6077 -0.0069
 1451TIP3   OH225767   2.257   5.909  16.765  0.3809 -0.1486  0.3499
 1451TIP3    H125768   2.202   5.890  16.689  0.1529 -0.9256  0.7039
 1451TIP3    H225769   2.311   5.984  16.738 -0.1647 -0.0031 -0.3389
 1452TIP3   OH225770   3.487   2.769  13.432 -0.0722 -0.2444  1.2352
 1452TIP3    H125771   3.476   2.835  13.501  1.0352  1.6610 -0.3668
 1452TIP3    H225772   3.415   2.787  13.371  0.7037 -0.0197  0.3908
 1453TIP3   OH225773   0.870   6.077  14.791 -0.8805  0.3232  0.1800
 1453TIP3    H125774   0.956   6.117  14.781 -0.8203  0.4373  1.0960
 1453TIP3    H225775   0.888   5.986  14.817 -1.0266  0.1351 -0.3802
 1454TIP3   OH225776   6.367   1.260  14.917  0.1015  0.7675  1.0183
 1454TIP3    H125777   6.299   1.317  14.883  0.5630  1.4904  1.3007
 1454TIP3    H225778   6.397   1.302  14.998 -0.1645 -0.3309  1.7003
 1455TIP3   OH225779   4.626   5.065  14.712 -0.3996  0.4516  0.2543
 1455TIP3    H125780   4.606   5.020  14.630  1.8398 -1.3582  0.6438
 1455TIP3    H225781   4.559   5.133  14.719 -3.3615 -2.2243 -0.8153
 1456TIP3   OH225782   3.956   0.939  12.849 -0.0505  0.4687 -0.0565
 1456TIP3    H125783   3.906   1.013  12.884 -2.1205 -0.0658 -1.7553
 1456TIP3    H225784   3.919   0.862  12.893 -0.9778  0.0337 -1.5679
 1457TIP3   OH225785   2.919   0.613  11.763  0.1508  0.1771 -0.5227
 1457TIP3    H125786   2.839   0.633  11.715  0.7493  1.4565 -1.0043
 1457TIP3    H225787   2.981   0.584  11.696 -0.8082 -3.8738  0.1811
 1458TIP3   OH225788   2.716   6.013  10.706  0.0844  0.4456 -0.0535
 1458TIP3    H125789   2.749   6.067  10.778 -1.0806 -0.6005  1.3063
 1458TIP3    H225790   2.792   5.965  10.675  0.7589  1.4908 -0.0517
 1459TIP3   OH225791   2.110   0.110   2.431 -0.2146  0.0225 -0.2596
 1459TIP3    H125792   2.027   0.064   2.442 -0.1637 -0.2035 -0.7804
 1459TIP3    H225793   2.174   0.039   2.418 -0.0799  0.2313 -0.7238
 1460TIP3   OH225794   6.358   3.423  14.902 -0.2296  0.2307  0.1038
 1460TIP3    H125795   6.383   3.495  14.844  1.3641 -1.4678 -1.3732
 1460TIP3    H225796   6.434   3.412  14.960 -0.2349 -0.6493 -0.0569
 1461TIP3   OH225797   2.056   6.537  16.805 -0.0728 -0.4624 -0.1153
 1461TIP3    H125798   2.105   6.611  16.840 -0.0867  0.5890 -2.2699
 1461TIP3    H225799   1.967   6.551  16.836 -0.2448  0.8652 -1.1740
 1462TIP3   OH225800   4.405   2.201   4.401 -0.3687 -0.0692  0.2832
 1462TIP3    H125801   4.439   2.210   4.490 -2.9541  2.0193  1.1030
 1462TIP3    H225802   4.482   2.214   4.345  1.2759 -1.3905  2.1726
 1463TIP3   OH225803   3.491   0.263  12.266  0.0640  0.0668  0.1989
 1463TIP3    H125804   3.491   0.355  12.293 -1.1454  0.0837  0.1726
 1463TIP3    H225805   3.485   0.214  12.348 -2.4844  0.0972  0.0932
 1464TIP3   OH225806   1.014   2.462  12.199  0.4830  0.2591 -0.2020
 1464TIP3    H125807   1.033   2.376  12.161 -0.9746  0.5746 -1.6803
 1464TIP3    H225808   1.046   2.524  12.135  1.3522  0.8397  0.7783
 1465TIP3   OH225809   5.544   0.816   1.902  0.1168 -0.0703  0.5153
 1465TIP3    H125810   5.525   0.909   1.890 -0.4402 -0.2650 -0.2095
 1465TIP3    H225811   5.606   0.812   1.974  1.1400  0.9591 -0.2950
 1466TIP3   OH225812   1.746   0.616   0.812  0.4527  0.4389 -0.4711
 1466TIP3    H125813   1.733   0.585   0.901  1.3871 -0.2081 -0.5512
 1466TIP3    H225814   1.810   0.556   0.774 -0.5725  0.1862 -1.8614
 1467TIP3   OH225815   0.668   3.463   1.598 -0.3685  0.0531 -0.1288
 1467TIP3    H125816   0.726   3.392   1.569 -1.3909 -0.4895 -0.8946
 1467TIP3    H225817   0.693   3.478   1.689 -0.5862 -1.7557  0.2658
 1468TIP3   OH225818   5.181   4.014   5.419 -0.4915  0.3435  0.3118
 1468TIP3    H125819   5.236   4.061   5.482 -0.5871  1.1756 -0.2188
 1468TIP3    H225820   5.160   3.932   5.462  1.5380 -0.1666  0.3582
 1469TIP3   OH225821   3.189   3.304  13.843 -0.0593 -0.0602  0.1775
 1469TIP3    H125822   3.169   3.392  13.875 -0.7308 -0.1867  0.1242
 1469TIP3    H225823   3.198   3.251  13.922 -2.7588 -0.5939  0.1735
 1470TIP3   OH225824   6.458   1.405   3.509  0.6852  0.0203 -0.3822
 1470TIP3    H125825   6.406   1.354   3.447 -0.3214  0.9700 -0.3412
 1470TIP3    H225826   6.398   1.425   3.581  0.8613  1.8090 -0.7029
 1471TIP3   OH225827   0.938   1.492  13.209 -0.0900  0.1138 -0.1351
 1471TIP3    H125828   0.851   1.493  13.171  0.7757  1.0317 -2.1429
 1471TIP3    H225829   0.992   1.541  13.147  1.6463  0.4064  1.5656
 1472TIP3   OH225830   5.437   3.806   5.279  0.1207 -0.5975 -0.2251
 1472TIP3    H125831   5.385   3.855   5.215  0.7003 -1.0840 -1.0840
 1472TIP3    H225832   5.501   3.758   5.226  0.4428 -1.2118  0.7044
 1473TIP3   OH225833   4.405   3.740   2.037  0.0952  0.3241 -0.1380
 1473TIP3    H125834   4.370   3.826   2.063 -1.4880  0.2425 -1.8784
 1473TIP3    H225835   4.443   3.756   1.950 -2.5492 -1.2575 -1.6522
 1474TIP3   OH225836   2.370   2.006  12.100 -0.1362  0.2424 -0.3649
 1474TIP3    H125837   2.352   2.005  12.195 -1.6756  2.3639 -0.5871
 1474TIP3    H225838   2.441   2.068  12.090 -1.4258  1.6798 -0.7925
 1475TIP3   OH225839   4.538   0.570  11.188 -0.0601  0.4467  0.2064
 1475TIP3    H125840   4.586   0.576  11.106 -1.3756  1.3053 -0.5080
 1475TIP3    H225841   4.606   0.576  11.256  0.9392  0.5682 -0.7893
 1476TIP3   OH225842   5.019   3.378   1.284 -0.8354 -0.0440 -0.5260
 1476TIP3    H125843   5.000   3.403   1.375 -2.5245 -0.0289 -0.8635
 1476TIP3    H225844   5.106   3.414   1.267 -0.2419 -0.5819  1.2853
 1477TIP3   OH225845   1.001   5.829   1.282  0.2794 -0.5684  0.5777
 1477TIP3    H125846   1.017   5.736   1.267 -0.3141 -0.4359 -0.9325
 1477TIP3    H225847   0.911   5.843   1.253  0.0624  0.2981  1.6449
 1478TIP3   OH225848   1.632   2.618   3.266 -0.3254 -0.5932  0.3783
 1478TIP3    H125849   1.615   2.602   3.359 -1.5141 -0.2095  0.2422
 1478TIP3    H225850   1.571   2.561   3.220  1.5337 -2.1544 -0.2018
 1479TIP3   OH225851   6.169   4.809  11.504 -0.2366  0.0577 -0.4032
 1479TIP3    H125852   6.179   4.882  11.565  1.0083 -0.4802  0.0715
 1479TIP3    H225853   6.236   4.746  11.532 -2.5725 -2.1333  0.4411
 1480TIP3   OH225854   6.100   6.735   5.694 -0.1493 -0.3089  0.1434
 1480TIP3    H125855   6.136   6.766   5.777  1.2994  0.3865 -0.7325
 1480TIP3    H225856   6.071   6.815   5.649  1.7250 -0.3699 -1.2449
 1481TIP3   OH225857   1.415   3.502   1.190  0.2784  0.2853 -0.5491
 1481TIP3    H125858   1.472   3.486   1.265  2.2337 -0.1099 -2.0541
 1481TIP3    H225859   1.328   3.510   1.227  1.4192  1.7907  1.9300
 1482TIP3   OH225860   0.973   5.126   4.090  0.3304 -0.4510  0.0840
 1482TIP3    H125861   0.934   5.039   4.092 -0.9535  0.0662 -1.0134
 1482TIP3    H225862   1.064   5.112   4.067  0.0709 -1.4784 -0.3299
 1483TIP3   OH225863   5.697   3.643   0.561 -0.5151 -0.1544 -0.1189
 1483TIP3    H125864   5.637   3.667   0.491  1.2654  1.5688 -1.1056
 1483TIP3    H225865   5.658   3.681   0.640 -1.1282  0.2472 -0.6122
 1484TIP3   OH225866   6.544   3.511   5.320  0.3958  0.1302  0.0383
 1484TIP3    H125867   6.572   3.589   5.368  0.5189  0.5643 -0.7254
 1484TIP3    H225868   6.612   3.497   5.255  0.3916 -0.6443  0.1905
 1485TIP3   OH225869   0.189   1.411  12.360 -0.0194 -0.4337 -0.4436
 1485TIP3    H125870   0.240   1.489  12.382 -0.1177 -0.4929 -0.0081
 1485TIP3    H225871   0.255   1.347  12.331 -0.0043  0.0329 -1.4457
 1486TIP3   OH225872   2.850   1.484   6.120 -0.2065 -0.2553 -0.0216
 1486TIP3    H125873   2.770   1.522   6.155  0.2510 -0.0952  0.8714
 1486TIP3    H225874   2.821   1.431   6.046 -1.0060  0.7204 -0.4292
 1487TIP3   OH225875   5.598   6.769   2.998  0.3349  0.4860  0.0555
 1487TIP3    H125876   5.599   6.724   3.082  1.1009 -1.5221 -1.0153
 1487TIP3    H225877   5.639   6.854   3.016 -0.7547  0.6384  1.9854
 1488TIP3   OH225878   5.783   0.837  17.066 -0.3515  0.5214 -0.3857
 1488TIP3    H125879   5.760   0.795  17.149 -0.4595 -3.7782 -2.4357
 1488TIP3    H225880   5.858   0.892  17.086  0.0052 -0.9246  2.4514
 1489TIP3   OH225881   1.067   4.386   3.138 -0.0694  0.1731 -0.0953
 1489TIP3    H125882   1.123   4.318   3.176 -0.6332  0.0721  0.5587
 1489TIP3    H225883   1.128   4.444   3.091  0.6374  0.3204  0.9801
 1490TIP3   OH225884   0.992   5.434  14.544 -0.0231  0.5544 -0.1700
 1490TIP3    H125885   1.004   5.349  14.502  0.5306  0.7041 -0.3326
 1490TIP3    H225886   0.907   5.466  14.513 -0.2027  0.0879 -0.1532
 1491TIP3   OH225887   3.384   0.153  12.982 -0.2863 -0.3258  0.2885
 1491TIP3    H125888   3.326   0.229  12.976 -0.6598 -0.4217  2.5079
 1491TIP3    H225889   3.325   0.078  12.989  0.1007 -0.5690  0.9487
 1492TIP3   OH225890   6.689   1.809  14.420 -0.3140 -0.1704 -0.2645
 1492TIP3    H125891   6.718   1.745  14.485  0.4253 -0.1458 -0.5773
 1492TIP3    H225892   6.701   1.894  14.463 -0.3667 -0.1843 -0.2222
 1493TIP3   OH225893   2.960   0.129  14.102  0.3938 -0.4538  0.6941
 1493TIP3    H125894   2.949   0.054  14.159  0.4907 -0.5131  0.6354
 1493TIP3    H225895   3.055   0.143  14.098  0.4219 -0.7943  0.1055
 1494TIP3   OH225896   3.904   3.684  15.971  0.3408  0.3387  0.3301
 1494TIP3    H125897   3.875   3.637  16.049 -0.2628 -0.4271 -0.3443
 1494TIP3    H225898   3.993   3.653  15.956 -0.3960 -1.3652 -0.6812
 1495TIP3   OH225899   1.683   4.021  12.466  0.1864 -0.9974  0.1402
 1495TIP3    H125900   1.610   3.962  12.483 -1.5468  1.2875  0.9406
 1495TIP3    H225901   1.760   3.965  12.467 -1.3960 -3.2285  0.8346
 1496TIP3   OH225902   4.201   3.292   3.720 -0.0517 -0.0274  0.0144
 1496TIP3    H125903   4.217   3.270   3.812  0.5942 -1.6655 -0.4724
 1496TIP3    H225904   4.105   3.295   3.713 -0.0992  0.4825  0.8211
 1497TIP3   OH225905   3.598   3.981   0.460  0.3172 -0.0189  0.1149
 1497TIP3    H125906   3.545   4.059   0.441  0.5132 -0.4413 -2.2367
 1497TIP3    H225907   3.534   3.913   0.482  0.0017  0.1259 -0.3458
 1498TIP3   OH225908   5.261   4.704   2.859 -0.1715 -0.4164 -0.3356
 1498TIP3    H125909   5.191   4.644   2.887 -1.2200  0.5467 -0.8280
 1498TIP3    H225910   5.323   4.648   2.813 -0.4106 -1.3605  0.4531
 1499TIP3   OH225911   2.202   1.352   5.399 -0.1352 -0.1678  0.6202
 1499TIP3    H125912   2.218   1.274   5.453 -0.7341  0.0021  1.0466
 1499TIP3    H225913   2.116   1.336   5.360 -0.7933  0.8359  1.6665
 1500TIP3   OH225914   5.677   2.874   4.959 -0.3834 -0.3822  0.3595
 1500TIP3    H125915   5.741   2.835   5.018 -0.0114  0.6788  0.6569
 1500TIP3    H225916   5.653   2.957   5.000 -0.5223  0.1191 -0.7180
 1501TIP3   OH225917   4.782   5.801  10.607 -0.1268 -0.3830  0.1396
 1501TIP3    H125918   4.854   5.822  10.548 -1.0336 -0.6854 -1.0986
 1501TIP3    H225919   4.722   5.875  10.598 -0.9743 -1.1381 -0.4440
 1502TIP3   OH225920   0.576   5.818  10.690 -0.0326 -0.5843 -0.3565
 1502TIP3    H125921   0.548   5.755  10.624 -0.7712  1.1285 -1.7096
 1502TIP3    H225922   0.517   5.893  10.678  1.2121  0.6021  0.8277
 1503TIP3   OH225923   1.089   2.006  13.728  0.1571  0.2269 -0.5707
 1503TIP3    H125924   1.153   1.985  13.796 -0.7421 -0.7034 -0.0078
 1503TIP3    H225925   1.119   1.956  13.651  1.8674  2.2334 -1.2512
 1504TIP3   OH225926   6.032   4.315  17.126 -0.4709 -0.3587  0.0615
 1504TIP3    H125927   6.034   4.323  17.222 -0.5904 -0.6702  0.0901
 1504TIP3    H225928   5.958   4.256  17.109  1.5969 -2.9588 -0.0720
 1505TIP3   OH225929   1.087   6.509  15.353  0.0262 -0.9458  0.2433
 1505TIP3    H125930   1.090   6.472  15.265  0.1341 -0.1425 -0.0986
 1505TIP3    H225931   1.172   6.489  15.391  0.5114 -0.0403 -0.3588
 1506TIP3   OH225932   2.457   5.912  15.321 -0.4511  0.3539 -0.4554
 1506TIP3    H125933   2.533   5.956  15.358 -0.6136 -1.2166  1.8580
 1506TIP3    H225934   2.412   5.980  15.271  1.0005  1.9754  0.4047
 1507TIP3   OH225935   3.443   1.889   5.438  0.3945 -0.4128 -0.0778
 1507TIP3    H125936   3.388   1.924   5.507 -0.9664  1.0056 -1.8312
 1507TIP3    H225937   3.529   1.877   5.479  0.2010  2.4857  1.2592
 1508TIP3   OH225938   5.584   4.415  13.934 -0.6777 -0.5246 -0.4616
 1508TIP3    H125939   5.665   4.452  13.898 -1.8179  2.0232 -0.5116
 1508TIP3    H225940   5.548   4.362  13.862 -1.1286  1.6725 -1.8980
 1509TIP3   OH225941   4.641   0.447  12.121 -0.0927 -0.3774 -0.3223
 1509TIP3    H125942   4.650   0.374  12.182  0.7408  1.3057  1.6273
 1509TIP3    H225943   4.601   0.517  12.172 -1.0363  0.5121 -2.2041
 1510TIP3   OH225944   4.062   2.313   5.667 -0.3734  0.2153 -0.3274
 1510TIP3    H125945   4.081   2.366   5.745  1.1974 -0.0065 -0.5391
 1510TIP3    H225946   4.021   2.374   5.606  1.3948  1.1959 -0.5571
 1511TIP3   OH225947   4.632   5.233  15.009 -0.2260 -0.2920  0.3822
 1511TIP3    H125948   4.608   5.197  14.923 -0.7429  1.1511 -0.0983
 1511TIP3    H225949   4.549   5.241  15.056 -0.1982  0.7383  0.2804
 1512TIP3   OH225950   3.970   3.860  15.085 -0.3332  0.0006 -0.2400
 1512TIP3    H125951   4.047   3.916  15.083 -1.5876  1.7677 -0.6544
 1512TIP3    H225952   3.918   3.888  15.010 -2.2555  0.1521  1.1045
 1513TIP3   OH225953   1.090   2.616  14.932 -0.4329  0.6238 -0.8504
 1513TIP3    H125954   1.103   2.522  14.922 -0.5006  0.4450  0.5931
 1513TIP3    H225955   1.147   2.640  15.006 -2.4550  1.2158  0.5484
 1514TIP3   OH225956   1.094   6.101   0.919 -0.4814  0.9029 -0.2270
 1514TIP3    H125957   1.041   6.127   0.994  0.4361  1.3838  0.2637
 1514TIP3    H225958   1.076   6.008   0.907 -0.4558  0.7741  0.7312
 1515TIP3   OH225959   0.431   6.748   4.814  0.2313  0.3190 -0.2277
 1515TIP3    H125960   0.502   6.811   4.810  0.0041  0.6592  0.7994
 1515TIP3    H225961   0.466   6.676   4.867  0.4395 -0.3422 -1.2677
 1516TIP3   OH225962   1.953   5.035  17.153  0.0952 -0.2804  0.9402
 1516TIP3    H125963   1.998   5.066  17.074  0.8647 -1.3631  0.9320
 1516TIP3    H225964   1.956   4.939  17.145 -1.5014 -0.3761  1.3475
 1517TIP3   OH225965   4.264   1.081  13.238  0.2559  0.4648  0.0730
 1517TIP3    H125966   4.358   1.092  13.252  0.2020 -0.2454  1.0154
 1517TIP3    H225967   4.251   1.108  13.147  1.5296 -0.3606 -0.3737
 1518TIP3   OH225968   5.621   1.135   3.164 -0.2247  0.2948 -0.3158
 1518TIP3    H125969   5.716   1.131   3.165 -0.1312  1.4480  2.9169
 1518TIP3    H225970   5.593   1.063   3.220 -1.1122  1.5641  0.9105
 1519TIP3   OH225971   1.192   3.163  15.659  0.3181  0.1520 -0.9490
 1519TIP3    H125972   1.103   3.196  15.669  0.4616  0.8179 -1.8509
 1519TIP3    H225973   1.243   3.238  15.630  0.8005 -0.6470 -2.2387
 1520TIP3   OH225974   2.674   4.434  12.778 -0.1003 -0.3270  0.7847
 1520TIP3    H125975   2.764   4.433  12.810  0.8797  1.8040 -1.7752
 1520TIP3    H225976   2.638   4.517  12.809 -1.3642 -1.3794  2.1940
 1521TIP3   OH225977   2.062   1.766   3.850 -0.0446 -0.2951 -0.1082
 1521TIP3    H125978   2.034   1.697   3.911 -1.2575  2.5076  2.6407
 1521TIP3    H225979   2.139   1.805   3.893 -0.2022  0.9636 -0.9561
 1522TIP3   OH225980   4.898   0.355  13.863 -0.0859 -0.4160  0.0234
 1522TIP3    H125981   4.979   0.376  13.909  0.7328 -0.8200 -1.2064
 1522TIP3    H225982   4.830   0.403  13.909  1.1481  1.5502 -0.1857
 1523TIP3   OH225983   4.963   6.691  16.491  0.3318 -0.0284  0.5410
 1523TIP3    H125984   4.959   6.682  16.396  0.6177 -0.7151  0.6001
 1523TIP3    H225985   4.906   6.622  16.525  0.7623 -0.2063  0.8981
 1524TIP3   OH225986   1.633   6.091  15.517  0.1950 -0.4406  0.4631
 1524TIP3    H125987   1.635   5.995  15.512 -2.1301 -0.5966  1.4895
 1524TIP3    H225988   1.618   6.120  15.427  1.2391 -1.0145  0.0980
 1525TIP3   OH225989   3.480   3.260   3.476 -0.0387  0.6370  0.1231
 1525TIP3    H125990   3.491   3.345   3.433 -1.5464  0.4578 -0.6491
 1525TIP3    H225991   3.481   3.196   3.405 -2.3168  0.3160  0.3304
 1526TIP3   OH225992   0.468   0.093   2.775  0.3418 -0.0243 -0.2588
 1526TIP3    H125993   0.497   0.037   2.703 -0.2912 -1.2548  0.4190
 1526TIP3    H225994   0.372   0.091   2.769  0.2933  0.0564  0.4574
 1527TIP3   OH225995   3.788   3.209  10.248 -0.1491 -0.1698  0.1958
 1527TIP3    H125996   3.778   3.295  10.289  1.4602 -0.5678  1.4666
 1527TIP3    H225997   3.711   3.160  10.278 -1.6146  1.1298 -1.3706
 1528TIP3   OH225998   1.684   6.398   3.168 -0.4462 -0.5258 -0.3079
 1528TIP3    H125999   1.627   6.465   3.204  0.1174 -0.5488  0.6298
 1528TIP3    H226000   1.765   6.404   3.219  0.4306 -0.4408 -1.6574
 1529TIP3   OH226001   2.750   2.728   3.562  0.5602  0.3402 -0.2303
 1529TIP3    H126002   2.759   2.648   3.511  0.4341  0.3588 -0.2838
 1529TIP3    H226003   2.663   2.721   3.601  0.7906  0.1699  0.2533
 1530TIP3   OH226004   3.087   2.443   3.695 -0.0670  0.2125  0.3963
 1530TIP3    H126005   3.110   2.535   3.694  0.2596  0.1247 -0.4940
 1530TIP3    H226006   3.033   2.430   3.617 -0.2755 -0.2995  0.6224
 1531TIP3   OH226007   0.094   0.641  14.758 -0.0488  0.0784  0.3925
 1531TIP3    H126008   0.068   0.572  14.820  0.1311  0.9964  1.5157
 1531TIP3    H226009   0.037   0.715  14.780  0.2663  0.5329 -0.3109
 1532TIP3   OH226010   5.374   1.087  12.114  0.4892 -0.2643  0.2298
 1532TIP3    H126011   5.304   1.055  12.057  0.0796  0.2296  0.4515
 1532TIP3    H226012   5.448   1.102  12.054 -0.4848  1.9400 -0.4734
 1533TIP3   OH226013   0.186   4.868   1.854  0.0826 -0.9497  0.2363
 1533TIP3    H126014   0.128   4.849   1.780  0.8522 -2.0229 -0.0986
 1533TIP3    H226015   0.262   4.811   1.841  0.0827 -1.3933  2.0223
 1534TIP3   OH226016   0.798   5.881  17.093  0.2666  0.0173  0.4514
 1534TIP3    H126017   0.791   5.848  17.182  0.8651 -1.9418 -0.1838
 1534TIP3    H226018   0.808   5.802  17.039  1.7279  1.2517 -1.1619
 1535TIP3   OH226019   1.815   1.102  14.616  0.2357  0.1722  0.2321
 1535TIP3    H126020   1.904   1.079  14.640  0.6430  0.5398 -0.9273
 1535TIP3    H226021   1.811   1.090  14.522 -1.7054 -2.4139  0.5696
 1536TIP3   OH226022   2.205   3.566   5.636  0.4319 -0.4190 -0.5236
 1536TIP3    H126023   2.294   3.549   5.604  0.6898  1.9478 -1.1266
 1536TIP3    H226024   2.209   3.654   5.674 -1.2889 -0.9037  0.8348
 1537TIP3   OH226025   1.933   4.380  13.883  0.0964 -0.4496  0.2271
 1537TIP3    H126026   1.975   4.358  13.966  0.2963 -2.2088 -0.3234
 1537TIP3    H226027   1.946   4.302  13.828 -3.0928 -0.7150 -0.2478
 1538TIP3   OH226028   5.469   4.298  12.990  0.7914 -0.1717  0.2922
 1538TIP3    H126029   5.396   4.270  13.045  2.1651  1.3284  2.9684
 1538TIP3    H226030   5.516   4.217  12.970  1.1478 -0.6076  2.6932
 1539TIP3   OH226031   4.834   3.891  14.449 -0.2077  0.5385  0.2116
 1539TIP3    H126032   4.918   3.930  14.423  0.0248 -0.2917 -0.3205
 1539TIP3    H226033   4.848   3.797  14.439 -0.9846  0.3618  0.8028
 1540TIP3   OH226034   2.368   4.438  13.083  0.4548  0.4874 -0.2563
 1540TIP3    H126035   2.320   4.364  13.046  0.8608 -1.3446  2.6375
 1540TIP3    H226036   2.312   4.468  13.155 -0.1773  3.7112 -2.0324
 1541TIP3   OH226037   3.416   3.272   2.729  0.4861  0.1264  0.0660
 1541TIP3    H126038   3.366   3.279   2.648 -0.7825  0.0424  0.8227
 1541TIP3    H226039   3.424   3.363   2.760 -0.9646 -0.0439  0.9809
 1542TIP3   OH226040   0.683   5.526  12.837 -0.7515  0.9520 -0.1130
 1542TIP3    H126041   0.620   5.581  12.791 -2.5487 -0.4908  0.5838
 1542TIP3    H226042   0.631   5.457  12.877  1.1025  0.5725  1.7509
 1543TIP3   OH226043   3.934   2.949  15.467  0.6029  0.0920 -0.1491
 1543TIP3    H126044   3.879   2.885  15.423  1.5991  0.3681 -1.8414
 1543TIP3    H226045   3.918   3.031  15.420  1.0676  0.5780  0.5202
 1544TIP3   OH226046   3.513   5.067  16.959 -0.1928  0.4728  0.2485
 1544TIP3    H126047   3.558   5.047  17.041 -1.6630  0.5683  1.0954
 1544TIP3    H226048   3.479   4.982  16.930 -1.3584  0.7352  0.7846
 1545TIP3   OH226049   4.705   1.402   2.935  0.3671 -0.2282  0.4946
 1545TIP3    H126050   4.690   1.485   2.890  0.4342 -1.5013 -1.9349
 1545TIP3    H226051   4.630   1.394   2.995  0.1209  1.3449  0.4259
 1546TIP3   OH226052   2.737   4.368  13.823  0.0360  0.2318  0.3976
 1546TIP3    H126053   2.813   4.314  13.800  0.5507  1.6200 -1.3244
 1546TIP3    H226054   2.688   4.374  13.741 -1.2962  0.3530  1.2053
 1547TIP3   OH226055   6.036   2.293   5.998  0.2797  0.2339  0.2319
 1547TIP3    H126056   6.042   2.322   6.088 -0.8015  2.5786 -0.4248
 1547TIP3    H226057   5.949   2.255   5.990  1.1502 -1.9228  0.7016
 1548TIP3   OH226058   6.333   4.065  11.999  0.5203 -0.0194  0.4171
 1548TIP3    H126059   6.316   4.019  11.917 -2.0088 -1.0412  1.4727
 1548TIP3    H226060   6.415   4.027  12.031  0.4152 -1.1352 -0.5978
 1549TIP3   OH226061   4.687   2.873   1.176  0.1774  0.0958  0.2498
 1549TIP3    H126062   4.743   2.841   1.247  1.5334 -0.9992 -1.2999
 1549TIP3    H226063   4.661   2.795   1.129 -0.2931  0.8668 -0.7742
 1550TIP3   OH226064   0.312   1.058   2.800 -0.3460 -0.0198  0.1077
 1550TIP3    H126065   0.373   1.075   2.871 -2.5954  0.7432  1.9163
 1550TIP3    H226066   0.303   0.962   2.799 -1.1595  0.0234  1.6282
 1551TIP3   OH226067   4.504   3.370   5.918 -0.1064 -0.5199  0.1201
 1551TIP3    H126068   4.537   3.444   5.867 -0.4737  0.1642  0.8596
 1551TIP3    H226069   4.558   3.296   5.891  1.1484  0.2997  0.3238
 1552TIP3   OH226070   0.229   1.905   4.864 -0.0258  0.0486 -0.1632
 1552TIP3    H126071   0.169   1.859   4.923  0.8020  1.4905  1.8496
 1552TIP3    H226072   0.315   1.869   4.885  0.4123  1.3364  0.2804
 1553TIP3   OH226073   6.369   5.915   5.120 -0.5127 -0.2057  0.3190
 1553TIP3    H126074   6.330   5.962   5.045 -1.1098 -2.2861 -0.7223
 1553TIP3    H226075   6.446   5.967   5.143  1.0993 -0.8204 -3.3587
 1554TIP3   OH226076   5.680   5.464   1.556 -0.6252  0.2390 -0.2565
 1554TIP3    H126077   5.718   5.381   1.586 -0.0038  0.8947  0.8065
 1554TIP3    H226078   5.611   5.438   1.495 -1.0081 -1.0944  0.7238
 1555TIP3   OH226079   1.182   0.536  16.272  0.4859  0.0600  0.6498
 1555TIP3    H126080   1.208   0.627  16.287  3.5599 -0.6199 -0.2898
 1555TIP3    H226081   1.119   0.541  16.200 -0.1922  1.5476  1.3336
 1556TIP3   OH226082   6.514   1.980  15.867 -0.0842  0.0703  0.0025
 1556TIP3    H126083   6.599   2.001  15.828 -0.2361  1.5236  0.4500
 1556TIP3    H226084   6.500   2.048  15.932 -0.5402 -1.4881  1.5489
 1557TIP3   OH226085   2.752   4.905   3.010 -0.1542 -0.6722  0.5396
 1557TIP3    H126086   2.682   4.946   3.061 -1.3838 -3.0658  0.8456
 1557TIP3    H226087   2.709   4.877   2.929  0.6573 -1.3060  0.3252
 1558TIP3   OH226088   5.228   0.538   0.513 -0.3013  0.7694 -0.3929
 1558TIP3    H126089   5.155   0.590   0.482  1.0587  1.5789 -2.2920
 1558TIP3    H226090   5.231   0.463   0.454 -1.0778 -0.5496  1.1766
 1559TIP3   OH226091   4.115   5.682   2.685  0.8691  0.4775  0.1676
 1559TIP3    H126092   4.203   5.645   2.675  0.2916 -1.3440  1.4595
 1559TIP3    H226093   4.070   5.658   2.604  1.6449  1.7238 -0.6507
 1560TIP3   OH226094   1.498   5.454   0.354 -0.1290 -0.5060  0.1194
 1560TIP3    H126095   1.505   5.392   0.281  0.3509 -0.2387 -0.0604
 1560TIP3    H226096   1.519   5.402   0.432 -2.0140 -1.1416  0.2407
 1561TIP3   OH226097   3.013   4.182   1.013 -0.0113  0.8381  0.4670
 1561TIP3    H126098   2.963   4.258   0.982  1.4706  1.3894 -0.6077
 1561TIP3    H226099   3.041   4.138   0.933 -0.0569 -0.3220  1.0875
 1562TIP3   OH226100   5.975   0.863   0.419  0.4426 -0.4065 -0.4477
 1562TIP3    H126101   6.069   0.851   0.435  0.4306 -0.9158 -0.7561
 1562TIP3    H226102   5.933   0.835   0.500  0.4933 -1.2432 -0.7042
 1563TIP3   OH226103   0.386   5.513   2.042  0.8201  0.3340 -0.1799
 1563TIP3    H126104   0.317   5.545   1.983  0.9094 -0.9924 -1.0338
 1563TIP3    H226105   0.345   5.513   2.128 -0.1448 -0.1131 -0.6274
 1564TIP3   OH226106   4.408   6.660   4.107  0.1661 -0.5192  0.8483
 1564TIP3    H126107   4.369   6.659   4.195  1.2316 -2.9804  1.3260
 1564TIP3    H226108   4.427   6.753   4.091 -3.6209  0.4472  1.5795
 1565TIP3   OH226109   3.397   1.628   0.164  0.0696 -0.0803  0.0548
 1565TIP3    H126110   3.336   1.582   0.222 -0.8249 -1.1942 -1.7099
 1565TIP3    H226111   3.397   1.718   0.195 -2.2230 -0.1470  0.2949
 1566TIP3   OH226112   5.692   0.641  13.465 -0.0271 -0.5226  0.5172
 1566TIP3    H126113   5.754   0.571  13.483 -0.8762 -1.4206  0.0055
 1566TIP3    H226114   5.640   0.648  13.546  0.4699 -0.0438  0.8001
 1567TIP3   OH226115   3.665   6.121  15.932  0.4697 -0.0732 -0.2641
 1567TIP3    H126116   3.619   6.149  15.853 -0.4839 -0.0769  0.2715
 1567TIP3    H226117   3.665   6.025  15.927 -1.7100 -0.1763  0.8723
 1568TIP3   OH226118   2.367   0.311  12.540  0.2305  0.0834 -0.1719
 1568TIP3    H126119   2.407   0.343  12.621  0.1636 -3.5394  1.3822
 1568TIP3    H226120   2.273   0.307  12.560 -0.1625  1.9189 -1.4650
 1569TIP3   OH226121   2.671   0.584  14.468 -0.1344 -0.4749 -0.1439
 1569TIP3    H126122   2.615   0.530  14.412 -1.0645  0.7880 -0.4623
 1569TIP3    H226123   2.643   0.564  14.557 -1.8730  0.9267 -0.3343
 1570TIP3   OH226124   0.032   4.402  16.755 -0.6294 -0.1944  0.1608
 1570TIP3    H126125   0.030   4.461  16.679 -2.9336 -0.1943  0.1743
 1570TIP3    H226126   0.117   4.359  16.750  0.0299  1.2200 -1.3339
 1571TIP3   OH226127   6.351   6.540   5.207  0.3370 -0.7381 -0.2336
 1571TIP3    H126128   6.391   6.453   5.214 -0.2475 -1.0252 -0.4094
 1571TIP3    H226129   6.365   6.565   5.115  1.2360 -0.2894  0.0260
 1572TIP3   OH226130   1.913   5.297  16.138 -0.5585 -0.0233  0.8848
 1572TIP3    H126131   1.962   5.309  16.057  1.3576 -1.7792  1.7673
 1572TIP3    H226132   1.824   5.278  16.109 -0.1650  0.5384 -0.7653
 1573TIP3   OH226133   5.393   3.613  16.711  0.0940  0.4487 -0.5164
 1573TIP3    H126134   5.377   3.688  16.652 -0.3888  0.2609 -0.6288
 1573TIP3    H226135   5.305   3.580  16.732  0.3389 -0.6831 -1.2338
 1574TIP3   OH226136   5.502   1.508   5.246 -0.6012 -0.2231 -0.0712
 1574TIP3    H126137   5.461   1.426   5.273  0.5074 -1.4230 -1.8292
 1574TIP3    H226138   5.567   1.481   5.180 -2.6566  2.4017 -3.3471
 1575TIP3   OH226139   5.495   0.123  11.531  0.4192  0.3367 -0.5097
 1575TIP3    H126140   5.474   0.083  11.447  0.4264 -0.2935 -0.2192
 1575TIP3    H226141   5.531   0.209  11.509  1.0358 -0.0856 -1.1813
 1576TIP3   OH226142   2.807   3.350  16.030 -0.0630  0.2424  0.0359
 1576TIP3    H126143   2.787   3.325  16.120 -0.0653  1.0341  0.2580
 1576TIP3    H226144   2.809   3.446  16.031  0.4246  0.2430 -0.6988
 1577TIP3   OH226145   4.911   1.385   3.195  0.2089 -0.5238 -0.0729
 1577TIP3    H126146   4.952   1.364   3.111 -1.3466 -0.4241 -0.8819
 1577TIP3    H226147   4.863   1.466   3.178 -2.0975 -1.7840  0.2082
 1578TIP3   OH226148   6.704   2.729  14.911 -0.4261  0.5288 -0.4458
 1578TIP3    H126149   6.688   2.805  14.966  0.5105  0.0861  0.4777
 1578TIP3    H226150   6.617   2.698  14.887 -0.9173  0.0324  1.7930
 1579TIP3   OH226151   2.869   4.739   1.617 -0.2146  0.0718 -0.0501
 1579TIP3    H126152   2.873   4.834   1.607  1.2988 -0.0922 -1.0571
 1579TIP3    H226153   2.877   4.725   1.712 -0.2965  0.9321  0.0895
 1580TIP3   OH226154   5.970   3.070   2.518  0.9252 -0.1215  0.2704
 1580TIP3    H126155   6.032   3.133   2.481  2.3095 -0.5141  1.8527
 1580TIP3    H226156   5.998   2.985   2.484 -1.0760  0.1001 -2.0387
 1581TIP3   OH226157   0.416   4.886  12.781 -0.2098  0.1620 -0.1456
 1581TIP3    H126158   0.400   4.860  12.872 -1.6523 -1.3612 -0.7923
 1581TIP3    H226159   0.328   4.902  12.745  0.1606 -1.6268 -1.9220
 1582TIP3   OH226160   4.478   2.759  16.378  0.1439  0.5361 -0.0263
 1582TIP3    H126161   4.383   2.761  16.362 -0.0810 -0.8085  1.0725
 1582TIP3    H226162   4.489   2.810  16.459  0.4961  1.6501 -0.7708
 1583TIP3   OH226163   0.453   6.761   2.506  0.0512  0.3551 -0.4987
 1583TIP3    H126164   0.408   6.728   2.429 -0.9284  0.2855  0.0871
 1583TIP3    H226165   0.528   6.703   2.517 -0.6671 -0.5892 -0.5091
 1584TIP3   OH226166   3.400   1.041   5.386  0.3385 -0.0519 -0.3378
 1584TIP3    H126167   3.449   0.999   5.456 -1.0606 -1.0247  0.0686
 1584TIP3    H226168   3.436   1.005   5.305  1.7107  0.8094 -0.1328
 1585TIP3   OH226169   0.695   3.665   2.648 -0.5860 -0.4691  0.1696
 1585TIP3    H126170   0.750   3.700   2.718 -1.1484 -2.0261  1.4234
 1585TIP3    H226171   0.631   3.610   2.693 -0.0961 -2.6236 -1.6837
 1586TIP3   OH226172   5.685   0.140  16.894  0.0941 -0.0377 -0.0934
 1586TIP3    H126173   5.643   0.210  16.945  1.5167  0.1048  0.9124
 1586TIP3    H226174   5.646   0.059  16.928  0.1820  0.1299  0.4165
 1587TIP3   OH226175   2.639   2.409  14.968 -0.1578 -0.0337 -0.0058
 1587TIP3    H126176   2.585   2.330  14.967 -0.2544 -0.0792  2.9920
 1587TIP3    H226177   2.724   2.381  14.933 -0.2384 -1.4284  0.8856
 1588TIP3   OH226178   4.056   0.079  13.028  0.4210  0.1215  0.2860
 1588TIP3    H126179   4.091   0.123  13.105 -0.3699  0.1084  0.6481
 1588TIP3    H226180   4.004   0.146  12.983 -0.7623 -0.4272  0.8253
 1589TIP3   OH226181   1.699   0.556  17.236 -0.4240  0.3264 -1.2381
 1589TIP3    H126182   1.674   0.519  17.151  1.8833 -1.4395 -1.1682
 1589TIP3    H226183   1.785   0.519  17.254 -0.8036  0.8512  1.8000
 1590TIP3   OH226184   2.451   5.097   3.429 -0.4930 -0.1926 -0.5949
 1590TIP3    H126185   2.372   5.087   3.483  1.0515 -0.3209  1.7026
 1590TIP3    H226186   2.495   5.174   3.464  0.5239 -0.2432 -1.7342
 1591TIP3   OH226187   2.929   2.888   3.721  0.2954  0.0830  0.0007
 1591TIP3    H126188   2.910   2.982   3.716 -1.4461 -0.0069  3.2482
 1591TIP3    H226189   2.862   2.847   3.666 -0.6408  0.6021  0.7310
 1592TIP3   OH226190   0.886   5.030  12.673  0.0557 -0.4088 -0.1092
 1592TIP3    H126191   0.810   4.990  12.631  0.4593 -1.9640  0.6116
 1592TIP3    H226192   0.849   5.091  12.737 -0.5939 -1.4256  0.4935
 1593TIP3   OH226193   1.046   2.775   0.050  0.3929  0.0748  0.5134
 1593TIP3    H126194   1.021   2.862   0.079  1.4755  0.8290 -0.7281
 1593TIP3    H226195   0.967   2.739   0.011 -0.0910  0.4718  1.1383
 1594TIP3   OH226196   6.270   0.531   5.853  0.0042  0.3324  0.7715
 1594TIP3    H126197   6.343   0.574   5.898  0.0428  0.9288  0.1337
 1594TIP3    H226198   6.274   0.440   5.884  1.0333  0.3552  0.7230
 1595TIP3   OH226199   6.454   5.482  16.752  0.1846  0.2452  0.2266
 1595TIP3    H126200   6.472   5.540  16.826 -1.4701 -0.2989  1.0652
 1595TIP3    H226201   6.465   5.394  16.787  2.3685  0.0002 -0.9593
 1596TIP3   OH226202   4.180   4.321   3.573 -0.1838  0.3742  0.3314
 1596TIP3    H126203   4.087   4.329   3.552 -0.5590 -1.2729  1.2469
 1596TIP3    H226204   4.212   4.411   3.577 -1.8642  0.9803  0.5187
 1597TIP3   OH226205   4.338   5.668  14.382 -0.2948 -0.5939  0.1420
 1597TIP3    H126206   4.344   5.612  14.305 -1.3687  0.3047 -0.6211
 1597TIP3    H226207   4.307   5.752  14.348 -1.9020 -0.5135  1.6894
 1598TIP3   OH226208   1.107   2.546  16.568 -0.3539 -0.3645 -0.2174
 1598TIP3    H126209   1.203   2.542  16.577 -0.2831  2.6216  0.9872
 1598TIP3    H226210   1.083   2.460  16.535  2.7029 -1.3758 -0.0260
 1599TIP3   OH226211   4.224   5.048  12.750 -0.0877  0.9471  0.1513
 1599TIP3    H126212   4.307   5.092  12.730  0.5497  0.3874  1.4820
 1599TIP3    H226213   4.202   5.001  12.670  1.3675  0.3539  0.0699
 1600TIP3   OH226214   1.006   0.455   0.381 -0.1070  0.5312 -0.4836
 1600TIP3    H126215   0.951   0.517   0.333 -0.0209 -0.0932 -1.4164
 1600TIP3    H226216   1.095   0.476   0.353  0.0379  0.8480  0.2123
 1601TIP3   OH226217   2.437   0.247   1.330 -0.2297  0.1014  0.0465
 1601TIP3    H126218   2.478   0.240   1.244 -2.4801  2.3327 -1.2799
 1601TIP3    H226219   2.485   0.318   1.373  0.3144 -0.4148  0.2954
 1602TIP3   OH226220   0.381   3.384  16.162  0.0124 -0.1757  0.1373
 1602TIP3    H126221   0.304   3.437  16.183 -0.8349 -1.5980  0.6727
 1602TIP3    H226222   0.349   3.319  16.099  1.2291  0.4310 -1.1416
 1603TIP3   OH226223   2.062   2.562  12.237 -0.3461 -0.1266 -0.2341
 1603TIP3    H126224   2.059   2.512  12.319  0.3924  0.0262 -0.1089
 1603TIP3    H226225   2.111   2.641  12.259  0.2723 -0.3132 -0.9487
 1604TIP3   OH226226   0.168   1.031   0.345 -0.1940  0.3195 -0.3120
 1604TIP3    H126227   0.238   1.009   0.283  0.0055 -1.9391  0.6826
 1604TIP3    H226228   0.169   0.960   0.409 -3.6147  0.0687 -0.4364
 1605TIP3   OH226229   2.428   2.365   6.204  0.1861  0.5185  0.3021
 1605TIP3    H126230   2.386   2.293   6.250 -0.4908  0.3567 -0.5553
 1605TIP3    H226231   2.516   2.332   6.182 -0.1408 -0.0657 -0.1305
 1606TIP3   OH226232   5.004   4.497  13.094  0.2214 -0.5413  0.2463
 1606TIP3    H126233   5.000   4.425  13.032  2.2340 -1.1995  0.8382
 1606TIP3    H226234   4.969   4.460  13.176 -1.0468 -0.1086 -0.0911
 1607TIP3   OH226235   4.138   6.400   2.602  0.0706 -0.4052 -0.7012
 1607TIP3    H126236   4.167   6.350   2.678 -0.2117 -0.5755 -0.7010
 1607TIP3    H226237   4.054   6.437   2.629  1.9746  3.1769  0.6549
 1608TIP3   OH226238   3.119   2.994   0.292  0.2726  0.2748 -0.2205
 1608TIP3    H126239   3.032   2.966   0.264  0.3531  1.0585 -1.3092
 1608TIP3    H226240   3.180   2.939   0.242  0.4012 -0.4261  0.7064
 1609TIP3   OH226241   5.767   6.126   3.549  0.0502 -0.5437  0.5203
 1609TIP3    H126242   5.738   6.215   3.572  1.7137  0.3706 -0.7568
 1609TIP3    H226243   5.703   6.096   3.484 -0.3611 -0.1672  0.7486
 1610TIP3   OH226244   0.587   4.720  11.132 -0.6125  0.7494 -0.0684
 1610TIP3    H126245   0.592   4.777  11.055  0.1610 -0.3365 -0.8443
 1610TIP3    H226246   0.493   4.702  11.142 -0.5408 -1.3184 -2.4751
 1611TIP3   OH226247   2.282   6.648  13.378  0.1768 -0.0019 -0.5391
 1611TIP3    H126248   2.190   6.671  13.363  0.0337 -0.2249 -0.0070
 1611TIP3    H226249   2.278   6.571  13.434  0.6743 -0.6099 -1.3443
 1612TIP3   OH226250   3.809   4.314   0.223 -0.1185 -0.4775  0.0126
 1612TIP3    H126251   3.830   4.345   0.311 -0.2563 -1.3271  0.3505
 1612TIP3    H226252   3.801   4.219   0.233  0.9978 -0.7053 -1.1400
 1613TIP3   OH226253   0.844   0.781   3.270  0.2922 -0.0539 -0.0208
 1613TIP3    H126254   0.837   0.699   3.318 -0.0432  0.0726  0.1520
 1613TIP3    H226255   0.923   0.772   3.217  0.6429 -0.2104  0.5282
 1614TIP3   OH226256   1.089   1.665   0.858  0.2082 -0.1697  0.3764
 1614TIP3    H126257   1.149   1.732   0.825  0.4457  0.0006  1.1548
 1614TIP3    H226258   1.002   1.697   0.837  0.3975 -0.6866 -1.2832
 1615TIP3   OH226259   6.066   3.189  11.485  0.1218 -0.1252 -0.0605
 1615TIP3    H126260   6.029   3.107  11.453  0.6052  0.1440 -1.3640
 1615TIP3    H226261   6.011   3.257  11.446  0.4863  0.2044 -0.0050
 1616TIP3   OH226262   5.527   2.598   1.978  0.1403  0.6739  0.0732
 1616TIP3    H126263   5.582   2.669   1.945 -0.8071  1.5021  0.2378
 1616TIP3    H226264   5.443   2.610   1.933 -0.7081  0.9648  1.6768
 1617TIP3   OH226265   4.918   0.308  16.956 -0.4910  0.5539  0.5510
 1617TIP3    H126266   4.890   0.360  17.031  0.8284 -0.7476  1.9838
 1617TIP3    H226267   5.012   0.296  16.969 -0.6927 -1.8398  0.0714
 1618TIP3   OH226268   0.708   4.457  12.301  0.2916  0.0074 -0.0352
 1618TIP3    H126269   0.725   4.549  12.281 -2.1653  0.5271  0.0975
 1618TIP3    H226270   0.645   4.459  12.373 -1.0823 -1.7388 -1.1253
 1619TIP3   OH226271   2.525   5.639   0.050 -0.1975  0.6183 -0.1294
 1619TIP3    H126272   2.502   5.560   0.099 -0.3652 -1.1710 -2.9665
 1619TIP3    H226273   2.620   5.639   0.046 -0.1564  1.1747  0.8366
 1620TIP3   OH226274   3.617   2.732   0.412 -0.4207 -0.0760 -0.2910
 1620TIP3    H126275   3.677   2.681   0.358 -0.5018  0.0253 -0.4785
 1620TIP3    H226276   3.538   2.679   0.417 -0.2406 -0.3039  0.1302
 1621TIP3   OH226277   2.258   3.479   1.535  0.0266  0.6748 -0.7222
 1621TIP3    H126278   2.170   3.508   1.511 -0.1130 -0.0121 -1.0762
 1621TIP3    H226279   2.315   3.551   1.509 -0.4118  1.0523 -0.6522
 1622TIP3   OH226280   5.328   1.773  15.641  0.2889  0.1392 -0.1376
 1622TIP3    H126281   5.309   1.715  15.715  1.5486 -0.3718 -0.1910
 1622TIP3    H226282   5.314   1.861  15.675  2.0258 -0.0349  1.0876
 1623TIP3   OH226283   5.566   2.541  10.555  0.1104  0.1389 -0.0064
 1623TIP3    H126284   5.633   2.525  10.489 -0.6484  0.6628 -0.9244
 1623TIP3    H226285   5.515   2.460  10.559 -0.0823  0.2387 -0.3620
 1624TIP3   OH226286   4.963   5.705   2.879 -0.0617  0.0619 -0.4625
 1624TIP3    H126287   5.006   5.643   2.821 -0.2201  1.6742 -2.3411
 1624TIP3    H226288   4.934   5.776   2.822  0.0234  1.8372  1.6171
 1625TIP3   OH226289   5.197   0.335  11.478  0.4309 -0.6884  0.3444
 1625TIP3    H126290   5.228   0.328  11.388 -0.5232 -0.6812  0.0079
 1625TIP3    H226291   5.274   0.361  11.529  0.6964  0.5339 -0.6584
 1626TIP3   OH226292   0.951   0.625   2.576 -0.0476  0.1506  0.2480
 1626TIP3    H126293   0.906   0.601   2.657  0.1409 -0.8927  0.0492
 1626TIP3    H226294   0.987   0.543   2.543 -0.0924  0.5763 -0.8798
 1627TIP3   OH226295   0.053   0.532  13.237 -0.1839  0.2498 -0.0554
 1627TIP3    H126296   0.125   0.503  13.293  0.3144  0.5016 -0.5509
 1627TIP3    H226297  -0.023   0.483  13.267  0.3189 -0.4391  0.1093
 1628TIP3   OH226298   3.406   0.962   6.049  0.3717  0.0828  0.4120
 1628TIP3    H126299   3.395   0.900   5.977 -0.8057 -1.8908  2.2374
 1628TIP3    H226300   3.318   0.970   6.087  0.5395  2.7633  0.3296
 1629TIP3   OH226301   4.805   3.615   2.712 -0.2471  0.6429 -0.6389
 1629TIP3    H126302   4.834   3.695   2.756  0.0635  0.5029 -0.5925
 1629TIP3    H226303   4.710   3.612   2.729 -0.6231  2.0564 -2.3048
 1630TIP3   OH226304   4.854   1.763  14.491 -0.1188  0.5774  0.1514
 1630TIP3    H126305   4.769   1.807  14.494 -1.1628 -1.3727  0.1535
 1630TIP3    H226306   4.911   1.816  14.546 -1.6188  1.3294  1.0095
 1631TIP3   OH226307   3.132   6.223   2.106  0.1866  0.4889 -0.1049
 1631TIP3    H126308   3.061   6.166   2.074  0.7076  0.6526 -1.6083
 1631TIP3    H226309   3.118   6.305   2.059 -0.4130  1.5493  1.8658
 1632TIP3   OH226310   1.204   2.336  14.894  0.4503 -0.2246 -0.1110
 1632TIP3    H126311   1.149   2.258  14.885 -0.3538  0.1536  1.2854
 1632TIP3    H226312   1.279   2.307  14.946  0.4295 -0.1997 -0.0669
 1633TIP3   OH226313   3.153   4.555   2.735  0.1160 -0.4482 -0.5402
 1633TIP3    H126314   3.209   4.590   2.805  1.0601 -1.7923 -0.6027
 1633TIP3    H226315   3.111   4.632   2.697 -0.0931  0.3527  1.2350
 1634TIP3   OH226316   6.066   2.035  11.287 -0.0964 -0.3281  0.1175
 1634TIP3    H126317   6.000   1.967  11.299 -0.1334 -0.8169 -2.6127
 1634TIP3    H226318   6.133   1.995  11.231 -0.0651  1.8200 -1.4625
 1635TIP3   OH226319   5.482   2.052  13.548  0.2073 -0.3819  0.2062
 1635TIP3    H126320   5.466   1.959  13.564 -0.4875 -0.0791  1.3482
 1635TIP3    H226321   5.422   2.075  13.477 -0.0510 -0.6661  0.3342
 1636TIP3   OH226322   4.069   4.900  15.098 -0.3424  0.0262 -0.8358
 1636TIP3    H126323   4.007   4.831  15.075  0.3460 -0.3692 -1.5036
 1636TIP3    H226324   4.023   4.981  15.078 -1.1094 -0.2307 -0.1593
 1637TIP3   OH226325   1.979   6.562   2.870  0.1792 -0.1816  0.4566
 1637TIP3    H126326   1.897   6.598   2.903 -0.9273 -0.4216 -1.8898
 1637TIP3    H226327   2.027   6.639   2.838  0.7275 -0.0777  1.5231
 1638TIP3   OH226328   4.002   6.310  15.824 -0.8679  0.1971 -0.2896
 1638TIP3    H126329   4.066   6.373  15.857  0.5216 -0.2598 -2.0113
 1638TIP3    H226330   3.979   6.342  15.737 -0.0764 -1.6747 -1.2316
 1639TIP3   OH226331   1.599   3.845   1.224  0.5217 -0.2868 -0.3133
 1639TIP3    H126332   1.570   3.821   1.313  0.3496  0.4949 -0.1547
 1639TIP3    H226333   1.694   3.834   1.226  0.8115  2.1010  0.7247
 1640TIP3   OH226334   1.115   1.149  13.163  0.0945 -0.4654  0.0427
 1640TIP3    H126335   1.048   1.083  13.146  0.7417 -0.7056 -1.6988
 1640TIP3    H226336   1.192   1.119  13.113  1.0371  0.5345  0.8727
 1641TIP3   OH226337   3.131   2.512  14.580 -0.1485  0.3018  0.6820
 1641TIP3    H126338   3.219   2.539  14.555  0.3359 -1.3069  0.6048
 1641TIP3    H226339   3.124   2.538  14.672  0.4038  0.4379  0.6905
 1642TIP3   OH226340   1.054   6.164   3.182  0.3324  0.1362  0.0430
 1642TIP3    H126341   1.059   6.126   3.269  1.0533  1.3360  0.5278
 1642TIP3    H226342   1.134   6.136   3.138 -1.6279 -3.3962 -1.4580
 1643TIP3   OH226343   2.248   6.360   2.192  0.1327 -0.2742  0.3524
 1643TIP3    H126344   2.177   6.425   2.194 -2.6389 -3.2266  2.4507
 1643TIP3    H226345   2.218   6.295   2.129  0.6926 -1.8275  1.6689
 1644TIP3   OH226346   0.025   2.092   5.290 -0.5073  0.1781  0.2955
 1644TIP3    H126347   0.084   2.092   5.215 -1.1206  2.0910 -0.2308
 1644TIP3    H226348   0.040   2.177   5.332 -0.8680 -0.4742  1.7880
 1645TIP3   OH226349   2.114   4.021   4.692  0.8509  0.3929 -0.5497
 1645TIP3    H126350   2.024   4.049   4.710  0.1409  0.0527 -3.3853
 1645TIP3    H226351   2.154   4.095   4.647  2.2383  0.8108  1.3240
 1646TIP3   OH226352   0.874   3.669  14.904  0.3224  0.5597 -0.1160
 1646TIP3    H126353   0.881   3.749  14.852 -0.4142 -1.0891 -2.8372
 1646TIP3    H226354   0.885   3.598  14.841  2.2578 -1.5225  2.4319
 1647TIP3   OH226355   2.264   1.857  15.955  0.1055 -0.0384 -0.2233
 1647TIP3    H126356   2.285   1.932  15.900 -2.4909 -0.2784 -1.6186
 1647TIP3    H226357   2.228   1.792  15.895 -0.5049 -1.2555  1.4054
 1648TIP3   OH226358   2.726   3.193  16.582 -0.8429 -0.1091 -0.1039
 1648TIP3    H126359   2.638   3.176  16.550 -0.8205 -0.6071  0.0965
 1648TIP3    H226360   2.783   3.178  16.506 -0.7047 -2.1489  0.3710
 1649TIP3   OH226361   4.015   5.597   2.026  0.5390 -0.7842  0.4263
 1649TIP3    H126362   4.008   5.501   2.023  2.3718 -0.9883  1.9343
 1649TIP3    H226363   4.105   5.613   2.054  0.4932  1.4094 -0.6312
 1650TIP3   OH226364   0.295   4.255   1.816  0.2349  0.3789  0.0867
 1650TIP3    H126365   0.379   4.256   1.772  0.0613 -1.3312 -0.3103
 1650TIP3    H226366   0.292   4.171   1.862 -1.1659  0.4909  0.2453
 1651TIP3   OH226367   5.779   3.023  15.826  0.1520 -0.0487  0.0987
 1651TIP3    H126368   5.871   3.018  15.854  0.2062  0.0495 -0.0593
 1651TIP3    H226369   5.755   3.115  15.839 -0.0548 -0.1680  0.5544
 1652TIP3   OH226370   1.246   5.805   1.980  0.0054  0.0617  0.1954
 1652TIP3    H126371   1.262   5.898   1.967 -0.5406  0.0694 -0.4265
 1652TIP3    H226372   1.262   5.791   2.074 -0.2800  0.8516  0.3665
 1653TIP3   OH226373   5.615   2.165  11.392 -0.2832 -0.3244  0.2823
 1653TIP3    H126374   5.570   2.130  11.316  0.4780  0.3845 -0.4977
 1653TIP3    H226375   5.576   2.251  11.406  1.3660  0.6451 -0.8965
 1654TIP3   OH226376   1.008   2.874  13.610  0.3373  0.5558 -0.0696
 1654TIP3    H126377   0.961   2.791  13.619 -1.2612  1.1588 -2.5133
 1654TIP3    H226378   1.015   2.907  13.700 -0.6186 -1.3518  0.7322
 1655TIP3   OH226379   3.733   6.485   3.912 -0.3405 -0.2746  0.2761
 1655TIP3    H126380   3.816   6.526   3.937 -0.2118 -0.3301 -0.0629
 1655TIP3    H226381   3.736   6.480   3.817 -2.2805  3.0595 -0.0491
 1656TIP3   OH226382   5.082   5.352   0.071  0.6236  0.0647  0.4624
 1656TIP3    H126383   5.052   5.269   0.034 -0.3951  0.8567 -0.5064
 1656TIP3    H226384   5.075   5.340   0.165  1.1130 -1.1791  0.3545
 1657TIP3   OH226385   2.438   2.721  12.836 -0.1907  0.1301  0.1822
 1657TIP3    H126386   2.346   2.743  12.851  0.4944  1.4677  2.6965
 1657TIP3    H226387   2.457   2.652  12.900  0.0654 -1.5167 -1.6316
 1658TIP3   OH226388   4.749   6.753   6.434 -0.7179  0.0892 -0.3628
 1658TIP3    H126389   4.832   6.706   6.440  0.0630  1.2458 -1.7548
 1658TIP3    H226390   4.771   6.842   6.464 -0.8826  1.0420 -2.9568
 1659TIP3   OH226391   2.284   3.977   5.644  0.0611  0.9396  0.0930
 1659TIP3    H126392   2.236   4.059   5.628 -1.3008  0.2451  0.4897
 1659TIP3    H226393   2.250   3.917   5.578 -0.7932 -0.0294  1.3832
 1660TIP3   OH226394   0.627   0.393  16.456 -0.6707 -0.5328  0.2459
 1660TIP3    H126395   0.676   0.339  16.518 -1.3410 -1.3626  0.0642
 1660TIP3    H226396   0.692   0.420  16.391 -0.2219 -0.6845  0.6280
 1661TIP3   OH226397   0.445   4.514  14.687 -0.2674  0.4902 -1.0786
 1661TIP3    H126398   0.539   4.524  14.706 -0.1250  0.7354 -1.8689
 1661TIP3    H226399   0.439   4.430  14.642 -0.6136 -0.1367  0.1346
 1662TIP3   OH226400   4.130   2.912  10.551 -0.5431  0.4432 -0.0538
 1662TIP3    H126401   4.052   2.875  10.511  0.2523  0.4658 -1.6382
 1662TIP3    H226402   4.119   3.007  10.541  0.5850  0.3751 -1.9849
 1663TIP3   OH226403   4.484   5.475  11.388 -0.1361 -0.0098 -0.1064
 1663TIP3    H126404   4.502   5.530  11.312  0.0292 -2.1937 -1.6941
 1663TIP3    H226405   4.536   5.396  11.374  0.1043 -0.3369  2.4273
 1664TIP3   OH226406   4.335   2.433  16.648 -1.0544 -0.1519 -0.7212
 1664TIP3    H126407   4.323   2.528  16.643  1.4980  0.1124 -2.7560
 1664TIP3    H226408   4.412   2.421  16.704 -1.4239 -1.0147 -0.3942
 1665TIP3   OH226409   2.931   5.534   5.818 -0.4964  0.3687  0.3919
 1665TIP3    H126410   2.873   5.573   5.753  0.1866  0.9865  0.1489
 1665TIP3    H226411   3.018   5.534   5.776 -0.0949  0.5748  1.2160
 1666TIP3   OH226412   4.356   5.269   0.782 -0.1789 -0.5554 -0.1143
 1666TIP3    H126413   4.403   5.225   0.853  0.2787  0.6053  0.2955
 1666TIP3    H226414   4.311   5.197   0.736  0.4638 -1.4441  0.6258
 1667TIP3   OH226415   2.910   4.319  15.237 -0.1648 -0.4009  0.4721
 1667TIP3    H126416   2.950   4.381  15.298  0.6140 -1.4288  1.0266
 1667TIP3    H226417   2.983   4.289  15.182 -0.2298 -2.0057  1.2433
 1668TIP3   OH226418   2.310   0.595   0.878  0.0041 -0.0475 -0.1176
 1668TIP3    H126419   2.310   0.603   0.782  0.5266 -0.2078 -0.1362
 1668TIP3    H226420   2.354   0.675   0.908  0.2322 -0.2051 -0.0326
 1669TIP3   OH226421   3.251   1.673   1.804  0.1470  0.7728 -0.0668
 1669TIP3    H126422   3.212   1.670   1.717  0.3202  1.9897 -0.1952
 1669TIP3    H226423   3.222   1.756   1.841 -0.1082  0.1698  1.1341
 1670TIP3   OH226424   0.817   6.596   3.633  0.3813 -0.0192 -0.1633
 1670TIP3    H126425   0.862   6.531   3.687 -1.2818  0.2493  1.6074
 1670TIP3    H226426   0.726   6.592   3.662 -0.0243  2.0569 -1.0703
 1671TIP3   OH226427   3.191   2.310  15.344 -0.3944  0.0131  0.0240
 1671TIP3    H126428   3.169   2.217  15.343  0.9228 -0.3200  0.4594
 1671TIP3    H226429   3.146   2.344  15.422  0.7117 -0.6856  0.9925
 1672TIP3   OH226430   1.426   6.428   4.757  1.0895  0.6406  0.1935
 1672TIP3    H126431   1.464   6.408   4.671  1.2362  0.7741  0.2254
 1672TIP3    H226432   1.434   6.523   4.764  1.3818  0.5939  0.4944
 1673TIP3   OH226433   2.600   5.367  10.692  0.2382 -0.3594  0.1205
 1673TIP3    H126434   2.554   5.290  10.657  0.6088 -0.2850 -0.5184
 1673TIP3    H226435   2.549   5.442  10.661  0.2650 -0.3120  0.1883
 1674TIP3   OH226436   5.840   3.764  15.717 -0.6293  0.1964 -0.0161
 1674TIP3    H126437   5.783   3.784  15.791 -0.5950 -0.3402  0.1562
 1674TIP3    H226438   5.928   3.788  15.747 -0.7932  1.2647 -0.3722
 1675TIP3   OH226439   3.329   5.872   5.036 -0.0428  0.1064  0.4865
 1675TIP3    H126440   3.337   5.947   4.977  0.0310  1.4314  2.1581
 1675TIP3    H226441   3.328   5.796   4.978 -0.3732  1.4108 -1.2401
 1676TIP3   OH226442   4.949   5.373  11.516 -0.4424 -0.4101 -0.1337
 1676TIP3    H126443   4.928   5.304  11.579  0.0914 -0.4624 -0.0152
 1676TIP3    H226444   5.029   5.343  11.473 -0.6808 -0.2697 -0.6804
 1677TIP3   OH226445   4.159   2.849  16.162  0.0102 -0.0556  0.5455
 1677TIP3    H126446   4.133   2.872  16.251 -0.1280 -0.0579  0.5057
 1677TIP3    H226447   4.150   2.930  16.112  1.1573  0.2131  0.7675
 1678TIP3   OH226448   6.755   0.626  11.427 -0.8201  0.4405  0.6560
 1678TIP3    H126449   6.838   0.587  11.455  0.8572  2.0535 -1.9107
 1678TIP3    H226450   6.743   0.700  11.487 -1.1629 -0.6198  1.9318
 1679TIP3   OH226451   6.781   4.268  16.018  0.4568  0.0410  0.4779
 1679TIP3    H126452   6.712   4.298  16.078 -0.3783  1.4202 -1.1643
 1679TIP3    H226453   6.842   4.220  16.075 -1.8845 -1.2825  1.9534
 1680TIP3   OH226454   3.981   3.107   2.415 -0.5582 -0.0064 -0.0694
 1680TIP3    H126455   4.056   3.148   2.459 -0.0876  0.9424 -1.7209
 1680TIP3    H226456   4.003   3.110   2.322 -2.7584  0.5447 -0.6033
 1681TIP3   OH226457   6.139   4.811  13.741  0.1111 -0.1130 -0.4551
 1681TIP3    H126458   6.160   4.809  13.647  0.0175 -0.7686 -0.4649
 1681TIP3    H226459   6.155   4.721  13.771  1.9987  0.5300  0.5528
 1682TIP3   OH226460   4.121   2.438   1.600 -0.1999 -0.0902 -0.6532
 1682TIP3    H126461   4.150   2.428   1.691  2.0086 -2.1798 -1.5181
 1682TIP3    H226462   4.026   2.450   1.606 -0.4512 -2.6421  1.8268
 1683TIP3   OH226463   1.317   3.761   6.074  0.4148 -0.1020 -0.3897
 1683TIP3    H126464   1.291   3.796   6.159  1.2276  1.5192 -0.7753
 1683TIP3    H226465   1.274   3.819   6.011  0.8134 -0.5267 -1.0545
 1684TIP3   OH226466   3.516   6.221   1.969 -0.0204 -0.1143 -0.1432
 1684TIP3    H126467   3.539   6.186   1.883  0.8990  0.5810 -0.1860
 1684TIP3    H226468   3.466   6.300   1.950  0.1252  0.0027 -0.0386
 1685TIP3   OH226469   4.292   0.105  11.309 -0.2783 -0.4977 -0.2445
 1685TIP3    H126470   4.316   0.031  11.364 -2.2477 -0.7028  0.3479
 1685TIP3    H226471   4.261   0.065  11.227  0.6145 -0.2549 -0.7116
 1686TIP3   OH226472   2.902   3.934  12.601  0.1202 -0.3507  0.6481
 1686TIP3    H126473   2.936   3.891  12.523  1.3560  0.1091  0.9351
 1686TIP3    H226474   2.924   4.026  12.590 -1.5768  0.0548  0.5440
 1687TIP3   OH226475   0.937   1.359   4.288  0.1667  0.6965  0.3111
 1687TIP3    H126476   0.846   1.338   4.268  1.0845 -2.9107 -0.4636
 1687TIP3    H226477   0.943   1.350   4.383  0.4990 -2.7675  0.0222
 1688TIP3   OH226478   6.571   0.719  17.114 -0.4600  0.4431 -0.7216
 1688TIP3    H126479   6.563   0.785  17.045 -0.5635 -2.0613 -3.1714
 1688TIP3    H226480   6.487   0.673  17.114 -0.5816  0.5824  1.3176
 1689TIP3   OH226481   0.361   0.719   3.073  0.2594  0.2714 -0.1201
 1689TIP3    H126482   0.344   0.769   3.153  0.0159 -0.1265  0.0809
 1689TIP3    H226483   0.445   0.676   3.089  0.6114  0.8448 -0.4102
 1690TIP3   OH226484   4.934   5.900  15.690 -0.1249  0.2467 -0.2965
 1690TIP3    H126485   4.869   5.832  15.673 -0.1280 -0.2605  1.6316
 1690TIP3    H226486   4.969   5.879  15.776  0.9362  1.8533 -0.3080
 1691TIP3   OH226487   5.018   0.417  16.603 -0.1487  0.3131 -0.7629
 1691TIP3    H126488   5.040   0.324  16.595  1.9256  0.5911  1.2750
 1691TIP3    H226489   5.097   0.463  16.574  0.1552  1.3766  1.6371
 1692TIP3   OH226490   1.282   2.016   0.949 -0.4220 -0.2833  0.1389
 1692TIP3    H126491   1.349   2.078   0.918 -2.3177  1.9036  0.3427
 1692TIP3    H226492   1.289   2.019   1.044 -1.6928  0.9870  0.2101
 1693TIP3   OH226493   2.815   5.619  16.330 -0.2233 -0.0966  0.2801
 1693TIP3    H126494   2.792   5.593  16.419 -1.0435  1.2548  0.4810
 1693TIP3    H226495   2.749   5.576  16.275 -0.0640 -0.4643  0.3773
 1694TIP3   OH226496   1.097   3.204   3.943  0.1910 -0.2477 -0.2788
 1694TIP3    H126497   1.101   3.150   3.864  2.6638  1.0030 -1.0745
 1694TIP3    H226498   1.172   3.263   3.936 -1.3525  2.0481  1.4676
 1695TIP3   OH226499   0.420   2.283  15.355  0.2009  0.5092  0.8169
 1695TIP3    H126500   0.418   2.355  15.292  0.1700  1.3797  1.8092
 1695TIP3    H226501   0.411   2.204  15.301 -2.2355  1.3385 -0.0873
 1696TIP3   OH226502   1.751   0.301  12.566  0.5749 -0.9752 -0.6234
 1696TIP3    H126503   1.846   0.312  12.568  0.3780  0.6522  0.4887
 1696TIP3    H226504   1.727   0.285  12.658 -0.3921  0.2389 -0.6544
 1697TIP3   OH226505   0.372   5.479   4.933  0.0578 -0.0695  0.5797
 1697TIP3    H126506   0.292   5.440   4.898 -0.8730  0.4112  2.0850
 1697TIP3    H226507   0.395   5.423   5.007 -0.3680  1.2656  1.7514
 1698TIP3   OH226508   4.070   0.160   1.071 -0.1170 -0.1767  0.1931
 1698TIP3    H126509   4.104   0.110   0.996 -0.3273 -1.6916  1.0846
 1698TIP3    H226510   4.126   0.135   1.144 -1.0681 -0.1487  0.9444
 1699TIP3   OH226511   6.280   0.603  15.520 -0.4599 -0.7075  0.0762
 1699TIP3    H126512   6.345   0.534  15.527  1.2222  0.3884 -3.5798
 1699TIP3    H226513   6.327   0.677  15.481 -3.4085  0.7654 -0.8430
 1700TIP3   OH226514   5.266   6.529  17.137 -0.0788  0.5976  0.1432
 1700TIP3    H126515   5.204   6.462  17.109 -0.1938  0.4775  0.6732
 1700TIP3    H226516   5.312   6.489  17.211  1.7219  0.1014 -1.2348
 1701TIP3   OH226517   5.041   2.956  11.392 -0.1173  0.1792 -0.0018
 1701TIP3    H126518   5.035   3.002  11.309 -0.0505  1.9835  0.9726
 1701TIP3    H226519   5.130   2.922  11.394 -0.8179 -1.8872 -1.6716
 1702TIP3   OH226520   3.336   4.239   4.444 -0.1014  1.0322 -0.1246
 1702TIP3    H126521   3.321   4.267   4.534 -1.8773 -0.1747 -0.0172
 1702TIP3    H226522   3.299   4.310   4.391 -2.5027  0.0198  0.1364
 1703TIP3   OH226523   3.986   3.816  12.425  0.1006  0.6649  0.4760
 1703TIP3    H126524   3.899   3.797  12.459  0.0722 -1.3641 -0.6431
 1703TIP3    H226525   4.044   3.755  12.471  0.8169  1.4395  0.6199
 1704TIP3   OH226526   1.700   6.076   0.299  0.1259 -0.2251 -0.2847
 1704TIP3    H126527   1.613   6.038   0.308  0.0644 -0.6787 -2.6401
 1704TIP3    H226528   1.755   6.003   0.270  0.9805  0.4090 -0.2899
 1705TIP3   OH226529   5.894   5.690  14.532 -0.2134 -0.7615 -0.1485
 1705TIP3    H126530   5.842   5.621  14.573  0.7440 -2.3196 -1.4708
 1705TIP3    H226531   5.883   5.675  14.438  0.3228  0.6723 -0.4564
 1706TIP3   OH226532   1.036   2.793   4.190  0.1725 -0.7705 -0.2117
 1706TIP3    H126533   1.092   2.737   4.245 -0.2256 -0.8778  0.0862
 1706TIP3    H226534   1.017   2.869   4.246 -2.0313 -1.8942  0.6039
 1707TIP3   OH226535   5.834   2.610   0.119 -0.2019 -0.0044 -0.0991
 1707TIP3    H126536   5.884   2.534   0.090  0.4913  0.0162  1.0209
 1707TIP3    H226537   5.743   2.587   0.102 -0.1194 -1.7604  1.7787
 1708TIP3   OH226538   5.996   1.376   0.525  0.6181  0.1814  0.8411
 1708TIP3    H126539   6.069   1.405   0.580  1.4624 -1.7236  0.7929
 1708TIP3    H226540   6.039   1.339   0.447 -0.4204 -0.2647  0.4755
 1709TIP3   OH226541   0.253   5.889  14.435 -0.1387 -0.2806  0.5309
 1709TIP3    H126542   0.181   5.867  14.375  3.1970 -1.0220 -3.4098
 1709TIP3    H226543   0.262   5.984  14.427  1.3308 -0.5663 -1.4420
 1710TIP3   OH226544   1.065   3.955  13.062 -0.2028 -0.4868 -0.1271
 1710TIP3    H126545   1.153   3.941  13.096 -0.7375 -4.4101 -0.0569
 1710TIP3    H226546   1.008   3.928  13.134 -1.4640  0.7099 -0.6563
 1711TIP3   OH226547   0.997   3.733  17.183  0.0849  0.3335  0.2762
 1711TIP3    H126548   1.056   3.806  17.201 -0.0768  0.4696  0.2541
 1711TIP3    H226549   1.023   3.665  17.244  0.2929  0.3799  0.2364
 1712TIP3   OH226550   3.294   1.036  13.560  0.3775 -0.4877  0.0465
 1712TIP3    H126551   3.275   1.130  13.553  0.9429 -0.4165 -0.5637
 1712TIP3    H226552   3.247   1.008  13.639 -1.8947 -0.2180 -1.1760
 1713TIP3   OH226553   6.360   4.935  17.169 -0.1627  0.6486 -0.4167
 1713TIP3    H126554   6.321   5.019  17.196  1.7793  1.5982 -0.4381
 1713TIP3    H226555   6.430   4.960  17.109  0.5503 -0.9931 -0.2796
 1714TIP3   OH226556   3.229   1.761  13.493 -0.0552 -0.1697 -0.1501
 1714TIP3    H126557   3.176   1.698  13.542  0.8538 -1.2818 -0.5809
 1714TIP3    H226558   3.293   1.794  13.557  0.5988 -1.0023 -0.3736
 1715TIP3   OH226559   6.707   3.891   1.531 -0.0782  0.4126 -0.0451
 1715TIP3    H126560   6.773   3.961   1.531 -0.5027  0.8251 -0.8147
 1715TIP3    H226561   6.745   3.824   1.474  0.8831 -0.5378  1.6695
 1716TIP3   OH226562   3.636   0.457  16.964 -0.4905  0.1130 -0.2061
 1716TIP3    H126563   3.716   0.414  16.933 -0.5938  0.1367 -0.5080
 1716TIP3    H226564   3.663   0.502  17.045 -0.8814 -2.2430  1.2759
 1717TIP3   OH226565   2.424   6.195   4.452  0.3728  0.1671  0.2153
 1717TIP3    H126566   2.446   6.284   4.425  0.6286 -0.0878 -0.4376
 1717TIP3    H226567   2.348   6.173   4.398  1.4774 -0.6996 -1.0303
 1718TIP3   OH226568   3.262   5.026   2.772  0.4607  0.0570 -0.2337
 1718TIP3    H126569   3.247   4.941   2.730 -0.4531  0.0973 -0.0080
 1718TIP3    H226570   3.214   5.089   2.717  0.8854  0.3858 -0.2320
 1719TIP3   OH226571   0.635   2.946  13.365 -0.0258 -0.4282  0.1985
 1719TIP3    H126572   0.634   2.866  13.417  1.3248  0.0066  0.9229
 1719TIP3    H226573   0.616   3.016  13.427  1.9639  0.1313  0.2271
 1720TIP3   OH226574   0.800   0.784  17.164  0.4234 -0.5390  0.4727
 1720TIP3    H126575   0.877   0.740  17.200  1.4170  1.1308  0.4623
 1720TIP3    H226576   0.731   0.770  17.229  1.2119 -0.6218  1.2923
 1721TIP3   OH226577   3.200   6.392  15.429  0.1712 -0.3573  0.1011
 1721TIP3    H126578   3.114   6.430  15.412 -1.6433 -3.4883  1.7481
 1721TIP3    H226579   3.223   6.348  15.347  0.3689  0.7411 -0.4428
 1722TIP3   OH226580   4.869   4.217  16.181  0.2123  0.1299  0.3707
 1722TIP3    H126581   4.879   4.175  16.267 -0.9816  0.7275  0.8100
 1722TIP3    H226582   4.897   4.150  16.119 -1.1079 -1.1118  1.1035
 1723TIP3   OH226583   5.604   0.851  15.406  0.0660 -0.3982  0.1371
 1723TIP3    H126584   5.565   0.935  15.382  1.3676 -0.4539 -2.2570
 1723TIP3    H226585   5.687   0.874  15.447  0.3093 -0.5023 -0.2931
 1724TIP3   OH226586   0.395   2.548   4.498  0.4630  0.0747 -0.0634
 1724TIP3    H126587   0.307   2.514   4.481  0.7986 -0.1263 -1.4923
 1724TIP3    H226588   0.383   2.641   4.514  0.1835  0.4939 -2.4216
 1725TIP3   OH226589   5.824   5.149  16.971  0.6292 -0.1995 -0.1063
 1725TIP3    H126590   5.790   5.139  17.060  0.3568 -0.9639 -0.2931
 1725TIP3    H226591   5.856   5.239  16.967 -0.5786  0.2529  0.3456
 1726TIP3   OH226592   5.089   0.265  15.254 -0.0630 -0.3030 -0.0074
 1726TIP3    H126593   5.022   0.263  15.185  0.6896 -1.6466 -0.7072
 1726TIP3    H226594   5.068   0.191  15.310  0.9465 -0.8522 -0.3400
 1727TIP3   OH226595   4.200   3.514   3.478  0.3324 -0.4397 -0.0833
 1727TIP3    H126596   4.240   3.459   3.545 -1.4196  0.0215  1.3874
 1727TIP3    H226597   4.150   3.579   3.527  0.5331  1.0779 -1.8295
 1728TIP3   OH226598   0.160   5.581   0.754  0.0977 -0.2574 -0.3801
 1728TIP3    H126599   0.109   5.624   0.686 -0.1869 -0.8583 -0.5544
 1728TIP3    H226600   0.165   5.644   0.825 -0.6148 -0.0762 -0.4949
 1729TIP3   OH226601   5.362   2.370  15.302  0.1897 -0.4134 -0.2072
 1729TIP3    H126602   5.446   2.397  15.339 -0.4775 -1.1848  1.8958
 1729TIP3    H226603   5.299   2.435  15.333  0.0532  0.4431 -2.1793
 1730TIP3   OH226604   2.163   1.126   1.462  0.3863  0.9961  0.0985
 1730TIP3    H126605   2.115   1.124   1.379 -2.1176 -1.0537  1.4975
 1730TIP3    H226606   2.228   1.056   1.454  0.3233  0.9762 -0.2464
 1731TIP3   OH226607   1.401   1.981   5.479 -0.1640  0.0919 -0.4900
 1731TIP3    H126608   1.350   1.933   5.545 -0.5486  1.7566  0.4647
 1731TIP3    H226609   1.415   2.067   5.518  2.3231  0.0763 -1.2803
 1732TIP3   OH226610   0.623   5.517  14.742  0.0264  0.2440  0.4939
 1732TIP3    H126611   0.660   5.533  14.655  0.2483 -0.2110  0.5046
 1732TIP3    H226612   0.571   5.437  14.732 -1.4371  1.1833  0.3397
 1733TIP3   OH226613   1.940   6.350  13.387  0.1350  0.4841  0.0567
 1733TIP3    H126614   1.925   6.322  13.478  0.6081 -1.8712 -0.5581
 1733TIP3    H226615   2.019   6.303  13.360 -0.5998  0.3199 -1.9051
 1734TIP3   OH226616   0.096   0.733   1.919 -0.2951  0.1759  0.0438
 1734TIP3    H126617   0.094   0.638   1.925 -0.1713  0.1695 -0.0169
 1734TIP3    H226618   0.162   0.760   1.983 -0.7397  0.2535  0.4647
 1735TIP3   OH226619   5.042   5.072  12.474 -0.1305 -0.2168 -0.1602
 1735TIP3    H126620   4.974   5.127  12.511  1.5167 -0.0295  2.7590
 1735TIP3    H226621   5.089   5.129  12.413 -1.2781  0.2507 -0.6088
 1736TIP3   OH226622   5.809   6.166   0.643 -0.4314 -0.3607  0.2073
 1736TIP3    H126623   5.733   6.109   0.640 -0.7189 -0.0330  1.0917
 1736TIP3    H226624   5.773   6.254   0.651  0.0091 -0.0270 -1.2740
 1737TIP3   OH226625   4.005   3.323   2.790 -0.1491 -0.1278 -0.0702
 1737TIP3    H126626   4.079   3.339   2.849 -1.6429  2.7273  1.1101
 1737TIP3    H226627   3.996   3.404   2.740 -2.3255 -0.5092 -0.3520
 1738TIP3   OH226628   2.919   3.252   5.068 -0.0351  0.0106  0.0892
 1738TIP3    H126629   2.830   3.288   5.064  0.7785  2.1511  0.6585
 1738TIP3    H226630   2.972   3.323   5.104  1.9685 -1.1401 -0.5179
 1739TIP3   OH226631   6.505   4.806   3.117 -0.3128  0.7218  0.0197
 1739TIP3    H126632   6.598   4.800   3.140 -0.2772  1.5052  0.1207
 1739TIP3    H226633   6.459   4.770   3.192 -0.0718 -0.1992 -0.2696
 1740TIP3   OH226634   3.997   6.199  10.982  0.0490  0.2360  0.4086
 1740TIP3    H126635   3.916   6.225  11.024 -0.3743 -1.2587  0.5410
 1740TIP3    H226636   3.971   6.173  10.893  0.2264 -1.0714  0.7227
 1741TIP3   OH226637   3.152   2.953  15.048 -0.0191  0.2329 -0.2359
 1741TIP3    H126638   3.246   2.949  15.064 -0.1700  0.4325  0.7757
 1741TIP3    H226639   3.113   2.943  15.135 -0.9483 -0.4542 -0.7263
 1742TIP3   OH226640   2.946   1.025  16.680  0.1109 -0.5402 -0.1395
 1742TIP3    H126641   2.880   1.021  16.749 -0.1318 -0.1891 -0.3561
 1742TIP3    H226642   2.897   1.020  16.598  0.0199  3.1368 -0.3990
 1743TIP3   OH226643   3.210   6.542   4.310  0.2293  0.3867  0.7252
 1743TIP3    H126644   3.206   6.508   4.400 -0.5206 -0.6374  0.3210
 1743TIP3    H226645   3.296   6.515   4.278  1.3473  2.5571  1.8203
 1744TIP3   OH226646   0.893   2.441  17.015  0.0637 -0.0780  0.2173
 1744TIP3    H126647   0.897   2.527  17.056  2.8949 -0.0151 -0.0410
 1744TIP3    H226648   0.800   2.423  17.003 -0.5732  2.6809  0.8132
 1745TIP3   OH226649   6.415   1.068  16.845  0.3726 -0.4403  0.3078
 1745TIP3    H126650   6.374   0.990  16.808 -1.0999  0.0835  0.8013
 1745TIP3    H226651   6.391   1.139  16.786  3.4337 -0.6457 -1.3030
 1746TIP3   OH226652   1.376   0.120   2.738  0.3846  0.3241  0.1063
 1746TIP3    H126653   1.311   0.094   2.673  0.1422 -0.1866  0.5522
 1746TIP3    H226654   1.437   0.176   2.690  0.8212 -0.9279 -0.8174
 1747TIP3   OH226655   3.682   5.773  12.166  0.4301  0.2017  0.3169
 1747TIP3    H126656   3.603   5.719  12.175  0.2215  0.4207 -0.1510
 1747TIP3    H226657   3.699   5.775  12.072  0.2309  1.2292  0.2902
 1748TIP3   OH226658   0.125   3.257  12.377  0.3550  0.7006 -0.3687
 1748TIP3    H126659   0.069   3.181  12.360  0.7877  0.2124  0.3374
 1748TIP3    H226660   0.110   3.277  12.470  1.5759  0.3771 -0.0931
 1749TIP3   OH226661   3.230   0.794  10.449  0.5884  0.0534  0.3985
 1749TIP3    H126662   3.308   0.849  10.453  0.0099  0.9042  0.0031
 1749TIP3    H226663   3.231   0.757  10.360  0.3055  0.4266  0.2349
 1750TIP3   OH226664   6.753   1.366  10.946 -0.1710 -0.1557  0.3187
 1750TIP3    H126665   6.803   1.343  10.868  0.4048  1.5348  0.1729
 1750TIP3    H226666   6.664   1.380  10.914  0.2581  1.4427 -0.1969
 1751TIP3   OH226667   4.837   4.000  11.789  0.2769 -0.0964  0.3037
 1751TIP3    H126668   4.818   3.989  11.696 -0.8929  0.2017  0.5028
 1751TIP3    H226669   4.931   3.984  11.796  0.1599 -1.3272 -0.7378
 1752TIP3   OH226670   1.256   4.198  11.891  0.0613  0.4374  0.0829
 1752TIP3    H126671   1.239   4.111  11.925 -2.1143  0.4442 -0.9431
 1752TIP3    H226672   1.309   4.240  11.960 -1.3330 -0.6959  1.9047
 1753TIP3   OH226673   4.998   0.433   0.000  0.1989  0.3000 -0.3161
 1753TIP3    H126674   5.065   0.384  -0.047  2.0783  1.2313  1.3408
 1753TIP3    H226675   4.970   0.373   0.070 -0.5407  0.0060 -0.8567
 1754TIP3   OH226676   1.623   4.270  15.204  0.2311  0.1497 -0.3611
 1754TIP3    H126677   1.611   4.210  15.131  0.0162  0.1077 -0.2915
 1754TIP3    H226678   1.546   4.328  15.200 -1.0859 -1.4097  1.3268
 1755TIP3   OH226679   2.345   2.995   5.174  0.5659  0.9232  0.0556
 1755TIP3    H126680   2.393   2.912   5.170  0.5766  0.9782 -1.5269
 1755TIP3    H226681   2.341   3.016   5.267  0.3969 -0.9457  0.4919
 1756TIP3   OH226682   3.827   1.267   0.317 -0.0874  0.7707  0.0728
 1756TIP3    H126683   3.797   1.346   0.273  0.4017  0.4483 -0.8506
 1756TIP3    H226684   3.754   1.206   0.308  0.0407  0.6798 -0.3615
 1757TIP3   OH226685   3.235   0.573   5.858 -0.2999  0.2137  0.1066
 1757TIP3    H126686   3.285   0.493   5.843 -1.5303 -0.5566  0.1022
 1757TIP3    H226687   3.144   0.546   5.854 -0.7215  1.3352  1.5903
 1758TIP3   OH226688   4.387   3.811   5.740  0.0450 -0.5036 -0.2233
 1758TIP3    H126689   4.329   3.877   5.702 -0.6681 -0.4358  0.9610
 1758TIP3    H226690   4.335   3.769   5.808  1.4357 -0.3408  0.9736
 1759TIP3   OH226691   0.999   3.123  16.325 -0.6768 -0.0477 -0.4719
 1759TIP3    H126692   0.986   3.132  16.230 -0.6355 -1.5511 -0.6365
 1759TIP3    H226693   0.973   3.208  16.361  0.7029  1.0383 -1.9676
 1760TIP3   OH226694   1.573   1.021  13.872  0.0743  0.1315 -0.3051
 1760TIP3    H126695   1.613   1.022  13.958 -0.3728  2.5621 -0.0890
 1760TIP3    H226696   1.645   1.010  13.811  0.5516 -0.0983  0.3034
 1761TIP3   OH226697   3.527   0.475  14.769  0.2452  0.3411 -0.2466
 1761TIP3    H126698   3.493   0.561  14.795 -1.6419 -1.3003  3.1322
 1761TIP3    H226699   3.590   0.452  14.837  0.4890 -1.1042 -0.9309
 1762TIP3   OH226700   5.150   6.007   0.592  0.3453 -0.0279  0.1951
 1762TIP3    H126701   5.212   5.964   0.533  1.1798  1.4716 -0.0495
 1762TIP3    H226702   5.138   5.945   0.664  1.8024 -0.5125  0.0355
 1763TIP3   OH226703   4.280   4.159   1.819  0.0529 -0.0979  0.0333
 1763TIP3    H126704   4.287   4.238   1.872 -2.6701  0.5470 -0.5113
 1763TIP3    H226705   4.314   4.184   1.733  1.3528 -0.2079  0.4986
 1764TIP3   OH226706   6.406   4.629   2.131 -0.1940 -1.0023 -0.2980
 1764TIP3    H126707   6.376   4.660   2.216 -2.0060  0.9388 -1.6205
 1764TIP3    H226708   6.493   4.667   2.121  0.2214 -1.6143  0.8614
 1765TIP3   OH226709   5.859   5.830  16.091  0.5373  0.0522  0.0209
 1765TIP3    H126710   5.791   5.763  16.102  0.4797 -0.0855 -1.1690
 1765TIP3    H226711   5.816   5.899  16.040  1.3081 -0.0577 -0.7727
 1766TIP3   OH226712   0.602   3.642   6.507  0.3690  0.0805 -0.0099
 1766TIP3    H126713   0.604   3.556   6.466 -0.6143 -0.4792  1.0729
 1766TIP3    H226714   0.514   3.675   6.488  0.8703  0.9989 -0.7344
 1767TIP3   OH226715   1.256   2.294  12.098 -0.2655 -0.0473  0.2737
 1767TIP3    H126716   1.302   2.357  12.043 -0.1734 -0.5105 -0.1786
 1767TIP3    H226717   1.287   2.314  12.187 -1.4959  1.6452  0.3620
 1768TIP3   OH226718   5.681   4.373  12.830 -0.6259 -0.6541 -0.0124
 1768TIP3    H126719   5.704   4.283  12.808 -1.7226 -0.4680 -2.0168
 1768TIP3    H226720   5.611   4.365  12.896 -0.0354 -1.2530  0.5453
 1769TIP3   OH226721   1.563   3.456   2.657 -0.2536  0.7100  0.4248
 1769TIP3    H126722   1.505   3.467   2.583 -0.4128  1.4458  0.6532
 1769TIP3    H226723   1.594   3.366   2.651  1.0215  1.2596 -1.4625
 1770TIP3   OH226724   0.111   2.520  15.142 -0.2115 -0.3258 -0.0111
 1770TIP3    H126725   0.096   2.609  15.174 -1.0713 -0.1968 -0.7528
 1770TIP3    H226726   0.206   2.508  15.147 -0.2015  0.1673  1.2913
 1771TIP3   OH226727   4.365   4.172   4.372  0.0471 -0.1802 -0.0514
 1771TIP3    H126728   4.381   4.167   4.278  0.3062  0.1319 -0.0241
 1771TIP3    H226729   4.304   4.100   4.390  0.3720 -0.5393 -0.3787
 1772TIP3   OH226730   5.014   3.241  16.074 -0.1495  0.0279 -0.2761
 1772TIP3    H126731   4.953   3.176  16.109  0.0196 -0.2720 -0.5310
 1772TIP3    H226732   4.974   3.269  15.991  0.3642 -0.6353 -0.7583
 1773TIP3   OH226733   6.565   4.988  16.970  0.7971 -0.7268 -0.0391
 1773TIP3    H126734   6.543   4.934  16.894  2.9515 -0.8192 -0.6104
 1773TIP3    H226735   6.592   5.072  16.934 -0.3670  0.0114  0.7523
 1774TIP3   OH226736   3.626   0.061   4.039 -0.6810 -0.2391 -0.1019
 1774TIP3    H126737   3.682  -0.015   4.056 -0.0902 -0.1477 -1.5506
 1774TIP3    H226738   3.540   0.035   4.069 -0.2254 -1.0471  0.5162
 1775TIP3   OH226739   4.333   3.481   2.054  0.0298 -0.3274 -0.2009
 1775TIP3    H126740   4.352   3.575   2.060  0.2190 -0.2876 -1.4439
 1775TIP3    H226741   4.394   3.448   1.988 -0.0524 -1.3309  0.2112
 1776TIP3   OH226742   5.823   0.548  16.540  0.0420  0.0150  0.3672
 1776TIP3    H126743   5.762   0.541  16.467  1.7918  0.2925 -1.1629
 1776TIP3    H226744   5.786   0.616  16.596 -0.7234  0.6284 -0.8633
 1777TIP3   OH226745   5.488   2.374  14.985 -0.1031 -0.6199  0.1153
 1777TIP3    H126746   5.433   2.448  14.957  1.0964 -0.1238 -0.9797
 1777TIP3    H226747   5.519   2.400  15.072  0.2885  0.1645 -0.2501
 1778TIP3   OH226748   0.669   5.324   5.915 -0.0641 -0.3523 -0.2344
 1778TIP3    H126749   0.588   5.298   5.958  0.6234 -0.7881  0.7930
 1778TIP3    H226750   0.665   5.420   5.912  0.1922 -0.2808  1.4075
 1779TIP3   OH226751   4.338   3.909  16.017 -0.1355  0.0376 -0.1790
 1779TIP3    H126752   4.373   3.864  15.939  0.6470  0.5786 -0.1456
 1779TIP3    H226753   4.245   3.887  16.017  0.0750 -0.8910 -0.6396
 1780TIP3   OH226754   6.437   0.787   3.014 -0.2470 -0.5845  0.1217
 1780TIP3    H126755   6.520   0.778   3.061 -0.8889 -0.8599  1.2158
 1780TIP3    H226756   6.393   0.703   3.026 -0.0992 -0.9427 -1.6217
 1781TIP3   OH226757   4.039   0.625   2.501  0.4361 -0.5130  0.3471
 1781TIP3    H126758   4.072   0.684   2.569 -1.0932  0.1305  0.5756
 1781TIP3    H226759   4.098   0.637   2.427  1.0351  0.1795  0.9345
 1782TIP3   OH226760   3.502   2.763   3.130 -0.8466  0.3050 -0.3708
 1782TIP3    H126761   3.427   2.814   3.099 -0.6159  0.1359 -1.2107
 1782TIP3    H226762   3.505   2.780   3.224 -1.3531  1.0728 -0.4891
 1783TIP3   OH226763   5.302   3.452   1.261 -0.1429 -0.6551 -0.6517
 1783TIP3    H126764   5.350   3.457   1.179 -0.5641 -1.0569 -0.9250
 1783TIP3    H226765   5.369   3.431   1.327  0.3370  0.5492 -0.7468
 1784TIP3   OH226766   2.355   1.405  17.144  0.3522  0.2528 -0.1609
 1784TIP3    H126767   2.321   1.371  17.226 -2.3186  0.2245 -1.2160
 1784TIP3    H226768   2.290   1.378  17.078  1.7041  1.4670 -2.0537
 1785TIP3   OH226769   2.677   2.390  10.767  0.0030  0.1252  0.1517
 1785TIP3    H126770   2.719   2.461  10.719 -1.1044  1.1116  0.6235
 1785TIP3    H226771   2.709   2.398  10.857 -1.0900  0.8091  0.4874
 1786TIP3   OH226772   5.805   6.178  11.531 -0.4808 -0.0115  0.0806
 1786TIP3    H126773   5.883   6.186  11.476 -2.0842 -0.7285 -2.4378
 1786TIP3    H226774   5.746   6.245  11.498 -1.4105 -0.3124  1.1065
 1787TIP3   OH226775   1.083   6.292   0.159  0.3607 -0.0237  0.3180
 1787TIP3    H126776   1.048   6.329   0.240  0.9096  1.7059 -0.2206
 1787TIP3    H226777   1.006   6.262   0.111 -0.1649  1.1839  0.3952
 1788TIP3   OH226778   2.007   0.934   3.549  0.0624  0.2430  0.1040
 1788TIP3    H126779   1.982   0.900   3.635 -0.1144  2.8431  1.1215
 1788TIP3    H226780   2.078   0.877   3.521  0.8438 -0.0124  2.4690
 1789TIP3   OH226781   3.345   5.925   1.797 -0.4393  0.7384  0.3432
 1789TIP3    H126782   3.433   5.887   1.792 -0.6410  0.1135  1.3714
 1789TIP3    H226783   3.347   5.979   1.877 -0.4287  2.2066 -0.6282
 1790TIP3   OH226784   0.638   4.165   0.512  0.8347  0.1635  0.0991
 1790TIP3    H126785   0.686   4.089   0.546 -0.3733  0.1623  1.8525
 1790TIP3    H226786   0.696   4.240   0.530  1.9819 -0.2941 -1.5448
 1791TIP3   OH226787   5.744   4.548  12.305  0.5604 -0.0990 -0.4471
 1791TIP3    H126788   5.654   4.547  12.338  0.4935  4.1201 -0.1595
 1791TIP3    H226789   5.798   4.534  12.382  0.1965  2.3385  0.3158
 1792TIP3   OH226790   0.887   5.545   3.869 -0.0507 -0.3225 -0.0255
 1792TIP3    H126791   0.956   5.536   3.803 -0.1232  0.8043 -0.2637
 1792TIP3    H226792   0.830   5.470   3.854 -0.1297 -0.0162 -1.3352
 1793TIP3   OH226793   3.363   3.122   4.576  0.3002 -0.0695  0.5141
 1793TIP3    H126794   3.278   3.143   4.614 -0.4404 -0.4974 -0.8817
 1793TIP3    H226795   3.366   3.026   4.574  0.9589 -0.0586  0.8753
 1794TIP3   OH226796   2.480   1.537  14.155 -0.4234 -0.0926 -0.4217
 1794TIP3    H126797   2.431   1.612  14.121 -1.9803  0.0024  1.9638
 1794TIP3    H226798   2.415   1.468  14.165  0.4846 -0.8822  0.0427
 1795TIP3   OH226799   0.822   5.474  11.370 -0.1339 -0.4475  0.3922
 1795TIP3    H126800   0.877   5.421  11.428  0.9038 -0.2102 -0.3444
 1795TIP3    H226801   0.862   5.561  11.371  0.0006 -0.4773 -0.7797
 1796TIP3   OH226802   4.162   3.544  11.922 -0.3808 -0.2610  0.0167
 1796TIP3    H126803   4.226   3.580  11.984 -0.0981  2.1107 -1.5531
 1796TIP3    H226804   4.216   3.501  11.855 -0.5654 -0.7420  0.1788
 1797TIP3   OH226805   5.876   6.600   0.363  0.0207 -0.4724 -0.0601
 1797TIP3    H126806   5.918   6.517   0.384  2.4523  0.7381  0.0131
 1797TIP3    H226807   5.926   6.634   0.288  0.6705  2.0857  1.4621
 1798TIP3   OH226808   2.598   2.321  13.496 -0.6241 -0.5433 -0.4489
 1798TIP3    H126809   2.657   2.288  13.429 -0.0826 -2.4202  0.9016
 1798TIP3    H226810   2.557   2.242  13.533 -2.0401  0.5546  0.3922
 1799TIP3   OH226811   4.722   0.003  11.129 -0.4683  0.2236 -0.0333
 1799TIP3    H126812   4.802  -0.014  11.179 -0.3208  0.3842 -0.2126
 1799TIP3    H226813   4.695   0.091  11.156 -0.1488  0.4876 -0.5499
 1800TIP3   OH226814   0.608   0.731  15.620 -0.0827  1.1510  0.0536
 1800TIP3    H126815   0.598   0.791  15.546  0.6794  2.0261  0.6438
 1800TIP3    H226816   0.702   0.720  15.630 -0.1944  0.7048  0.6249
 1801TIP3   OH226817   2.484   6.069   0.031  0.3034 -0.0499 -0.4146
 1801TIP3    H126818   2.573   6.077  -0.005 -0.2696  0.6283 -1.7206
 1801TIP3    H226819   2.432   6.038  -0.043 -0.4507 -0.9117  0.4872
 1802TIP3   OH226820   4.872   2.716   3.357  0.3651 -0.0750  0.2697
 1802TIP3    H126821   4.779   2.703   3.377  0.3135 -1.1624 -0.6221
 1802TIP3    H226822   4.876   2.800   3.311 -0.2558 -0.3105 -0.2180
 1803TIP3   OH226823   2.547   3.887   1.140 -0.3772 -0.0064 -0.0613
 1803TIP3    H126824   2.542   3.982   1.125 -0.6551 -0.0197 -0.0606
 1803TIP3    H226825   2.629   3.861   1.099  0.2000  0.3950  0.8134
 1804TIP3   OH226826   4.479   4.487  16.169 -0.6456  0.4430 -0.0670
 1804TIP3    H126827   4.498   4.393  16.168 -0.0372  0.5634 -1.7031
 1804TIP3    H226828   4.387   4.494  16.143 -0.9114  0.2661  0.8085
 1805TIP3   OH226829   0.469   3.171  14.479  0.2422 -0.1463 -0.2798
 1805TIP3    H126830   0.513   3.089  14.501 -0.7705 -0.4538  0.6396
 1805TIP3    H226831   0.477   3.225  14.558 -1.7067 -0.5095  0.1871
 1806TIP3   OH226832   0.996   0.814  13.581  0.5842  0.1599 -0.6176
 1806TIP3    H126833   0.927   0.871  13.546 -0.0944 -0.5456 -0.4460
 1806TIP3    H226834   0.964   0.789  13.667 -0.0204 -2.0139 -1.4499
 1807TIP3   OH226835   1.660   4.610   2.330  0.1370  0.3658  0.0936
 1807TIP3    H126836   1.575   4.597   2.371  0.5084  0.1064  0.8081
 1807TIP3    H226837   1.704   4.675   2.386 -0.0512  1.4055 -0.9609
 1808TIP3   OH226838   0.342   0.768   2.799  0.0945  0.8310 -0.9326
 1808TIP3    H126839   0.364   0.774   2.892  0.8657 -1.1724 -0.9628
 1808TIP3    H226840   0.414   0.718   2.760  0.4625  2.8009 -2.8662
 1809TIP3   OH226841   6.763   3.451   5.155  0.4141  0.2030  0.3712
 1809TIP3    H126842   6.703   3.378   5.138  0.5446  0.4545 -1.2377
 1809TIP3    H226843   6.777   3.491   5.070  1.6036  1.1484  0.9937
 1810TIP3   OH226844   2.409   2.763   3.356  0.0228 -0.0182 -0.0853
 1810TIP3    H126845   2.355   2.833   3.394 -0.2926 -1.5437  2.4456
 1810TIP3    H226846   2.348   2.712   3.303 -0.0883  0.6830 -0.6458
 1811TIP3   OH226847   0.956   4.524  16.479  0.1948  0.1276  0.2447
 1811TIP3    H126848   1.033   4.482  16.442  0.4914 -0.4362  1.4668
 1811TIP3    H226849   0.992   4.586  16.544 -0.4173 -1.7225  2.4295
 1812TIP3   OH226850   2.174   2.717   2.500 -0.5026 -0.1326 -0.2635
 1812TIP3    H126851   2.096   2.695   2.552  0.1030 -3.5371 -0.6609
 1812TIP3    H226852   2.228   2.769   2.559 -0.8417 -2.0289  1.8269
 1813TIP3   OH226853   0.386   2.200  14.867 -0.2313  0.7250  0.1230
 1813TIP3    H126854   0.338   2.204  14.785 -2.6010  0.6358  1.4586
 1813TIP3    H226855   0.362   2.280  14.913 -1.0483 -0.4642  1.8268
 1814TIP3   OH226856   0.686   2.555   1.803  0.3578  0.1391 -0.1758
 1814TIP3    H126857   0.630   2.558   1.726  0.3737  0.2924 -0.1824
 1814TIP3    H226858   0.641   2.497   1.864 -0.2375  0.9390  0.1558
 1815TIP3   OH226859   6.334   0.603   6.393 -0.3814 -0.1675 -0.2192
 1815TIP3    H126860   6.411   0.645   6.430 -1.6765  2.3138 -0.2578
 1815TIP3    H226861   6.356   0.586   6.302 -0.7262  2.8480 -0.9159
 1816TIP3   OH226862   4.670   1.579   2.484  0.7252  0.6904  0.3846
 1816TIP3    H126863   4.670   1.674   2.491 -1.9133  0.6508  1.3232
 1816TIP3    H226864   4.671   1.561   2.390 -1.9866  1.7001  0.1393
 1817TIP3   OH226865   3.214   1.376  14.700  0.0895  0.1128 -0.0811
 1817TIP3    H126866   3.149   1.336  14.758  0.4667  0.7211  0.7672
 1817TIP3    H226867   3.191   1.469  14.698 -0.5804 -0.0661 -1.7801
 1818TIP3   OH226868   0.034   3.669   4.271  0.3022 -0.2605 -0.1847
 1818TIP3    H126869   0.054   3.577   4.285  0.5165 -0.3073 -0.8025
 1818TIP3    H226870  -0.034   3.669   4.204  0.3690  0.0356 -0.2547
 1819TIP3   OH226871   5.848   1.158  10.208  0.0200  0.3204 -0.5111
 1819TIP3    H126872   5.911   1.230  10.204  0.7805 -0.2600  0.8409
 1819TIP3    H226873   5.900   1.081  10.228 -1.1775 -0.0811  1.1828
 1820TIP3   OH226874   5.609   4.909  12.349  0.1650 -0.0868  0.3690
 1820TIP3    H126875   5.625   4.817  12.327 -0.3257 -0.0208 -0.2670
 1820TIP3    H226876   5.696   4.945  12.367  0.2868 -0.8683  1.3830
 1821TIP3   OH226877   4.749   1.030   1.731  0.4130 -0.4328  0.4089
 1821TIP3    H126878   4.654   1.017   1.728  0.5254 -1.0763 -2.1456
 1821TIP3    H226879   4.784   0.941   1.722  1.2176 -0.0037 -0.8583
 1822TIP3   OH226880   6.679   2.579   4.235 -0.3120  0.1343 -0.1284
 1822TIP3    H126881   6.710   2.614   4.319 -0.7026 -0.7674  0.3994
 1822TIP3    H226882   6.632   2.499   4.258  0.6262 -0.7824 -1.3246
 1823TIP3   OH226883   3.943   4.308  16.238  0.8964 -0.1335  0.5157
 1823TIP3    H126884   3.887   4.294  16.314  2.1385 -0.1244  1.4423
 1823TIP3    H226885   3.910   4.389  16.199 -1.2543 -1.3983 -0.3366
 1824TIP3   OH226886   5.781   1.046   5.777  0.5164 -0.5182  0.5127
 1824TIP3    H126887   5.739   1.131   5.786 -1.3952 -1.4192  0.3038
 1824TIP3    H226888   5.875   1.065   5.778  0.1031  1.6446 -0.1864
 1825TIP3   OH226889   5.749   6.279   3.982 -0.1519  0.3983  0.0489
 1825TIP3    H126890   5.727   6.194   3.945 -1.0266  1.0209 -0.8908
 1825TIP3    H226891   5.681   6.297   4.046  1.4458 -0.7464  2.1545
 1826TIP3   OH226892   4.077   6.220   6.039 -0.0415 -0.2833 -0.0434
 1826TIP3    H126893   4.076   6.167   6.118 -1.8452 -0.8071 -0.3969
 1826TIP3    H226894   4.151   6.186   5.988  1.0870  0.0052  1.3370
 1827TIP3   OH226895   2.372   0.973   3.565 -0.0536 -0.0894 -0.0845
 1827TIP3    H126896   2.290   1.019   3.550 -0.4005 -1.0862 -1.3921
 1827TIP3    H226897   2.359   0.927   3.648 -0.2330  0.9829  0.4914
 1828TIP3   OH226898   1.285   3.860  12.427  0.2265 -0.6879  0.0157
 1828TIP3    H126899   1.292   3.777  12.382 -0.5447  0.2637 -1.9146
 1828TIP3    H226900   1.367   3.868  12.476  0.2284 -2.6308  0.3549
 1829TIP3   OH226901   6.268   0.863   5.232  0.2410  0.0843  0.0814
 1829TIP3    H126902   6.305   0.912   5.305 -0.3351  0.6038  0.0222
 1829TIP3    H226903   6.179   0.897   5.223  0.5291  0.4753 -1.2818
 1830TIP3   OH226904   4.503   4.118  14.690 -0.0808 -0.3595  0.1083
 1830TIP3    H126905   4.531   4.062  14.618 -1.8252 -0.8831 -0.1903
 1830TIP3    H226906   4.526   4.207  14.662  0.5103 -0.6937 -0.4702
 1831TIP3   OH226907   0.975   6.570   2.864 -0.1680  0.2432 -0.4855
 1831TIP3    H126908   0.942   6.480   2.857 -0.6776  0.4025 -0.1819
 1831TIP3    H226909   0.904   6.624   2.830  0.3428  0.4995 -1.1522
 1832TIP3   OH226910   5.717   6.755   0.550  0.2359  0.5466  0.4169
 1832TIP3    H126911   5.768   6.710   0.483 -0.5144  0.7710 -0.3115
 1832TIP3    H226912   5.736   6.848   0.538 -0.1885  0.6168  0.2680
 1833TIP3   OH226913   6.018   1.213   4.012  0.5595  0.2052  0.6359
 1833TIP3    H126914   5.939   1.263   3.992  1.0807  0.3999 -1.0062
 1833TIP3    H226915   5.998   1.124   3.983  1.9008  0.8262 -2.4366
 1834TIP3   OH226916   3.631   6.493  13.541  0.2339 -0.0428  0.2673
 1834TIP3    H126917   3.559   6.436  13.518 -0.4735  1.1887 -0.6350
 1834TIP3    H226918   3.678   6.508  13.459  1.7649 -1.1683  0.9167
 1835TIP3   OH226919   4.692   6.063   1.334 -0.3596 -0.5310 -0.1470
 1835TIP3    H126920   4.691   5.968   1.342  0.1261 -0.5958 -0.8562
 1835TIP3    H226921   4.753   6.092   1.402  0.4908 -0.8158 -0.7755
 1836TIP3   OH226922   1.981   1.212  12.037  0.2195  0.5291  0.0727
 1836TIP3    H126923   1.982   1.142  11.971 -0.6970  1.2033 -0.6705
 1836TIP3    H226924   2.072   1.222  12.063  0.5599  0.0826 -0.9154
 1837TIP3   OH226925   6.628   4.257   5.560 -0.0236  0.3466  0.1115
 1837TIP3    H126926   6.587   4.325   5.614 -0.6847  1.4138 -1.6988
 1837TIP3    H226927   6.665   4.305   5.486 -0.6476 -1.2934 -1.2779
 1838TIP3   OH226928   3.853   3.749  14.771  0.0388 -0.1202  0.1159
 1838TIP3    H126929   3.923   3.716  14.714 -2.2450 -0.1505 -2.7744
 1838TIP3    H226930   3.844   3.841  14.746  0.8100  0.6056  2.3763
 1839TIP3   OH226931   5.611   1.811  11.787  0.4036  0.1143  0.2805
 1839TIP3    H126932   5.620   1.765  11.871  0.0481 -0.6004 -0.0695
 1839TIP3    H226933   5.655   1.895  11.801  0.7622 -0.1939  1.0361
 1840TIP3   OH226934   2.179   5.090  16.005  0.3650 -0.0537  0.0316
 1840TIP3    H126935   2.251   5.152  16.016 -0.2945  0.7609 -0.2088
 1840TIP3    H226936   2.150   5.071  16.095 -1.0072  1.8671  0.0289
 1841TIP3   OH226937   1.970   0.552   2.659 -0.1359 -0.4314  0.0032
 1841TIP3    H126938   2.050   0.572   2.708 -0.7622 -1.0115  1.2814
 1841TIP3    H226939   2.000   0.532   2.571  1.0999 -0.2924  0.3893
 1842TIP3   OH226940   3.540   4.398  13.924  0.1690  0.4795 -0.2063
 1842TIP3    H126941   3.567   4.375  13.835 -0.1736 -0.5300 -0.0615
 1842TIP3    H226942   3.487   4.323  13.952 -2.3224  2.1715 -0.2939
 1843TIP3   OH226943   1.439   2.633  17.214 -0.2355 -0.2433  0.1897
 1843TIP3    H126944   1.478   2.650  17.300 -0.7213  1.0333  0.1659
 1843TIP3    H226945   1.508   2.655  17.151 -0.4148  0.3562  0.2020
 1844TIP3   OH226946   0.188   6.118   1.929  0.6085  0.2822 -0.5602
 1844TIP3    H126947   0.254   6.078   1.872  0.0367 -0.4909 -0.6862
 1844TIP3    H226948   0.140   6.178   1.871  0.4913  0.0274 -0.7288
 1845TIP3   OH226949   4.766   4.239   4.662  0.0179 -0.2185  0.2735
 1845TIP3    H126950   4.847   4.187   4.663 -1.8778 -3.2240  1.2526
 1845TIP3    H226951   4.782   4.308   4.726  2.6146  0.5414 -1.1001
 1846TIP3   OH226952   4.226   1.830  15.264 -0.0903  0.0842  0.9762
 1846TIP3    H126953   4.288   1.776  15.313 -1.0834 -1.3010  0.7675
 1846TIP3    H226954   4.140   1.804  15.298 -0.6732  0.4661 -0.1726
 1847TIP3   OH226955   4.623   4.640   6.183  0.1599  0.5703  0.3457
 1847TIP3    H126956   4.623   4.727   6.223 -0.8824  0.9966 -0.5414
 1847TIP3    H226957   4.676   4.650   6.104  0.1563  0.3668  0.3171
 1848TIP3   OH226958   6.694   3.458   3.173  0.2398 -0.3315  0.1451
 1848TIP3    H126959   6.656   3.445   3.086  1.4392  3.3669 -1.0376
 1848TIP3    H226960   6.756   3.386   3.183  0.4610 -0.5404 -2.3028
 1849TIP3   OH226961   0.628   6.547   5.568  0.1143  0.1205 -0.7159
 1849TIP3    H126962   0.683   6.603   5.623  2.2580 -0.8369 -1.8244
 1849TIP3    H226963   0.565   6.607   5.527  0.6479  1.3094  0.1857
 1850TIP3   OH226964   1.270   4.654  16.571  0.1631  0.7972  0.1700
 1850TIP3    H126965   1.353   4.627  16.610 -0.8236  0.5311  2.1436
 1850TIP3    H226966   1.204   4.635  16.638 -1.1581  3.6870 -0.2209
 1851TIP3   OH226967   6.785   4.600   2.290 -0.4786 -0.2088  0.4240
 1851TIP3    H126968   6.767   4.578   2.199 -1.7941 -2.0493  1.0892
 1851TIP3    H226969   6.876   4.630   2.290 -0.7218  0.5923 -1.6073
 1852TIP3   OH226970   3.879   0.719  16.622  0.3113  0.2793 -0.5503
 1852TIP3    H126971   3.842   0.716  16.711 -1.7530 -0.3539 -1.3969
 1852TIP3    H226972   3.904   0.629  16.604  1.0907  0.4789 -0.4675
 1853TIP3   OH226973   6.014   5.938   0.636  0.1057  0.7468 -0.0369
 1853TIP3    H126974   5.962   6.006   0.680  1.0526  1.8617 -0.6038
 1853TIP3    H226975   5.969   5.924   0.553 -1.3911 -0.9888  1.0421
 1854TIP3   OH226976   6.616   4.700  12.797  0.7810 -0.5189  0.1658
 1854TIP3    H126977   6.630   4.614  12.838  0.6069  0.5077  2.4526
 1854TIP3    H226978   6.693   4.712  12.741 -0.5715 -3.3983 -2.4676
 1855TIP3   OH226979   0.790   6.496   3.089  0.1512  0.0114  0.7265
 1855TIP3    H126980   0.757   6.578   3.052  2.2911  0.4505 -0.3064
 1855TIP3    H226981   0.718   6.434   3.079 -1.4872  1.7405  1.5036
 1856TIP3   OH226982   0.816   5.169  15.546 -0.8535 -0.2562  0.0008
 1856TIP3    H126983   0.809   5.262  15.524  0.5727 -0.1226  0.0653
 1856TIP3    H226984   0.802   5.166  15.641 -3.1048 -0.3819 -0.3057
 1857TIP3   OH226985   1.864   5.803  12.723  0.0648 -0.2725  0.4330
 1857TIP3    H126986   1.778   5.791  12.683  0.4805  1.1373 -0.9310
 1857TIP3    H226987   1.909   5.720  12.708 -0.5621 -0.5225 -0.0961
 1858TIP3   OH226988   2.328   6.178  14.893  0.1563  0.1103  0.2509
 1858TIP3    H126989   2.395   6.241  14.868 -0.9727  0.6195 -1.6115
 1858TIP3    H226990   2.375   6.096  14.904  1.3121  0.7956  0.4999
 1859TIP3   OH226991   3.335   5.300   3.827  0.3294 -0.7529 -0.1873
 1859TIP3    H126992   3.316   5.318   3.735 -2.0363  0.7601  0.5875
 1859TIP3    H226993   3.335   5.204   3.832  2.0938 -0.8965 -2.0629
 1860TIP3   OH226994   2.611   0.763  15.363  0.1075  0.2367 -0.0453
 1860TIP3    H126995   2.676   0.705  15.403 -1.3951 -0.5544  1.3165
 1860TIP3    H226996   2.658   0.845  15.347  1.6886 -0.6363 -0.0121
 1861TIP3   OH226997   5.679   0.511   0.153 -0.0638  0.0931  0.6403
 1861TIP3    H126998   5.605   0.451   0.166  0.2153 -0.2820  0.5134
 1861TIP3    H226999   5.661   0.584   0.213  1.0342 -1.4644  2.9635
 1862TIP3   OH227000   3.496   4.131  11.553 -0.0157  0.0302 -0.4598
 1862TIP3    H127001   3.585   4.142  11.519  0.1463 -0.4985 -0.2026
 1862TIP3    H227002   3.475   4.217  11.590 -0.3998  0.7883 -2.3694
 1863TIP3   OH227003   0.947   6.254   5.729 -0.2278 -0.2621 -0.3481
 1863TIP3    H127004   1.017   6.240   5.792  0.6369 -0.7663 -1.4018
 1863TIP3    H227005   0.902   6.169   5.723  0.1781 -0.4305 -0.9899
 1864TIP3   OH227006   5.403   0.942   1.427 -0.0554 -0.1443  0.3268
 1864TIP3    H127007   5.328   0.940   1.487 -0.7725 -0.7584 -0.5751
 1864TIP3    H227008   5.381   1.011   1.365  0.4801  0.1885  0.5094
 1865TIP3   OH227009   4.230   6.393  14.013  0.4318  0.0943  0.5387
 1865TIP3    H127010   4.165   6.363  14.077  0.8833 -2.6981 -0.2188
 1865TIP3    H227011   4.178   6.433  13.943 -0.3772 -0.7591  0.6464
 1866TIP3   OH227012   3.461   5.733   6.424  0.5144  0.3199 -0.0046
 1866TIP3    H127013   3.384   5.684   6.395  0.3628  0.6836 -0.2117
 1866TIP3    H227014   3.495   5.681   6.497  1.4238 -1.0806 -1.3805
 1867TIP3   OH227015   0.488   2.060   2.145  0.7036 -0.2463  0.8993
 1867TIP3    H127016   0.456   1.977   2.109  2.3413  0.0349 -1.3584
 1867TIP3    H227017   0.550   2.035   2.213 -0.0291 -0.8414  1.3568
 1868TIP3   OH227018   6.433   2.378   3.592 -0.1368  0.2664  0.3640
 1868TIP3    H127019   6.453   2.395   3.684  0.5032 -2.4136  0.7370
 1868TIP3    H227020   6.339   2.358   3.591  0.1441 -1.0872  0.6448
 1869TIP3   OH227021   3.265   2.885   3.089 -0.2123  0.4584 -0.0762
 1869TIP3    H127022   3.285   2.933   3.009 -2.5035  2.4522  0.4933
 1869TIP3    H227023   3.182   2.840   3.070 -1.1626  1.5454  1.3820
 1870TIP3   OH227024   0.984   4.303   4.900 -0.5417 -0.3552  0.6265
 1870TIP3    H127025   1.000   4.277   4.809  2.0286  0.7418  0.7173
 1870TIP3    H227026   1.014   4.228   4.952 -1.5585 -0.7821  0.6278
 1871TIP3   OH227027   4.092   1.660  15.828  0.0488  0.1104  0.3641
 1871TIP3    H127028   4.107   1.730  15.891  1.2259 -0.5490  0.8305
 1871TIP3    H227029   4.103   1.579  15.878  1.6385 -0.4276 -0.8071
 1872TIP3   OH227030   0.578   5.679  11.322 -0.7164 -0.2465 -0.2229
 1872TIP3    H127031   0.498   5.668  11.269  1.3316 -0.2115 -3.4406
 1872TIP3    H227032   0.585   5.597  11.371 -3.5483  0.3758  1.3545
 1873TIP3   OH227033   4.507   1.583   0.220 -0.0821  0.2634 -0.2106
 1873TIP3    H127034   4.553   1.616   0.298  0.2209  0.6013 -0.5287
 1873TIP3    H227035   4.416   1.608   0.234 -0.2221 -0.6284  0.5419
 1874TIP3   OH227036   4.284   1.083   2.133 -0.1330  0.1637  0.1157
 1874TIP3    H127037   4.344   1.018   2.171 -0.6597 -0.7549 -0.5971
 1874TIP3    H227038   4.320   1.168   2.161  0.3494 -0.4336  1.3811
 1875TIP3   OH227039   1.359   5.843   2.923 -0.4047 -0.7560 -0.4215
 1875TIP3    H127040   1.441   5.809   2.887 -0.8650  0.2961 -2.5083
 1875TIP3    H227041   1.362   5.820   3.016  0.9508 -3.2497 -1.0502
 1876TIP3   OH227042   4.099   3.958  10.846 -0.3574 -0.5294  0.9031
 1876TIP3    H127043   4.161   3.886  10.855  0.0161 -0.4422 -0.8532
 1876TIP3    H227044   4.013   3.916  10.842 -0.2926 -0.7487  1.6517
 1877TIP3   OH227045   3.093   1.202  12.259  0.3170 -0.3420 -0.1552
 1877TIP3    H127046   3.006   1.235  12.235  1.5758  2.8515 -0.6026
 1877TIP3    H227047   3.139   1.192  12.176  1.2186  0.5410  0.2209
 1878TIP3   OH227048   5.409   6.159  15.988  0.6852 -0.0504 -0.2670
 1878TIP3    H127049   5.319   6.140  15.964  0.3642  1.1042 -0.0493
 1878TIP3    H227050   5.456   6.162  15.905  0.5707 -0.9116 -0.3612
 1879TIP3   OH227051   6.083   0.759  16.007 -0.2926 -0.8884  0.4201
 1879TIP3    H127052   6.104   0.834  16.062  1.2564  0.7900 -2.3226
 1879TIP3    H227053   6.165   0.711  15.997 -0.9276 -2.1165  0.8990
 1880TIP3   OH227054   3.841   6.427  13.024 -0.0123  0.0831  0.0144
 1880TIP3    H127055   3.753   6.427  13.061  0.0040 -0.1515  0.0542
 1880TIP3    H227056   3.881   6.346  13.056  0.0104 -0.1107 -0.4882
 1881TIP3   OH227057   6.273   0.290  13.940  0.0285  0.4003  0.3432
 1881TIP3    H127058   6.341   0.347  13.907 -3.1734  3.5819 -1.0699
 1881TIP3    H227059   6.249   0.234  13.866  0.5647 -0.2234  0.6327
 1882TIP3   OH227060   3.624   1.562  14.801 -0.0684 -0.2077  0.1839
 1882TIP3    H127061   3.679   1.630  14.761 -1.0308 -0.1845 -1.1009
 1882TIP3    H227062   3.677   1.483  14.796  0.2829  0.0405 -0.0584
 1883TIP3   OH227063   5.176   2.049   1.361 -0.3718  0.1084  0.6361
 1883TIP3    H127064   5.262   2.026   1.327 -1.4948  0.4966 -2.5640
 1883TIP3    H227065   5.189   2.135   1.401  0.4327  0.8216 -1.1056
 1884TIP3   OH227066   6.227   1.354  15.379 -0.1798  0.2668  0.2294
 1884TIP3    H127067   6.252   1.263  15.390 -0.6472  0.2004  0.7983
 1884TIP3    H227068   6.132   1.354  15.387 -0.1070  0.9347  1.2556
 1885TIP3   OH227069   6.246   0.389  10.774 -0.0974  0.0517 -0.4415
 1885TIP3    H127070   6.331   0.356  10.747 -0.9946 -1.2418 -1.8034
 1885TIP3    H227071   6.207   0.424  10.694 -0.6542  1.0573  0.2637
 1886TIP3   OH227072   0.249   4.065  11.534  0.0332 -0.3115 -0.2019
 1886TIP3    H127073   0.189   4.048  11.462 -0.0122 -1.3369  0.0728
 1886TIP3    H227074   0.194   4.099  11.604 -0.2904 -1.5804  0.1713
 1887TIP3   OH227075   2.933   5.846  15.106  0.3195 -0.1577 -0.3078
 1887TIP3    H127076   2.923   5.875  15.196  0.9875 -2.5093  0.5593
 1887TIP3    H227077   2.847   5.813  15.081 -0.2835  1.8834 -1.1002
 1888TIP3   OH227078   5.866   1.416  11.014 -0.2818  0.6230  0.2611
 1888TIP3    H127079   5.913   1.333  11.022 -0.1769  0.6368 -0.1840
 1888TIP3    H227080   5.877   1.441  10.922 -0.6046  0.9559  0.3099
 1889TIP3   OH227081   4.369   5.427   4.007 -0.4771  0.0892 -0.3211
 1889TIP3    H127082   4.423   5.356   4.042 -3.0606 -2.1307 -0.6410
 1889TIP3    H227083   4.358   5.488   4.080  1.3226 -0.0878  0.1221
 1890TIP3   OH227084   1.375   5.884   1.716  0.1293 -0.4049 -0.0265
 1890TIP3    H127085   1.345   5.828   1.787  0.4374 -2.1630 -1.2411
 1890TIP3    H227086   1.301   5.889   1.656  0.9209 -1.6097 -1.1465
 1891TIP3   OH227087   0.417   2.725   4.173 -0.4582  0.7378 -0.1711
 1891TIP3    H127088   0.436   2.704   4.082 -0.4306  1.4012 -0.3269
 1891TIP3    H227089   0.503   2.731   4.215 -0.4960 -0.1444  0.0343
 1892TIP3   OH227090   1.189   5.554  11.850  0.1563 -0.2738 -0.2874
 1892TIP3    H127091   1.259   5.613  11.878  0.1255  0.7195 -2.1982
 1892TIP3    H227092   1.235   5.480  11.810  0.1598 -0.7482  0.5898
 1893TIP3   OH227093   3.972   5.911   5.831 -0.5570 -0.4258  0.1475
 1893TIP3    H127094   3.941   5.953   5.912 -0.6216  0.8787 -0.5364
 1893TIP3    H227095   3.904   5.848   5.809 -1.5808  0.7192 -0.0320
 1894TIP3   OH227096   2.821   4.075  11.791 -0.0601 -0.2455  0.3352
 1894TIP3    H127097   2.848   4.166  11.779 -2.2769  0.3157 -0.6217
 1894TIP3    H227098   2.900   4.024  11.775  0.7666  1.4159 -1.0095
 1895TIP3   OH227099   2.534   6.283  13.684  0.3798  0.5816 -0.1996
 1895TIP3    H127100   2.488   6.206  13.716 -0.9557  1.2820 -0.3881
 1895TIP3    H227101   2.467   6.333  13.638  1.6014  1.0326 -1.5278
 1896TIP3   OH227102   3.308   2.368   2.133 -0.0403 -0.6718  0.2919
 1896TIP3    H127103   3.349   2.364   2.219  1.4706 -3.9728 -0.5042
 1896TIP3    H227104   3.238   2.302   2.137 -0.0948 -0.6971 -0.9400
 1897TIP3   OH227105   1.086   2.714   5.422 -0.5619 -0.5917 -0.5048
 1897TIP3    H127106   1.105   2.766   5.344  0.0858  0.5420  0.3877
 1897TIP3    H227107   1.140   2.636   5.414  0.8666  0.3680 -0.3174
 1898TIP3   OH227108   3.914   3.597   6.303 -0.4183  0.4955  0.5085
 1898TIP3    H127109   3.883   3.596   6.212 -0.9187  2.0234  0.6521
 1898TIP3    H227110   3.998   3.643   6.298 -0.3930  0.4764  0.7966
 1899TIP3   OH227111   6.722   5.244  15.942 -0.0249 -0.7362 -0.6653
 1899TIP3    H127112   6.779   5.168  15.948  0.7259  0.0136  2.3322
 1899TIP3    H227113   6.641   5.218  15.984 -0.4299 -0.4426 -1.2491
 1900TIP3   OH227114   3.136   6.011   4.342 -0.5048 -0.3873 -0.2349
 1900TIP3    H127115   3.099   5.988   4.256 -1.0030 -2.9216  0.6051
 1900TIP3    H227116   3.074   5.974   4.405  1.5715 -1.4760  1.2175
 1901TIP3   OH227117   2.178   5.744   6.062 -0.8197 -0.1059  0.0775
 1901TIP3    H127118   2.273   5.749   6.051 -0.6003 -0.2914  1.7463
 1901TIP3    H227119   2.155   5.825   6.107 -1.2892 -0.5523  0.6556
 1902TIP3   OH227120   6.249   6.399  16.724 -0.1131  0.5067  0.0605
 1902TIP3    H127121   6.331   6.373  16.681 -0.0274  0.6549  0.1309
 1902TIP3    H227122   6.240   6.492  16.702  0.5072  0.8738  1.2835
 1903TIP3   OH227123   4.873   3.319  11.902 -0.5442 -0.1522 -0.2326
 1903TIP3    H127124   4.908   3.378  11.969 -1.0175  1.7831 -1.6141
 1903TIP3    H227125   4.868   3.234  11.944  0.9919  0.6219  1.5700
 1904TIP3   OH227126   2.900   0.723  10.951  0.1512  0.3320  0.2475
 1904TIP3    H127127   2.858   0.769  10.878 -0.7511  0.2867  0.7343
 1904TIP3    H227128   2.828   0.700  11.009  0.9568  1.0960  1.5633
 1905TIP3   OH227129   5.251   2.135   0.053  0.5561  0.0440  0.1738
 1905TIP3    H127130   5.338   2.098   0.069  0.9095  1.1631  0.9204
 1905TIP3    H227131   5.241   2.203   0.121 -1.0199 -0.2852  0.2897
 1906TIP3   OH227132   1.349   4.429   0.791  0.4518  0.1426  0.0044
 1906TIP3    H127133   1.257   4.445   0.813 -0.5360 -1.3915 -2.7523
 1906TIP3    H227134   1.364   4.337   0.813  1.1488  0.2089 -0.1657
 1907TIP3   OH227135   0.591   4.079   2.506 -0.0668  0.0462  0.0028
 1907TIP3    H127136   0.528   4.010   2.526 -0.0372  0.3505  1.1509
 1907TIP3    H227137   0.538   4.156   2.487 -0.0252  0.7020  2.4485
 1908TIP3   OH227138   4.434   2.417  16.251  0.1863  0.2478 -0.1537
 1908TIP3    H127139   4.357   2.388  16.301  0.1328  1.2557  0.3522
 1908TIP3    H227140   4.500   2.436  16.317 -0.0495  2.0774 -0.4272
 1909TIP3   OH227141   1.128   3.442  12.360  0.5267 -0.2465  0.4747
 1909TIP3    H127142   1.165   3.355  12.378 -0.3816 -0.4628  1.3439
 1909TIP3    H227143   1.204   3.498  12.349  1.1269 -0.9147  1.1289
 1910TIP3   OH227144   1.663   1.599   0.707 -0.5107 -0.2096 -0.0009
 1910TIP3    H127145   1.709   1.678   0.734 -0.6121 -0.9745  2.5101
 1910TIP3    H227146   1.610   1.574   0.782 -1.1385 -2.1961 -1.0439
 1911TIP3   OH227147   4.521   1.885   2.732  0.1025 -0.0046 -0.1829
 1911TIP3    H127148   4.532   1.916   2.642  1.0500 -1.4060 -0.5629
 1911TIP3    H227149   4.439   1.926   2.761 -1.1616 -0.9092 -2.2756
 1912TIP3   OH227150   5.353   2.891  12.932  0.7288  0.2207 -0.7852
 1912TIP3    H127151   5.360   2.987  12.923  0.9954  0.1568 -1.2927
 1912TIP3    H227152   5.389   2.857  12.850  2.0885 -0.3658  0.0362
 1913TIP3   OH227153   0.848   0.324  15.637  0.2807 -0.0487 -0.6505
 1913TIP3    H127154   0.764   0.329  15.592  0.3676  1.7614 -0.6299
 1913TIP3    H227155   0.909   0.372  15.580  1.1523 -0.7489 -0.3252
 1914TIP3   OH227156   1.654   1.115   5.640  0.2260  0.3553  0.6646
 1914TIP3    H127157   1.560   1.134   5.634  0.0980 -1.1217 -2.7775
 1914TIP3    H227158   1.660   1.042   5.702 -1.1662 -1.0804 -0.8526
 1915TIP3   OH227159   5.543   5.253  16.552 -0.9134  0.5646  0.1177
 1915TIP3    H127160   5.520   5.346  16.559 -0.7779  0.5225  1.2053
 1915TIP3    H227161   5.569   5.228  16.640  0.9123 -0.0275 -0.5635
 1916TIP3   OH227162   6.565   3.586  14.801  0.3458 -0.1008 -0.1319
 1916TIP3    H127163   6.614   3.651  14.852  1.0564 -1.2334  0.6666
 1916TIP3    H227164   6.510   3.637  14.743  0.7541  1.2192  0.6243
 1917TIP3   OH227165   3.001   4.772  10.705  0.4952  0.3448  0.0436
 1917TIP3    H127166   3.094   4.764  10.688  0.2856  0.9940 -1.4541
 1917TIP3    H227167   2.977   4.859  10.672  0.1846  2.0207  4.2651
 1918TIP3   OH227168   3.989   0.166  17.106 -0.3644  0.0088  0.2997
 1918TIP3    H127169   4.047   0.135  17.037 -1.4254 -1.1120 -0.1145
 1918TIP3    H227170   3.959   0.252  17.077 -0.0232 -0.0205 -0.1437
 1919TIP3   OH227171   0.341   3.177   0.033  0.4062 -0.0472 -0.1182
 1919TIP3    H127172   0.278   3.249   0.023 -0.2198 -0.2491  2.3106
 1919TIP3    H227173   0.375   3.164  -0.056 -0.6770  2.1445 -0.9058
 1920TIP3   OH227174   3.052   4.084  16.915 -0.8344  0.6720 -0.2750
 1920TIP3    H127175   3.067   4.084  17.010 -2.0020  1.4480 -0.0842
 1920TIP3    H227176   2.965   4.047  16.905  0.1848 -1.5806 -1.2195
 1921TIP3   OH227177   2.379   3.732   2.090  0.2596 -0.7115  0.0633
 1921TIP3    H127178   2.435   3.676   2.145  0.7609 -1.2233 -0.9564
 1921TIP3    H227179   2.391   3.698   2.002  0.2310  0.7436 -0.5113
 1922TIP3   OH227180   5.554   6.444  12.012 -0.4693  0.6614  0.4146
 1922TIP3    H127181   5.465   6.411  11.999 -0.2941  0.2667  0.2360
 1922TIP3    H227182   5.546   6.503  12.087 -1.5103  3.0850 -1.5392
 1923TIP3   OH227183   4.265   0.177   1.422 -0.5926  0.1590 -0.4335
 1923TIP3    H127184   4.261   0.126   1.504 -0.8787  2.2237  0.8753
 1923TIP3    H227185   4.261   0.111   1.353 -4.3191 -1.4571  1.1685
 1924TIP3   OH227186   5.086   4.764   5.823  0.5852 -0.1931 -0.6951
 1924TIP3    H127187   5.039   4.847   5.825  1.8220  0.5881 -2.8640
 1924TIP3    H227188   5.052   4.718   5.746  0.4394 -1.3908  0.0683
 1925TIP3   OH227189   5.579   3.864  15.044  0.1186  1.5845 -0.6336
 1925TIP3    H127190   5.616   3.895  14.961  0.8761 -2.1522 -1.8063
 1925TIP3    H227191   5.520   3.793  15.018 -0.2479  0.8890  1.9921
 1926TIP3   OH227192   6.347   2.688   0.517  0.1948 -0.0130  0.3089
 1926TIP3    H127193   6.337   2.774   0.475 -0.8029 -0.9508 -1.4458
 1926TIP3    H227194   6.434   2.659   0.489 -0.7747 -0.9780 -1.8695
 1927TIP3   OH227195   1.606   2.752  14.207  0.0126  0.2519 -0.7090
 1927TIP3    H127196   1.633   2.694  14.136 -0.0824  0.7602 -1.1601
 1927TIP3    H227197   1.589   2.836  14.165  0.4437  0.6953 -0.0153
 1928TIP3   OH227198   6.617   3.873   1.058 -0.1083 -0.7250  0.1716
 1928TIP3    H127199   6.605   3.944   0.995  0.2492 -1.1445 -0.3711
 1928TIP3    H227200   6.532   3.865   1.102 -0.5107 -0.7789 -0.6184
 1929TIP3   OH227201   1.864   2.041  17.204 -0.2740  0.6516  0.0621
 1929TIP3    H127202   1.948   2.075  17.174  1.3393 -1.1313  2.3365
 1929TIP3    H227203   1.860   1.952  17.167 -0.1422 -0.0414  1.6462
 1930TIP3   OH227204   6.136   2.242  15.303 -0.1328  0.7303 -0.4143
 1930TIP3    H127205   6.135   2.312  15.236 -3.1472 -0.1787 -1.4067
 1930TIP3    H227206   6.142   2.161  15.252 -0.1574  0.1342  0.5371
 1931TIP3   OH227207   3.797   2.032   4.347 -0.9261  0.2945 -0.2141
 1931TIP3    H127208   3.776   2.108   4.402  0.1991 -0.3446  1.1310
 1931TIP3    H227209   3.844   2.069   4.272 -2.8195  1.2204 -0.9910
 1932TIP3   OH227210   3.203   5.863   3.058  0.5880  0.2001  0.7876
 1932TIP3    H127211   3.215   5.872   3.153  1.1351  1.5622  0.6004
 1932TIP3    H227212   3.291   5.863   3.023  0.4154 -1.1944  0.3403
 1933TIP3   OH227213   2.175   4.650   0.789  0.0621  0.1098 -0.0195
 1933TIP3    H127214   2.208   4.689   0.708  2.0295  0.6594  1.0092
 1933TIP3    H227215   2.252   4.641   0.844 -0.7249 -3.1900  0.6388
 1934TIP3   OH227216   3.678   5.203   2.937  0.5784 -0.2286 -0.7752
 1934TIP3    H127217   3.661   5.183   2.845 -1.6027  2.4993 -1.0291
 1934TIP3    H227218   3.670   5.298   2.943 -1.8414 -0.5699  2.6730
 1935TIP3   OH227219   6.738   4.698  14.703 -0.5166 -0.4559 -0.3835
 1935TIP3    H127220   6.724   4.657  14.789  0.6055 -1.2345 -0.5601
 1935TIP3    H227221   6.758   4.624  14.645 -1.7046  0.0129 -1.4274
 1936TIP3   OH227222   4.305   3.719  15.754  0.0664 -0.1185  0.0557
 1936TIP3    H127223   4.232   3.781  15.745 -1.4302 -1.7721  0.4856
 1936TIP3    H227224   4.289   3.676  15.838 -0.7518 -3.3545 -1.6918
 1937TIP3   OH227225   0.882   2.788   2.212  0.1500  0.7340 -0.1203
 1937TIP3    H127226   0.899   2.694   2.205 -1.4376  0.3319  1.1243
 1937TIP3    H227227   0.843   2.811   2.127  0.4778  0.2655 -0.4016
 1938TIP3   OH227228   4.188   3.963   2.505  0.2778  0.0427 -0.2627
 1938TIP3    H127229   4.102   3.921   2.496  0.4215 -0.0373 -1.4417
 1938TIP3    H227230   4.199   3.976   2.599 -0.3004 -1.4494  0.0240
 1939TIP3   OH227231   0.915   0.754  15.718 -0.0073  0.0034  0.7091
 1939TIP3    H127232   0.969   0.731  15.642 -0.0133  2.2569 -0.0252
 1939TIP3    H227233   0.962   0.716  15.792  2.0021  0.8992 -0.0419
 1940TIP3   OH227234   5.660   5.550   1.825  0.4999 -0.4249 -0.3917
 1940TIP3    H127235   5.749   5.516   1.837  0.3357 -1.3206 -1.5928
 1940TIP3    H227236   5.628   5.505   1.747 -0.9508  0.0160 -0.0624
 1941TIP3   OH227237   0.416   4.223  12.508  0.0092 -1.0322  0.2517
 1941TIP3    H127238   0.371   4.235  12.425 -0.4845  0.5098  0.7212
 1941TIP3    H227239   0.408   4.130  12.527  1.6605 -1.7288 -2.2698
 1942TIP3   OH227240   0.781   1.957  11.726 -0.2186  0.0044 -0.3896
 1942TIP3    H127241   0.777   1.862  11.719  1.7741 -0.1503  0.0882
 1942TIP3    H227242   0.746   1.977  11.813 -2.3128 -0.1201 -1.1788
 1943TIP3   OH227243   4.283   1.219  16.653 -0.3837 -0.1532  0.2236
 1943TIP3    H127244   4.347   1.149  16.640  1.5574  1.8344 -1.3413
 1943TIP3    H227245   4.199   1.179  16.633  0.6687 -2.1228 -0.3315
 1944TIP3   OH227246   2.844   6.197   3.138 -0.2806 -0.0511 -0.5260
 1944TIP3    H127247   2.832   6.113   3.182  1.6708 -0.0317  0.0956
 1944TIP3    H227248   2.903   6.246   3.196 -1.7886  1.9644 -0.6065
 1945TIP3   OH227249   4.555   4.895  12.123 -0.1837 -0.7012  0.1903
 1945TIP3    H127250   4.610   4.901  12.045 -3.0346 -2.0036 -2.0459
 1945TIP3    H227251   4.584   4.815  12.167  1.8392  0.3559  0.8240
 1946TIP3   OH227252   5.536   2.081  15.135 -0.0916 -0.3168 -0.3143
 1946TIP3    H127253   5.501   2.064  15.222 -0.3242 -0.7571 -0.4954
 1946TIP3    H227254   5.520   2.175  15.121 -1.7975 -0.6559 -0.6751
 1947TIP3   OH227255   2.784   6.765   6.959  0.3906  0.7006  0.4485
 1947TIP3    H127256   2.700   6.737   6.923  0.5090 -1.4512  1.7647
 1947TIP3    H227257   2.807   6.843   6.908 -1.1269 -0.2035 -1.7119
 1948TIP3   OH227258   1.973   5.443   5.671  0.3470  0.1155  0.1230
 1948TIP3    H127259   2.045   5.380   5.675 -0.5316 -0.8800  0.2279
 1948TIP3    H227260   2.001   5.514   5.729  0.8108 -0.7112  0.9226
 1949TIP3   OH227261   1.084   2.173   3.680 -0.5060 -0.4758  0.3067
 1949TIP3    H127262   1.033   2.219   3.746 -0.6310  0.2045 -0.2575
 1949TIP3    H227263   1.030   2.098   3.655 -0.8804 -0.1882  0.2681
 1950TIP3   OH227264   3.907   4.039  16.592  0.4587  0.1405  0.2119
 1950TIP3    H127265   3.937   4.078  16.675  2.5308  0.7592 -0.7881
 1950TIP3    H227266   3.864   4.112  16.547 -0.0014  0.0034  0.4353
 1951TIP3   OH227267   3.053   4.980   1.817 -0.0332 -1.0917  0.3892
 1951TIP3    H127268   3.081   5.071   1.819  0.6119 -1.2978  0.7510
 1951TIP3    H227269   3.133   4.930   1.803 -0.5727 -1.5272 -1.2613
 1952TIP3   OH227270   2.808   6.104  14.005 -0.4167 -0.0172  0.1349
 1952TIP3    H127271   2.807   6.150  13.921  0.4586  0.5941  0.4493
 1952TIP3    H227272   2.716   6.090  14.026 -0.7147  1.6308  0.0418
 1953TIP3   OH227273   5.911   6.504   4.523 -0.6882  0.0676  0.2745
 1953TIP3    H127274   5.977   6.444   4.558  0.1676  0.1224 -1.2065
 1953TIP3    H227275   5.911   6.578   4.583  0.3721 -0.0764  0.4575
 1954TIP3   OH227276   3.168   6.302   2.688 -0.1222 -0.9864  0.4487
 1954TIP3    H127277   3.186   6.228   2.745  0.3889 -1.6152 -0.5122
 1954TIP3    H227278   3.073   6.314   2.693 -0.0548 -0.8437  1.6376
 1955TIP3   OH227279   2.911   4.284   2.980 -0.2577 -0.2228 -0.0387
 1955TIP3    H127280   2.958   4.354   3.025  1.7801 -1.1089 -0.7518
 1955TIP3    H227281   2.915   4.210   3.040 -0.9359 -0.2506 -0.0205
 1956TIP3   OH227282   6.382   0.355   1.446 -0.2655  0.4617 -0.0817
 1956TIP3    H127283   6.450   0.411   1.483 -0.2897  0.6366 -0.3048
 1956TIP3    H227284   6.365   0.391   1.359  1.4966 -1.4297 -1.2244
 1957TIP3   OH227285   2.920   3.680  16.786  0.0817 -0.1291 -0.2006
 1957TIP3    H127286   2.853   3.748  16.774 -0.0172 -0.4812 -1.8472
 1957TIP3    H227287   2.874   3.598  16.764 -0.0598 -0.8546  2.6755
 1958TIP3   OH227288   5.597   6.067  12.710 -0.1658 -0.7860 -0.2199
 1958TIP3    H127289   5.670   6.042  12.653  1.1435 -1.9366  1.9097
 1958TIP3    H227290   5.613   6.159  12.730  1.8156 -1.5158  1.7670
 1959TIP3   OH227291   4.714   5.201  13.343  0.2689  0.6059 -0.1408
 1959TIP3    H127292   4.694   5.107  13.348  1.0171  0.4999  1.0925
 1959TIP3    H227293   4.682   5.227  13.257 -2.8870 -0.0655  0.7746
 1960TIP3   OH227294   5.226   6.413   6.336  0.3616  0.6430 -0.1942
 1960TIP3    H127295   5.270   6.420   6.420  1.7068  0.9677 -0.9231
 1960TIP3    H227296   5.226   6.319   6.317 -0.8182  0.4578  0.6055
 1961TIP3   OH227297   0.612   2.059  11.527 -0.3964  0.0011 -0.3636
 1961TIP3    H127298   0.610   1.973  11.485 -1.8406 -0.3105  0.3257
 1961TIP3    H227299   0.621   2.040  11.620 -1.0161  0.5932 -0.1846
 1962TIP3   OH227300   1.531   0.361   3.063 -0.6386 -0.0708 -0.2620
 1962TIP3    H127301   1.580   0.405   3.133 -0.3225 -0.6882 -0.0948
 1962TIP3    H227302   1.553   0.268   3.072 -1.3556 -0.2788 -0.5732
 1963TIP3   OH227303   2.460   2.681  15.876 -0.4688  0.2504 -0.3145
 1963TIP3    H127304   2.441   2.591  15.851 -1.1630  0.4155 -0.3909
 1963TIP3    H227305   2.513   2.716  15.804  0.8632 -0.4656  0.2927
 1964TIP3   OH227306   4.377   1.756   5.151  0.5118 -0.0812  0.1221
 1964TIP3    H127307   4.285   1.734   5.163  0.4399  0.0550 -0.1720
 1964TIP3    H227308   4.378   1.851   5.145  0.8389  0.0145  1.5301
 1965TIP3   OH227309   5.460   2.059  10.886 -0.8739 -0.5220  0.2047
 1965TIP3    H127310   5.486   2.078  10.796 -0.4173  1.9831  0.8200
 1965TIP3    H227311   5.365   2.074  10.887 -0.8671 -0.4739  0.1575
 1966TIP3   OH227312   6.551   4.658  11.945 -0.3820  0.3135  0.7253
 1966TIP3    H127313   6.641   4.645  11.914 -0.4843 -0.4062  0.7223
 1966TIP3    H227314   6.502   4.584  11.909 -1.1504  1.1141  0.0611
 1967TIP3   OH227315   2.717   1.241  15.897  0.1434  0.1468 -0.2940
 1967TIP3    H127316   2.701   1.148  15.906  0.2636  0.1727  0.1694
 1967TIP3    H227317   2.672   1.281  15.971  2.2905  0.2255  0.9909
 1968TIP3   OH227318   2.421   1.537   0.394  0.2375  0.5441 -0.0418
 1968TIP3    H127319   2.426   1.612   0.453  2.4147  1.0786 -0.8751
 1968TIP3    H227320   2.384   1.467   0.448  2.1003  1.0352  1.9411
 1969TIP3   OH227321   1.835   5.082  13.270 -0.4603  0.6313 -0.2614
 1969TIP3    H127322   1.791   5.136  13.204  1.5998 -0.6548 -2.7845
 1969TIP3    H227323   1.918   5.128  13.286 -1.1645  1.2003  1.8512
 1970TIP3   OH227324   6.668   0.940   4.632  0.2333 -0.9467 -0.3234
 1970TIP3    H127325   6.578   0.973   4.627 -0.1491 -1.3016  2.9988
 1970TIP3    H227326   6.723   1.019   4.633 -0.4251 -0.4460  3.2205
 1971TIP3   OH227327   3.954   6.294  13.581 -1.0416  0.0134 -0.4682
 1971TIP3    H127328   3.870   6.283  13.625 -0.5311 -0.5024  0.4101
 1971TIP3    H227329   3.962   6.217  13.525 -1.7780  0.7652 -1.6103
 1972TIP3   OH227330   0.013   6.204   3.496  0.5845  0.3178 -0.7718
 1972TIP3    H127331   0.038   6.289   3.459  1.2568  1.3548  1.9149
 1972TIP3    H227332   0.090   6.149   3.484  0.5191  0.4023 -1.5967
 1973TIP3   OH227333   3.776   2.027  10.833 -0.9023  0.2555  0.9976
 1973TIP3    H127334   3.727   2.081  10.895 -1.7536  0.4768  0.1362
 1973TIP3    H227335   3.736   1.941  10.839 -1.3749  0.4234  0.3314
 1974TIP3   OH227336   0.207   4.850   3.365 -0.5819  1.0212  1.0450
 1974TIP3    H127337   0.252   4.846   3.281 -0.6335 -0.3607  1.0703
 1974TIP3    H227338   0.263   4.799   3.424 -1.4629  0.4630  1.4075
 1975TIP3   OH227339   2.080   4.443   0.433 -0.3531  0.6370 -0.3759
 1975TIP3    H127340   2.164   4.468   0.473  0.0024  1.1171 -1.4146
 1975TIP3    H227341   2.088   4.470   0.342 -0.5052 -1.9311 -1.2028
 1976TIP3   OH227342   4.262   3.801   0.813  0.1051 -0.3394  0.2958
 1976TIP3    H127343   4.198   3.845   0.869 -1.1299 -3.0292  1.0634
 1976TIP3    H227344   4.342   3.799   0.866  0.3768  1.5323 -0.0115
 1977TIP3   OH227345   1.973   0.711   4.727 -0.2855  0.1015  0.0738
 1977TIP3    H127346   2.068   0.719   4.737 -0.2058 -0.0071 -0.5833
 1977TIP3    H227347   1.942   0.801   4.721 -0.1098  0.1161 -0.7189
 1978TIP3   OH227348   0.821   1.707   2.075  0.0249 -0.2110  0.3225
 1978TIP3    H127349   0.888   1.663   2.023 -1.3501 -3.4201  1.1326
 1978TIP3    H227350   0.870   1.766   2.133  1.7735  0.9530 -2.2793
 1979TIP3   OH227351   1.070   3.905  11.678  0.7172  0.0013  0.7924
 1979TIP3    H127352   0.979   3.886  11.654  1.4516 -2.1380 -0.4999
 1979TIP3    H227353   1.074   3.892  11.772  0.0345 -1.5008  0.6244
 1980TIP3   OH227354   1.029   1.959   1.607  0.1523 -0.2078 -0.1015
 1980TIP3    H127355   1.015   2.007   1.688  2.8955  0.9047 -0.2326
 1980TIP3    H227356   1.100   1.897   1.628 -1.1566 -1.9885 -0.8294
 1981TIP3   OH227357   6.689   0.361   2.961  0.4824  0.5187 -0.3821
 1981TIP3    H127358   6.597   0.339   2.945  0.2139  0.3838  1.2530
 1981TIP3    H227359   6.694   0.375   3.056  2.4285 -0.8282 -0.2632
 1982TIP3   OH227360   3.696   2.354   2.482 -0.5472 -0.2869 -0.1196
 1982TIP3    H127361   3.683   2.259   2.476  0.2425 -0.4316  0.3808
 1982TIP3    H227362   3.716   2.380   2.392  4.4448 -1.4300  0.4888
 1983TIP3   OH227363   5.253   5.802   5.186  0.0795 -0.1264 -0.9414
 1983TIP3    H127364   5.349   5.806   5.185  0.1675 -1.9687 -1.2359
 1983TIP3    H227365   5.230   5.809   5.278  0.5877 -1.5117 -0.7081
 1984TIP3   OH227366   4.394   5.540   6.622  0.1302  0.3150 -0.2912
 1984TIP3    H127367   4.438   5.517   6.704 -0.9254  0.1601  0.2410
 1984TIP3    H227368   4.378   5.634   6.629 -1.1385  0.0622  0.2588
 1985TIP3   OH227369   3.483   5.629   0.114 -0.1817 -0.3702  0.0278
 1985TIP3    H127370   3.502   5.542   0.147 -1.9447 -0.3820  1.0929
 1985TIP3    H227371   3.498   5.623   0.020  0.7256 -1.5197  0.2356
 1986TIP3   OH227372   3.646   4.720   2.410 -0.0383  0.2297 -0.1032
 1986TIP3    H127373   3.554   4.723   2.384 -0.8758 -1.3045  2.4535
 1986TIP3    H227374   3.694   4.715   2.327 -2.3001 -0.0339 -1.4549
 1987TIP3   OH227375   1.525   5.435   2.520 -0.5191 -0.2250 -0.3642
 1987TIP3    H127376   1.519   5.368   2.452  2.7403 -0.9650  0.0129
 1987TIP3    H227377   1.569   5.392   2.593 -0.8234  1.5598  0.8979
 1988TIP3   OH227378   6.519   5.891   0.441  0.1113 -0.2281  0.2305
 1988TIP3    H127379   6.520   5.841   0.522  2.4473 -1.9538 -0.8220
 1988TIP3    H227380   6.576   5.966   0.458 -0.9671  0.4605  0.8172
 1989TIP3   OH227381   3.089   2.411   2.462 -0.0902 -0.4754  0.2901
 1989TIP3    H127382   3.107   2.331   2.412  1.9663 -0.0076  0.2358
 1989TIP3    H227383   3.015   2.451   2.416  1.2641 -0.4498 -1.9520
 1990TIP3   OH227384   4.671   2.832   2.979  0.1450  0.5378  0.3056
 1990TIP3    H127385   4.656   2.923   2.957 -0.2599  0.4250  0.1095
 1990TIP3    H227386   4.762   2.829   3.008  0.0648  1.0616  0.6262
 1991TIP3   OH227387   3.708   6.443  14.589  0.3418  0.3474 -0.8489
 1991TIP3    H127388   3.647   6.498  14.539  0.6061 -0.4023 -2.0016
 1991TIP3    H227389   3.654   6.406  14.660 -0.0526  1.3378 -0.6204
 1992TIP3   OH227390   5.326   0.037  12.217 -0.4831 -0.4071  0.0004
 1992TIP3    H127391   5.323  -0.051  12.179 -0.4356 -0.2001 -0.4835
 1992TIP3    H227392   5.413   0.070  12.195 -0.2472 -0.5025  0.7815
 1993TIP3   OH227393   1.762   1.325   3.565 -0.1927  0.3566 -0.3387
 1993TIP3    H127394   1.774   1.289   3.652 -1.2539 -2.6867 -1.3899
 1993TIP3    H227395   1.804   1.411   3.568  2.8683 -1.1298  2.1290
 1994TIP3   OH227396   5.885   0.388   0.818  0.1145  0.2286 -0.0566
 1994TIP3    H127397   5.871   0.347   0.903  0.7909 -0.6240 -0.3572
 1994TIP3    H227398   5.818   0.457   0.814  0.0945  0.2940  1.1667
 1995TIP3   OH227399   1.338   3.239   6.676  0.1812 -0.1160 -0.1972
 1995TIP3    H127400   1.307   3.198   6.596  1.9019 -1.9844  0.0711
 1995TIP3    H227401   1.434   3.231   6.673  0.3236  0.4150  1.6894
 1996TIP3   OH227402   4.275   2.516   1.360  0.5302  0.1170 -0.4042
 1996TIP3    H127403   4.230   2.503   1.443  0.4150 -0.8347 -0.6010
 1996TIP3    H227404   4.338   2.586   1.377  0.6093 -0.1681  0.5226
 1997TIP3   OH227405   6.720   1.875  11.305  0.3762  0.0106 -0.7707
 1997TIP3    H127406   6.749   1.865  11.215 -2.0855  0.8663 -1.7161
 1997TIP3    H227407   6.632   1.837  11.306 -0.0814  1.0479  0.9766
 1998TIP3   OH227408   5.767   5.857   5.149  0.0646 -0.0854  0.4388
 1998TIP3    H127409   5.800   5.946   5.163 -3.8625  1.4932  0.2981
 1998TIP3    H227410   5.770   5.816   5.235 -1.2451  1.3776  1.2118
 1999TIP3   OH227411   5.893   6.287   0.412  0.0581 -0.1532  0.1704
 1999TIP3    H127412   5.889   6.198   0.446 -0.2202 -0.0335  0.4578
 1999TIP3    H227413   5.810   6.299   0.367  0.9969 -0.8041 -1.8174
 2000TIP3   OH227414   3.250   5.318   0.909 -0.5381 -0.1576 -0.0892
 2000TIP3    H127415   3.196   5.388   0.946  0.4797  1.6417 -1.8831
 2000TIP3    H227416   3.318   5.303   0.974  0.5516  2.1373 -0.6362
 2001TIP3   OH227417   6.079   1.592  11.604  0.3502 -1.0055 -0.4909
 2001TIP3    H127418   6.162   1.563  11.642  0.9239 -0.3063 -1.1812
 2001TIP3    H227419   6.046   1.657  11.665  1.1097 -0.1198 -1.0110
 2002TIP3   OH227420   3.127   2.493  15.783 -0.2538 -0.2291 -0.4868
 2002TIP3    H127421   3.111   2.457  15.870  1.8049  0.5884  0.2859
 2002TIP3    H227422   3.043   2.529  15.755 -1.4840 -2.4841  0.1814
 2003TIP3   OH227423   6.175   5.231  13.079 -0.2764 -0.0876  0.1573
 2003TIP3    H127424   6.233   5.290  13.126  0.8047 -2.0869  1.4216
 2003TIP3    H227425   6.089   5.243  13.120 -0.1830  0.9813  0.0386
 2004TIP3   OH227426   6.668   3.167   0.852  0.4311 -0.3045 -0.2453
 2004TIP3    H127427   6.612   3.099   0.815  0.1978  0.2950 -0.9995
 2004TIP3    H227428   6.608   3.221   0.904  0.0151  1.1958 -2.2251
 2005TIP3   OH227429   3.978   4.125   3.730 -0.4321  0.3290  0.4959
 2005TIP3    H127430   3.932   4.052   3.689  0.7600 -0.4374  0.4835
 2005TIP3    H227431   4.024   4.168   3.658 -0.4129  0.5454  0.6370
 2006TIP3   OH227432   5.450   1.759  13.490  0.1909 -0.2522 -0.1162
 2006TIP3    H127433   5.446   1.676  13.537  0.7976  0.3241  0.9481
 2006TIP3    H227434   5.407   1.741  13.406 -1.2537 -1.1692  0.8069
 2007TIP3   OH227435   1.933   1.209   1.844 -0.4232 -0.1732  0.5630
 2007TIP3    H127436   1.912   1.159   1.923 -0.5568 -2.5808 -0.9281
 2007TIP3    H227437   2.020   1.177   1.818 -0.5275  0.3338 -0.4473
 2008TIP3   OH227438   5.828   2.602   1.596 -0.5564 -0.2931 -0.3860
 2008TIP3    H127439   5.922   2.615   1.583 -0.6138 -0.1557 -0.6625
 2008TIP3    H227440   5.823   2.546   1.674 -0.2420 -0.3993 -0.4385
 2009TIP3   OH227441   0.063   1.918   4.477  0.1175 -0.6672 -0.4788
 2009TIP3    H127442  -0.012   1.875   4.519  0.7587 -2.6386 -1.2512
 2009TIP3    H227443   0.079   1.864   4.399  1.2537  0.7515 -1.2330
 2010TIP3   OH227444   6.015   3.611   6.008 -0.6677 -0.3980 -0.1975
 2010TIP3    H127445   6.050   3.695   6.036 -1.4190  0.2282 -1.1321
 2010TIP3    H227446   6.028   3.554   6.084  0.8481  0.2523  0.0566
 2011TIP3   OH227447   5.998   2.376   0.950 -0.2834  0.0843 -0.1401
 2011TIP3    H127448   5.976   2.297   0.900 -2.4962 -0.6901  1.9594
 2011TIP3    H227449   6.089   2.394   0.927  0.3206 -3.1764 -0.5548
 2012TIP3   OH227450   3.893   3.145  11.091 -0.1950  0.1712 -0.2371
 2012TIP3    H127451   3.822   3.179  11.037 -0.7879 -1.2045 -0.3501
 2012TIP3    H227452   3.905   3.211  11.159 -1.3510  0.5882 -0.4290
 2013TIP3   OH227453   0.746   0.904   2.595 -0.3158  0.3471  0.2479
 2013TIP3    H127454   0.729   0.988   2.552 -1.4537 -0.0817 -0.1579
 2013TIP3    H227455   0.771   0.927   2.684 -2.9324  1.0255  0.8392
 2014TIP3   OH227456   3.946   3.437   3.420 -0.5718 -0.2219  0.1917
 2014TIP3    H127457   3.930   3.376   3.492 -0.0963 -1.2092 -0.5228
 2014TIP3    H227458   4.031   3.475   3.439 -0.0049 -1.2060 -0.3440
 2015TIP3   OH227459   4.133   1.959   2.648  0.1750 -0.2655 -0.1801
 2015TIP3    H127460   4.052   1.933   2.605  0.0932  0.3072 -0.3651
 2015TIP3    H227461   4.122   2.052   2.668  1.4987  0.2621 -1.8327
 2016TIP3   OH227462   2.231   4.117   5.956  0.6990 -0.3381 -0.6842
 2016TIP3    H127463   2.289   4.192   5.941 -0.0381  0.1133 -1.3021
 2016TIP3    H227464   2.143   4.155   5.960  0.3130 -1.1732 -1.0545
 2017TIP3   OH227465   6.182   1.480  14.860  0.1837 -0.2039 -0.1901
 2017TIP3    H127466   6.149   1.566  14.835 -0.0624 -0.2454 -0.0131
 2017TIP3    H227467   6.144   1.464  14.946  1.0161 -0.0630  0.2079
 2018TIP3   OH227468   0.969   4.990  13.394  0.1663  0.0319  0.3093
 2018TIP3    H127469   0.951   4.897  13.408  0.3226 -0.1498 -0.6751
 2018TIP3    H227470   0.907   5.017  13.327 -0.7541  0.9593  1.5067
 2019TIP3   OH227471   4.195   3.322  14.600 -0.1222 -0.2632  0.3047
 2019TIP3    H127472   4.207   3.406  14.556 -1.2388 -0.9021 -1.2781
 2019TIP3    H227473   4.126   3.338  14.664  0.1765  0.2135  0.5060
 2020TIP3   OH227474   5.830   3.941   6.165 -0.3445 -0.0400 -0.3082
 2020TIP3    H127475   5.764   3.878   6.137 -0.3236 -0.6395  0.9649
 2020TIP3    H227476   5.783   4.001   6.223  0.0994 -0.1767  0.2048
 2021TIP3   OH227477   1.156   1.558  14.325 -0.0493 -0.0336  0.1233
 2021TIP3    H127478   1.201   1.505  14.259 -0.5982 -0.3860  0.0285
 2021TIP3    H227479   1.063   1.546  14.305 -0.1756  0.8722  0.1770
 2022TIP3   OH227480   5.604   1.222   0.755  0.2170 -0.6645 -0.3173
 2022TIP3    H127481   5.584   1.136   0.716 -1.4896  0.1906 -1.3930
 2022TIP3    H227482   5.638   1.274   0.683 -1.6710  0.5117 -0.3994
 2023TIP3   OH227483   1.409   3.804   2.495 -0.2529 -0.3754  0.4009
 2023TIP3    H127484   1.377   3.723   2.536 -2.4968 -0.1886 -0.8794
 2023TIP3    H227485   1.480   3.774   2.437  0.2150 -1.1634  1.3622
 2024TIP3   OH227486   1.524   1.997  14.478  0.0617 -0.8339  0.3663
 2024TIP3    H127487   1.460   2.035  14.538  0.3357 -1.9266  1.3651
 2024TIP3    H227488   1.497   1.906  14.467  0.0612 -0.6559 -1.1174
 2025TIP3   OH227489   2.635   2.911   3.324 -0.0161 -0.7326  0.4453
 2025TIP3    H127490   2.557   2.859   3.343  0.0645 -0.9537  0.1720
 2025TIP3    H227491   2.679   2.920   3.409  0.7443 -2.3737  0.2585
 2026TIP3   OH227492   0.538   4.318   4.695 -0.7330 -0.5460 -0.2392
 2026TIP3    H127493   0.522   4.282   4.782 -1.3726 -1.5505 -0.7600
 2026TIP3    H227494   0.630   4.297   4.677 -0.5131 -0.0696  0.3066
 2027TIP3   OH227495   1.894   0.197   6.143 -0.2279 -0.3132  0.0297
 2027TIP3    H127496   1.924   0.199   6.234 -0.9025  1.4510  0.2298
 2027TIP3    H227497   1.832   0.124   6.140 -0.0188 -0.5337  0.9182
 2028TIP3   OH227498   3.245   2.202   0.840 -0.2332 -0.2916 -0.1691
 2028TIP3    H127499   3.189   2.187   0.763 -0.1318 -1.0640 -0.0995
 2028TIP3    H227500   3.241   2.296   0.855 -3.4358 -0.5868  1.2782
 2029TIP3   OH227501   0.538   0.734  15.247  0.3279 -0.3915 -0.4875
 2029TIP3    H127502   0.586   0.665  15.293 -0.0584 -1.0901 -1.1137
 2029TIP3    H227503   0.574   0.815  15.281 -0.7061 -0.8707  1.8610
 2030TIP3   OH227504   5.295   6.248  17.238  0.2630 -0.3126 -0.3686
 2030TIP3    H127505   5.264   6.207  17.319 -0.6269  0.0531 -0.5210
 2030TIP3    H227506   5.262   6.192  17.168  3.2134 -2.0922 -0.4139
 2031TIP3   OH227507   3.356   0.447   1.027 -0.0523 -0.3625  0.2253
 2031TIP3    H127508   3.395   0.503   0.961  1.6015 -0.1335  1.3629
 2031TIP3    H227509   3.274   0.416   0.988  1.1226 -0.6222 -2.1060
 2032TIP3   OH227510   0.327   4.087   2.438  0.7683  0.2893 -0.1183
 2032TIP3    H127511   0.277   4.169   2.435  2.7093  1.5654  1.3688
 2032TIP3    H227512   0.279   4.032   2.500  0.1981  0.7958 -0.1076
 2033TIP3   OH227513   2.244   3.196  17.163  0.3621 -0.4138  0.3941
 2033TIP3    H127514   2.187   3.197  17.086  3.4518  1.4906 -2.0240
 2033TIP3    H227515   2.285   3.109  17.162  0.1010 -0.5338  0.1167
 2034TIP3   OH227516   2.357   1.733  14.014 -0.1144  0.3454 -0.3522
 2034TIP3    H127517   2.438   1.760  13.972  0.4251 -0.8016 -0.0600
 2034TIP3    H227518   2.298   1.808  14.004  0.5769  0.7226 -1.6301
 2035TIP3   OH227519   4.356   4.150   4.984 -0.0982  0.7890 -0.7225
 2035TIP3    H127520   4.301   4.103   4.921  1.2180 -0.3884 -1.0412
 2035TIP3    H227521   4.410   4.208   4.930  2.4114 -1.6290 -0.9362
 2036TIP3   OH227522   6.477   5.796  16.632  0.1727  0.2866 -0.2099
 2036TIP3    H127523   6.469   5.891  16.640 -0.1420  0.2846 -0.4931
 2036TIP3    H227524   6.409   5.762  16.689  0.6470  0.2220  0.3248
 2037TIP3   OH227525   2.006   4.275   5.699  0.1869  0.2808  0.3240
 2037TIP3    H127526   2.098   4.269   5.677  0.5269  2.5801  0.9429
 2037TIP3    H227527   2.004   4.266   5.795 -0.1063  1.2520  0.4142
 2038TIP3   OH227528   2.556   1.715  11.974 -0.3132 -0.3453  0.1467
 2038TIP3    H127529   2.617   1.753  12.037  1.2935 -0.9072 -1.0336
 2038TIP3    H227530   2.555   1.777  11.901 -0.7158 -0.6288 -0.0885
 2039TIP3   OH227531   2.779   3.525   4.910 -0.6451  0.3072 -0.2209
 2039TIP3    H127532   2.769   3.619   4.925 -1.2198  0.6202 -2.4383
 2039TIP3    H227533   2.724   3.506   4.834 -1.0662 -1.9601  0.6054
 2040TIP3   OH227534   5.648   1.319   5.883 -0.0556 -0.1749  0.2844
 2040TIP3    H127535   5.623   1.264   5.957 -0.7201  0.9353  0.9044
 2040TIP3    H227536   5.675   1.402   5.923  1.7582 -0.3357 -0.5836
 2041TIP3   OH227537   6.325   3.901   0.296 -0.1437 -0.3266  0.2617
 2041TIP3    H127538   6.373   3.841   0.354  0.6316 -0.2852 -0.3185
 2041TIP3    H227539   6.353   3.875   0.208  0.5557  1.1794  0.0311
 2042TIP3   OH227540   0.257   4.510  14.164 -0.0756  0.7482  0.1637
 2042TIP3    H127541   0.330   4.465  14.122  0.2542  0.2532  1.2325
 2042TIP3    H227542   0.179   4.469  14.128  0.2005  0.3747 -0.0100
 2043TIP3   OH227543   3.985   3.193  10.549 -0.0845  0.4254  0.0637
 2043TIP3    H127544   3.987   3.230  10.637 -0.5059  1.5755 -0.3913
 2043TIP3    H227545   3.896   3.159  10.539 -0.5040  1.6372 -0.4369
 2044TIP3   OH227546   0.913   2.664   1.040 -0.8863 -0.0149 -0.1522
 2044TIP3    H127547   0.998   2.700   1.066 -1.4277  0.6392  0.7549
 2044TIP3    H227548   0.908   2.679   0.946 -1.1165  2.3608  0.2037
 2045TIP3   OH227549   5.252   1.215   3.249 -0.5594  0.3833  0.1234
 2045TIP3    H127550   5.231   1.186   3.160 -0.0807  2.7210 -0.7633
 2045TIP3    H227551   5.306   1.293   3.238 -0.6448  0.8169  2.4698
 2046TIP3   OH227552   0.901   4.221   1.801  0.1399  0.4612  0.8397
 2046TIP3    H127553   0.918   4.314   1.816 -1.0426  0.8381 -0.0580
 2046TIP3    H227554   0.987   4.179   1.808  0.9169  1.8344 -0.2624
 2047TIP3   OH227555   5.673   0.346   1.857  0.1590  0.2610  0.3275
 2047TIP3    H127556   5.657   0.385   1.943 -0.3351  0.8922 -0.0476
 2047TIP3    H227557   5.723   0.266   1.876  0.3891  0.5979  1.1661
 2048TIP3   OH227558   2.351   5.741  14.930 -0.0934 -0.3302 -0.2508
 2048TIP3    H127559   2.256   5.749  14.922  0.0844  0.6673 -1.6312
 2048TIP3    H227560   2.381   5.719  14.842  1.1092  1.0627 -0.2203
 2049TIP3   OH227561   0.259   1.246   4.482  0.0327 -0.5276  0.2369
 2049TIP3    H127562   0.324   1.240   4.552 -1.1770  0.4607  1.4635
 2049TIP3    H227563   0.248   1.339   4.467 -0.2975 -0.7208 -0.7503
 2050TIP3   OH227564   6.700   3.865  16.299  0.2160 -0.5181  0.3354
 2050TIP3    H127565   6.685   3.803  16.227 -0.0975 -0.1761  0.1016
 2050TIP3    H227566   6.791   3.852  16.323 -0.0549 -1.6036  0.7840
 2051TIP3   OH227567   4.028   5.965  15.864 -0.5583  0.3625  0.3012
 2051TIP3    H127568   4.003   6.016  15.940  1.4648  0.1478  1.1478
 2051TIP3    H227569   4.110   6.005  15.834 -2.1101  1.4348 -2.7142
 2052TIP3   OH227570   5.773   0.993  16.330  0.0279  0.8433  0.2074
 2052TIP3    H127571   5.836   1.042  16.383  0.5002 -0.0761  0.5221
 2052TIP3    H227572   5.819   0.976  16.248  0.0196  0.5769  0.2575
 2053TIP3   OH227573   1.433   5.559   5.613 -0.2261  0.2709 -0.3647
 2053TIP3    H127574   1.360   5.598   5.662 -0.8339 -1.9411  0.5582
 2053TIP3    H227575   1.510   5.575   5.667 -0.3595  0.8093 -0.3350
 2054TIP3   OH227576   4.926   0.242  14.986  0.1971 -0.0523 -0.3135
 2054TIP3    H127577   4.991   0.313  14.986 -0.6198  0.7015  0.1743
 2054TIP3    H227578   4.907   0.227  14.893  2.5031 -1.6245 -0.5968
 2055TIP3   OH227579   3.039   5.457  15.806  0.2453 -0.0708  0.3660
 2055TIP3    H127580   3.011   5.399  15.876  0.4922 -0.4686  0.1337
 2055TIP3    H227581   2.968   5.521  15.798 -0.6342 -1.1058 -0.2535
 2056TIP3   OH227582   2.546   1.626  17.207 -0.2765 -0.5255 -0.0118
 2056TIP3    H127583   2.489   1.647  17.282 -0.3106  1.0458 -0.4609
 2056TIP3    H227584   2.518   1.538  17.181 -0.3218 -1.0662  1.7656
 2057TIP3   OH227585   2.179   2.273  11.146 -0.1223  0.2930  0.3169
 2057TIP3    H127586   2.187   2.368  11.149  0.7679  0.2014  1.1169
 2057TIP3    H227587   2.098   2.257  11.097  0.1677  1.4400 -0.5564
 2058TIP3   OH227588   1.349   2.129   1.795 -0.1583  0.5294  0.5688
 2058TIP3    H127589   1.263   2.155   1.764 -0.6131  0.1183  1.4785
 2058TIP3    H227590   1.375   2.198   1.856 -0.0301  0.4426  0.6147
 2059TIP3   OH227591   2.066   4.770  13.804 -0.3865  0.1185 -0.1295
 2059TIP3    H127592   2.144   4.821  13.782 -0.8131  0.5633 -0.5996
 2059TIP3    H227593   2.097   4.679  13.807  0.1097  0.2757 -0.4891
 2060TIP3   OH227594   3.477   2.490   5.074 -0.0691 -0.0767 -0.1999
 2060TIP3    H127595   3.412   2.450   5.131  0.8569 -1.0095  0.2195
 2060TIP3    H227596   3.526   2.549   5.131  0.9920 -1.1639  0.0344
 2061TIP3   OH227597   4.011   4.608  15.299  1.3932  0.0744  0.2080
 2061TIP3    H127598   3.934   4.664  15.312  1.3444  0.4756 -1.7358
 2061TIP3    H227599   3.983   4.543  15.235  2.9122  0.7396 -1.1752
 2062TIP3   OH227600   0.195   6.173   3.907 -0.3915 -0.1312  0.0001
 2062TIP3    H127601   0.146   6.154   3.986 -1.4178  2.3850  0.0081
 2062TIP3    H227602   0.166   6.107   3.844 -2.4498  0.1892  0.5687
 2063TIP3   OH227603   3.750   5.486  15.760  0.2541  0.3725  0.5792
 2063TIP3    H127604   3.662   5.450  15.775 -1.0661  2.7332 -1.1334
 2063TIP3    H227605   3.783   5.436  15.686  1.2174 -1.8784  2.4524
 2064TIP3   OH227606   0.842   2.706  14.171 -0.2567  0.3337  0.0497
 2064TIP3    H127607   0.898   2.701  14.249  1.3069 -0.1102 -1.0726
 2064TIP3    H227608   0.761   2.662  14.197  1.1467 -1.9662  0.7019
 2065TIP3   OH227609   2.908   2.197  13.867  0.0873 -0.4114 -0.2230
 2065TIP3    H127610   2.878   2.107  13.877 -0.9829 -0.1687 -1.1219
 2065TIP3    H227611   2.892   2.237  13.953 -1.6970 -0.4409 -0.5162
 2066TIP3   OH227612   6.182   0.519   3.812 -0.1697  0.0784 -0.2670
 2066TIP3    H127613   6.099   0.477   3.832 -0.5457  0.6032 -0.7184
 2066TIP3    H227614   6.235   0.506   3.891 -1.1178  0.8588  0.5028
 2067TIP3   OH227615   2.511   0.790   6.086  0.0630 -0.1842  0.0352
 2067TIP3    H127616   2.602   0.814   6.069 -0.0608  0.4733  0.2845
 2067TIP3    H227617   2.512   0.748   6.172  0.4075 -1.8543 -0.7610
 2068TIP3   OH227618   0.158   5.136   0.159 -0.5232 -0.1825  0.6448
 2068TIP3    H127619   0.142   5.146   0.065  2.0098  0.4221  0.2403
 2068TIP3    H227620   0.174   5.042   0.170  3.5022  0.3072 -0.3193
 2069TIP3   OH227621   0.354   4.001   1.573  0.2266 -0.2808 -0.1726
 2069TIP3    H127622   0.330   4.089   1.601 -0.6289 -0.5480 -0.0603
 2069TIP3    H227623   0.406   4.015   1.494 -0.2035  0.3011 -0.3560
 2070TIP3   OH227624   1.347   6.096  14.062 -0.1416 -0.3067 -0.5552
 2070TIP3    H127625   1.396   6.117  13.983 -0.9297 -0.4787 -1.1009
 2070TIP3    H227626   1.344   6.178  14.112  0.0510 -0.1032 -0.8780
 2071TIP3   OH227627   1.765   3.709   0.590 -0.0362  0.2526  0.5469
 2071TIP3    H127628   1.767   3.773   0.518  1.3934 -0.0490  0.3045
 2071TIP3    H227629   1.701   3.744   0.651 -1.6311  0.2817 -1.1006
 2072TIP3   OH227630   2.573   6.342  12.443  0.5944 -0.5847  0.1399
 2072TIP3    H127631   2.547   6.263  12.491  1.6300 -1.9824 -1.5228
 2072TIP3    H227632   2.492   6.389  12.429  0.0039 -1.1652  1.4740
 2073TIP3   OH227633   5.881   0.469  14.099 -0.1824 -0.4112 -0.1563
 2073TIP3    H127634   5.963   0.467  14.050  0.8278  0.1230  1.4850
 2073TIP3    H227635   5.900   0.420  14.179 -0.4595  2.4505  1.7357
 2074TIP3   OH227636   4.238   4.695   2.067 -0.4024  0.0849 -0.4296
 2074TIP3    H127637   4.253   4.656   2.153 -0.3647 -0.8703 -0.8627
 2074TIP3    H227638   4.144   4.713   2.065 -0.9905 -2.8445 -1.3840
 2075TIP3   OH227639   2.314   1.709   3.144 -0.3449  0.1245  0.6412
 2075TIP3    H127640   2.256   1.656   3.089  0.6870 -2.1002  1.6509
 2075TIP3    H227641   2.402   1.684   3.117  0.1562  0.8111  1.6152
 2076TIP3   OH227642   2.171   5.755   4.245 -0.1086 -0.3093 -0.5405
 2076TIP3    H127643   2.201   5.841   4.274  1.4382 -0.8928 -0.3252
 2076TIP3    H227644   2.110   5.773   4.174  0.7095  0.9579 -0.9426
 2077TIP3   OH227645   3.814   0.542  12.225 -0.7099  0.0816 -0.0955
 2077TIP3    H127646   3.863   0.563  12.304 -0.3223 -0.6740 -0.1287
 2077TIP3    H227647   3.849   0.601  12.158  0.4314 -0.7012 -0.2088
 2078TIP3   OH227648   6.047   6.279  14.380  0.0895 -0.3085  0.4045
 2078TIP3    H127649   6.047   6.270  14.476  0.6454  0.8112  0.5131
 2078TIP3    H227650   6.110   6.212  14.351  2.0097  1.1752  1.0241
 2079TIP3   OH227651   6.384   1.909  14.316 -0.0156 -0.3702 -0.1915
 2079TIP3    H127652   6.357   1.863  14.236 -0.6407  2.0997 -1.4603
 2079TIP3    H227653   6.344   1.996  14.308  3.0637  1.2212  0.9732
 2080TIP3   OH227654   3.153   0.113  13.683  0.6218  0.0498  0.1024
 2080TIP3    H127655   3.081   0.066  13.640  1.4952 -1.7641  0.5536
 2080TIP3    H227656   3.119   0.201  13.699 -1.0375 -0.3978 -0.8542
 2081TIP3   OH227657   4.192   6.236  12.199 -0.3229 -0.4969 -0.5089
 2081TIP3    H127658   4.125   6.233  12.267 -1.1911  2.8983 -1.1060
 2081TIP3    H227659   4.274   6.224  12.245 -1.1091 -1.5285  0.6647
 2082TIP3   OH227660   3.395   0.774   4.407 -0.6447 -0.1933  1.2290
 2082TIP3    H127661   3.345   0.784   4.488  1.7823 -0.9154  2.8888
 2082TIP3    H227662   3.486   0.792   4.433  0.2346 -0.8916 -1.2386
 2083TIP3   OH227663   1.961   6.012  12.555 -0.3581 -0.4142  0.0842
 2083TIP3    H127664   1.925   5.928  12.584  1.2025 -1.3980 -0.7449
 2083TIP3    H227665   2.014   6.042  12.628  0.9189 -1.2814 -0.4713
 2084TIP3   OH227666   1.509   1.793   0.579 -0.1492  0.0861 -0.2710
 2084TIP3    H127667   1.516   1.815   0.672 -2.4775  0.4593 -0.1581
 2084TIP3    H227668   1.499   1.698   0.577  0.3538  0.0298 -0.1722
 2085TIP3   OH227669   2.192   2.313  15.928  0.2350  0.0645 -0.2298
 2085TIP3    H127670   2.177   2.396  15.883 -0.3575 -0.2170 -0.5630
 2085TIP3    H227671   2.158   2.328  16.017 -0.2231  0.0603 -0.4032
 2086TIP3   OH227672   3.662   0.037   5.560 -0.0437  0.7013 -0.0392
 2086TIP3    H127673   3.737   0.081   5.599  0.9532  0.0172 -1.1648
 2086TIP3    H227674   3.669   0.056   5.467  0.3305 -1.7020 -0.5311
 2087TIP3   OH227675   4.468   5.613  16.093  0.5018  0.0954  0.0176
 2087TIP3    H127676   4.532   5.546  16.070  1.8186  1.3488  0.0196
 2087TIP3    H227677   4.468   5.673  16.018  1.3042  1.5758  1.1937
 2088TIP3   OH227678   5.045   6.542  11.291 -0.4749  0.2650  0.5202
 2088TIP3    H127679   5.111   6.546  11.222  0.1372  1.1080  1.1506
 2088TIP3    H227680   4.995   6.463  11.271 -0.1364  0.3501 -0.7368
 2089TIP3   OH227681   4.535   6.763  15.985  0.1612  0.5342 -0.0316
 2089TIP3    H127682   4.560   6.855  15.984 -0.0829  0.5982 -0.1357
 2089TIP3    H227683   4.554   6.732  15.896  1.7747  0.0780  0.4366
 2090TIP3   OH227684   3.058   5.397   3.620 -0.1142 -0.3372  0.0897
 2090TIP3    H127685   3.030   5.441   3.540  1.2001  1.3682  0.5614
 2090TIP3    H227686   3.001   5.433   3.688  0.8282  0.4800  0.4427
 2091TIP3   OH227687   4.888   0.419   0.831  0.2125  0.1646  0.2036
 2091TIP3    H127688   4.958   0.461   0.781  0.1264 -1.8781 -1.7077
 2091TIP3    H227689   4.870   0.337   0.784  0.1395 -1.8790  3.5943
 2092TIP3   OH227690   1.635   6.527  17.128 -0.0591  0.2230 -0.5340
 2092TIP3    H127691   1.554   6.534  17.178  0.0129  1.5930 -0.5769
 2092TIP3    H227692   1.702   6.509  17.193 -0.5061 -1.7413 -0.5949
 2093TIP3   OH227693   0.691   6.638  15.724 -0.0980 -0.8067 -0.1776
 2093TIP3    H127694   0.646   6.714  15.686  0.3402 -0.8590 -0.8084
 2093TIP3    H227695   0.633   6.608  15.794  0.1328  0.6330  0.6528
 2094TIP3   OH227696   1.956   4.994   6.480 -0.3048  0.2886  0.3946
 2094TIP3    H127697   2.025   5.029   6.536 -0.3590  0.6010  0.2658
 2094TIP3    H227698   1.886   5.059   6.485 -1.3157 -0.8983  1.9611
 2095TIP3   OH227699   1.993   5.135  14.926  0.1617 -0.2345 -0.0108
 2095TIP3    H127700   2.057   5.195  14.888 -0.6274  0.8612  0.3785
 2095TIP3    H227701   1.937   5.109  14.853  1.0768 -1.2498 -0.3656
 2096TIP3   OH227702   5.638   0.113   1.487  0.0387  0.3605 -0.5386
 2096TIP3    H127703   5.602   0.186   1.538 -1.2520 -0.6243  0.0012
 2096TIP3    H227704   5.717   0.148   1.446  0.2495  1.6243  0.9207
 2097TIP3   OH227705   6.465   3.344   4.462  0.1147 -0.3815 -0.1120
 2097TIP3    H127706   6.490   3.362   4.371  0.5924  0.1078  0.1191
 2097TIP3    H227707   6.547   3.334   4.509 -0.1321 -0.9750  0.2084
 2098TIP3   OH227708   3.929   2.923   1.542 -0.4162  0.0956  0.2534
 2098TIP3    H127709   3.914   2.920   1.448  0.2922  2.2096  0.0549
 2098TIP3    H227710   3.897   2.839   1.574 -1.5162 -0.2683 -1.7419
 2099TIP3   OH227711   2.659   6.525   6.627  0.0929 -0.1999 -0.1784
 2099TIP3    H127712   2.752   6.502   6.623 -0.6117 -3.0593 -2.6042
 2099TIP3    H227713   2.649   6.598   6.566  0.7353  0.0662  0.0328
 2100TIP3   OH227714   2.235   4.858  12.997 -0.1118 -0.1490  0.1653
 2100TIP3    H127715   2.240   4.842  13.091  0.4800 -0.3735  0.0996
 2100TIP3    H227716   2.311   4.812  12.961  0.2012  0.7207 -0.3067
 2101TIP3   OH227717   4.082   6.373   1.727  0.1639  0.5810  0.3960
 2101TIP3    H127718   4.147   6.416   1.671 -0.3671  0.6436 -0.1833
 2101TIP3    H227719   4.037   6.444   1.771 -0.9541  0.6434 -0.8324
 2102TIP3   OH227720   4.612   3.805  12.380 -0.6523 -0.0925 -0.7346
 2102TIP3    H127721   4.639   3.871  12.316 -0.5702 -0.8203 -1.4614
 2102TIP3    H227722   4.579   3.855  12.455  1.5221  0.8186 -0.3483
 2103TIP3   OH227723   6.120   2.720  14.220 -0.2823 -0.6173 -0.4420
 2103TIP3    H127724   6.197   2.705  14.165  0.8662 -0.1994  1.0458
 2103TIP3    H227725   6.061   2.647  14.198  1.2347 -1.9048 -0.3303
 2104TIP3   OH227726   4.040   5.440  13.682 -0.0982  0.4003 -0.1063
 2104TIP3    H127727   4.104   5.383  13.725 -1.2825 -0.9528 -0.1053
 2104TIP3    H227728   4.067   5.440  13.590  1.2403  1.6855  0.2570
 2105TIP3   OH227729   2.035   3.154   4.501  0.1940  1.1436 -0.6727
 2105TIP3    H127730   1.965   3.185   4.445  1.0797  0.9532 -1.8917
 2105TIP3    H227731   1.992   3.133   4.584 -0.9700  2.2424 -0.9939
 2106TIP3   OH227732   5.401   0.372   2.280 -0.1412  0.0221  0.3899
 2106TIP3    H127733   5.321   0.386   2.229 -0.8488 -1.0392  1.1892
 2106TIP3    H227734   5.444   0.458   2.279  0.1386 -0.1014 -2.4128
 2107TIP3   OH227735   2.114   5.957  14.646  0.2748 -0.0890 -0.4601
 2107TIP3    H127736   2.109   5.880  14.591 -0.3294  0.1363 -0.7226
 2107TIP3    H227737   2.097   5.924  14.735  1.5056 -0.4899 -0.3663
 2108TIP3   OH227738   2.709   2.572   2.788 -0.2617 -0.2556 -0.6064
 2108TIP3    H127739   2.796   2.584   2.751 -0.6792  1.9898 -0.9171
 2108TIP3    H227740   2.690   2.479   2.775  2.9001 -1.2378  1.3280
 2109TIP3   OH227741   5.563   4.718  13.058 -0.4277  0.0753  0.5523
 2109TIP3    H127742   5.608   4.661  13.119 -0.4055  0.4586  0.8987
 2109TIP3    H227743   5.632   4.771  13.019 -0.2926 -1.0165 -0.7266
 2110TIP3   OH227744   6.207   4.459  15.091 -0.1120  0.1002 -0.2298
 2110TIP3    H127745   6.288   4.499  15.057 -0.0325 -1.3961 -1.8476
 2110TIP3    H227746   6.230   4.433  15.180  1.3243 -0.6176 -0.7828
 2111TIP3   OH227747   5.462   2.059   4.343 -0.2981 -0.6681 -0.8151
 2111TIP3    H127748   5.454   2.062   4.248  0.0794 -1.2173 -0.8687
 2111TIP3    H227749   5.379   2.093   4.375 -0.0325  0.5257 -1.3385
 2112TIP3   OH227750   6.371   2.106   1.507 -0.7030 -0.2685 -0.1914
 2112TIP3    H127751   6.333   2.128   1.422 -1.4293 -0.1934  0.1434
 2112TIP3    H227752   6.433   2.176   1.525 -0.8410 -0.0714 -0.4796
 2113TIP3   OH227753   6.379   4.977   2.238  0.0816 -0.1947  0.0861
 2113TIP3    H127754   6.391   4.940   2.151  0.3407  0.3258 -0.1015
 2113TIP3    H227755   6.340   4.906   2.289  0.1671 -0.5832 -0.3841
 2114TIP3   OH227756   4.015   0.507   5.564 -0.2714 -0.0597  0.1637
 2114TIP3    H127757   3.976   0.516   5.478  1.3766 -1.7592 -0.7892
 2114TIP3    H227758   4.104   0.542   5.554  1.1790 -3.5920  0.1833
 2115TIP3   OH227759   5.814   5.451  12.087 -0.5468 -0.9067 -0.6092
 2115TIP3    H127760   5.782   5.509  12.018  0.4934  2.1525  1.3872
 2115TIP3    H227761   5.778   5.487  12.168 -0.1943 -3.2940  0.6699
 2116TIP3   OH227762   1.017   1.770   3.522  0.0987  0.3616  0.0394
 2116TIP3    H127763   1.090   1.808   3.473 -0.0695  2.2676  1.2305
 2116TIP3    H227764   1.058   1.702   3.577  0.8020  0.6173 -0.1625
 2117TIP3   OH227765   6.514   2.140   3.100 -0.3631  0.2620 -0.2992
 2117TIP3    H127766   6.439   2.169   3.152 -0.6075  0.4898 -0.7805
 2117TIP3    H227767   6.478   2.121   3.014  0.1873  0.6666 -0.6231
 2118TIP3   OH227768   6.586   1.524  14.718  0.0526 -0.4047 -0.5739
 2118TIP3    H127769   6.508   1.535  14.664 -0.9988 -0.2943  0.9407
 2118TIP3    H227770   6.655   1.568  14.669 -1.5025  2.2886 -0.4557
 2119TIP3   OH227771   5.942   5.053  12.570  0.1209  0.4301 -0.3796
 2119TIP3    H127772   5.977   5.110  12.639  0.5273 -2.4362  1.8687
 2119TIP3    H227773   5.850   5.079  12.561  0.5765  2.1531 -0.1687
 2120TIP3   OH227774   5.680   2.398   5.726  0.8328 -0.0727  0.2452
 2120TIP3    H127775   5.670   2.316   5.774 -0.3273 -1.2961 -2.0528
 2120TIP3    H227776   5.605   2.402   5.668  0.6911  2.8103  0.5396
 2121TIP3   OH227777   3.249   5.739  12.384  0.0055  0.3843  0.1239
 2121TIP3    H127778   3.258   5.736  12.289 -1.4131 -0.3574 -0.0116
 2121TIP3    H227779   3.174   5.797  12.400  0.5587  0.9214  0.8171
 2122TIP3   OH227780   4.738   2.013   2.050  0.0640  0.1563 -0.5547
 2122TIP3    H127781   4.659   2.029   1.999 -0.2815 -0.8462 -0.3545
 2122TIP3    H227782   4.765   1.924   2.026  1.3323  0.6246 -0.8856
 2123TIP3   OH227783   6.131   6.049   0.908  0.0602  0.4984  0.1629
 2123TIP3    H127784   6.182   6.057   0.989  0.8614  0.8422 -0.3694
 2123TIP3    H227785   6.040   6.060   0.936  0.3918  1.4506  0.8957
 2124TIP3   OH227786   5.500   0.732   4.047  0.1677  0.4717  0.2902
 2124TIP3    H127787   5.479   0.825   4.036 -3.0707 -0.4961 -2.5446
 2124TIP3    H227788   5.562   0.713   3.976 -1.8460 -0.2683 -1.3064
 2125TIP3   OH227789   4.024   2.300  10.942  0.1830 -0.3574  0.1825
 2125TIP3    H127790   4.071   2.218  10.929  0.6063 -0.1786  0.5569
 2125TIP3    H227791   4.060   2.360  10.876 -1.7129 -1.1166 -1.5991
 2126TIP3   OH227792   0.237   0.143   4.178  0.2445 -0.4463 -0.1468
 2126TIP3    H127793   0.300   0.157   4.248  0.4947  0.4143 -0.5432
 2126TIP3    H227794   0.292   0.130   4.100 -0.0807  0.8466 -0.5921
 2127TIP3   OH227795   0.451   0.419   0.718 -0.2100  0.0819 -1.5527
 2127TIP3    H127796   0.409   0.466   0.790  1.4530 -0.9176  0.1017
 2127TIP3    H227797   0.409   0.333   0.717 -0.4579  0.2032 -2.0100
 2128TIP3   OH227798   1.689   4.274   4.866 -0.4703 -0.4701 -0.2193
 2128TIP3    H127799   1.721   4.199   4.916 -0.5334  0.1170  0.7016
 2128TIP3    H227800   1.737   4.349   4.901 -0.6893 -0.0159 -0.8720
 2129TIP3   OH227801   3.791   2.072  10.576 -0.1760 -0.1971  0.0545
 2129TIP3    H127802   3.798   2.079  10.671  1.7693  0.0949 -0.0856
 2129TIP3    H227803   3.797   1.978  10.558  0.8472 -0.1545  0.1402
 2130TIP3   OH227804   2.551   2.155  13.056  0.4696 -0.1766 -0.0796
 2130TIP3    H127805   2.613   2.165  13.128 -0.2458 -0.5640  0.5889
 2130TIP3    H227806   2.525   2.063  13.060  0.3279 -0.1712 -0.7588
 2131TIP3   OH227807   1.804   4.286  15.771  0.3378  0.0681 -0.5353
 2131TIP3    H127808   1.793   4.210  15.713  1.6599  0.9352 -1.9885
 2131TIP3    H227809   1.820   4.359  15.711  0.7688  1.1774  0.9022
 2132TIP3   OH227810   0.177   6.146   4.636 -0.0593 -0.0418  0.3763
 2132TIP3    H127811   0.244   6.191   4.584 -0.2127  0.7047  0.8114
 2132TIP3    H227812   0.109   6.122   4.573 -1.1149  2.4822  0.4744
 2133TIP3   OH227813   2.558   6.350  14.817 -0.1154  0.0791  0.4317
 2133TIP3    H127814   2.610   6.425  14.789  1.1520 -0.8067  0.3649
 2133TIP3    H227815   2.494   6.386  14.878  1.6016  0.9564  1.7319
 2134TIP3   OH227816   0.901   5.829  14.875  0.3451 -0.0934  0.4705
 2134TIP3    H127817   0.953   5.827  14.956  1.8998  1.4396 -0.4567
 2134TIP3    H227818   0.955   5.783  14.811 -1.9111 -3.4051  0.8233
 2135TIP3   OH227819   0.640   4.950  15.538  0.3262  0.0881  0.2442
 2135TIP3    H127820   0.639   4.991  15.452  1.3405  0.0250  0.1982
 2135TIP3    H227821   0.666   5.021  15.598 -2.4558  0.6920  0.8126
 2136TIP3   OH227822   1.899   5.034   1.309 -0.1575  0.9892  0.0843
 2136TIP3    H127823   1.835   5.047   1.379  2.1386  2.3095  2.0106
 2136TIP3    H227824   1.981   5.065   1.346  1.3774  0.4614 -2.7640
 2137TIP3   OH227825   2.219   2.425  16.644 -0.4454 -0.3946  0.1702
 2137TIP3    H127826   2.157   2.486  16.684 -0.4408 -1.3700  1.7244
 2137TIP3    H227827   2.172   2.341  16.643  0.3930 -0.8680  0.2071
 2138TIP3   OH227828   6.364   1.727  12.465  0.0259 -0.0839 -0.3846
 2138TIP3    H127829   6.305   1.763  12.532 -0.0096  0.3550 -0.6479
 2138TIP3    H227830   6.320   1.748  12.382  0.2963 -0.2179 -0.5608
 2139TIP3   OH227831   5.241   0.941  12.930 -0.4035  0.5038 -0.3024
 2139TIP3    H127832   5.327   0.915  12.895 -1.4222 -1.3480 -1.4956
 2139TIP3    H227833   5.247   0.922  13.024  0.6290  0.8189 -0.2902
 2140TIP3   OH227834   3.252   1.715   0.687  0.1040  0.1596 -0.4580
 2140TIP3    H127835   3.288   1.707   0.599  2.2255 -1.3042  0.4948
 2140TIP3    H227836   3.326   1.696   0.745 -1.4151  0.4266  1.6407
 2141TIP3   OH227837   4.643   5.641   0.583  0.5769 -0.2550  0.6159
 2141TIP3    H127838   4.643   5.655   0.678 -1.6208  1.2647  0.4250
 2141TIP3    H227839   4.672   5.725   0.547 -0.7173 -0.1242 -0.1271
 2142TIP3   OH227840   1.296   5.895  11.038  0.4507 -0.1351 -0.1094
 2142TIP3    H127841   1.344   5.972  11.068 -2.0761  1.4184  0.0550
 2142TIP3    H227842   1.266   5.918  10.950  0.4679 -1.3113 -0.4330
 2143TIP3   OH227843   0.845   4.794   1.283 -0.1311 -0.3476  0.0198
 2143TIP3    H127844   0.771   4.809   1.225 -1.6063 -0.9658  1.6738
 2143TIP3    H227845   0.873   4.704   1.264 -0.4330 -0.4522  0.0711
 2144TIP3   OH227846   1.175   0.827  15.993  0.2644 -0.1426 -0.2064
 2144TIP3    H127847   1.131   0.874  15.922 -0.0657  1.1669  0.8511
 2144TIP3    H227848   1.137   0.739  15.991  0.0276 -0.0126 -1.4437
 2145TIP3   OH227849   4.055   1.144  10.241  0.0761  0.2095 -0.3995
 2145TIP3    H127850   4.024   1.222  10.288 -0.6581 -0.7698  0.7854
 2145TIP3    H227851   4.117   1.178  10.176  0.1784  1.7331  0.4600
 2146TIP3   OH227852   6.581   4.374  16.202  0.2458 -0.6245  0.0504
 2146TIP3    H127853   6.519   4.301  16.210 -0.2367 -0.5465 -2.6419
 2146TIP3    H227854   6.529   4.451  16.227 -0.2982 -0.7591 -0.6409
 2147TIP3   OH227855   0.167   2.958   5.996  0.0902 -0.2805 -0.3253
 2147TIP3    H127856   0.083   2.926   5.963  0.3588 -0.2522 -1.0403
 2147TIP3    H227857   0.149   3.048   6.022 -0.2287 -0.4384  0.0143
 2148TIP3   OH227858   5.117   2.782  16.821 -0.3693 -0.0460 -0.0488
 2148TIP3    H127859   5.054   2.788  16.893 -0.2899  0.3764 -0.0098
 2148TIP3    H227860   5.195   2.828  16.853 -0.5566  0.6962 -0.6329
 2149TIP3   OH227861   2.435   0.453   5.042 -0.4412  0.7498 -0.3037
 2149TIP3    H127862   2.484   0.443   5.124 -1.6387 -0.6729  0.2658
 2149TIP3    H227863   2.391   0.538   5.051  2.7761  2.5903 -1.3183
 2150TIP3   OH227864   6.692   2.551  10.975  0.0725  0.3349 -0.1978
 2150TIP3    H127865   6.692   2.529  10.882  1.0172  2.3313 -0.7000
 2150TIP3    H227866   6.783   2.539  11.003  0.1900  1.6099 -0.0086
 2151TIP3   OH227867   3.985   0.852   2.065  0.0980 -0.4415 -0.3662
 2151TIP3    H127868   4.000   0.758   2.066  1.0082 -0.3013 -0.5367
 2151TIP3    H227869   3.996   0.877   1.973  0.0050 -0.1413 -0.2961
 2152TIP3   OH227870   4.638   3.301   5.498  0.5315  0.3467  0.2470
 2152TIP3    H127871   4.544   3.306   5.480  0.9767 -0.1218 -2.5148
 2152TIP3    H227872   4.663   3.392   5.517 -0.6656  0.2924  2.2730
 2153TIP3   OH227873   0.832   4.009  12.849  0.0990  0.3182 -0.3065
 2153TIP3    H127874   0.737   4.007  12.839  0.2344  0.5591 -1.7325
 2153TIP3    H227875   0.863   3.930  12.806  0.5511  0.2619  0.1143
 2154TIP3   OH227876   5.897   3.507   2.784 -0.3223 -0.0847  0.0146
 2154TIP3    H127877   5.988   3.479   2.794 -0.2142  0.2783  0.0634
 2154TIP3    H227878   5.868   3.465   2.703  0.2040  0.6068 -0.5424
 2155TIP3   OH227879   0.059   6.681  11.291  0.1756  0.2349 -0.1527
 2155TIP3    H127880  -0.016   6.740  11.289 -0.5864 -0.7917 -2.5464
 2155TIP3    H227881   0.025   6.600  11.329  0.6984  0.5969  1.1076
 2156TIP3   OH227882   6.327   2.227   6.296  0.0490 -0.0586 -0.2239
 2156TIP3    H127883   6.417   2.222   6.264 -0.3711 -0.3926 -1.3592
 2156TIP3    H227884   6.302   2.319   6.284  0.4085  0.1552  0.5920
 2157TIP3   OH227885   4.335   2.046  15.148  0.1766 -0.0240  0.0997
 2157TIP3    H127886   4.291   1.986  15.208 -0.7016  1.1598  0.6830
 2157TIP3    H227887   4.292   2.032  15.064 -1.2718  1.0149  0.6337
 2158TIP3   OH227888   3.843   1.918  11.963 -0.1122  0.0136  0.6904
 2158TIP3    H127889   3.875   1.852  11.901  0.2484 -0.5037  1.4229
 2158TIP3    H227890   3.895   1.996  11.943  0.2202 -0.2434  0.5506
 2159TIP3   OH227891   0.153   5.959   5.739  0.0667  0.1560  0.2977
 2159TIP3    H127892   0.089   5.991   5.803 -1.7484 -2.6934 -0.0192
 2159TIP3    H227893   0.125   5.998   5.656  0.1670  0.8022  0.5598
 2160TIP3   OH227894   5.194   1.084   2.701 -0.4865 -0.3275 -0.0362
 2160TIP3    H127895   5.188   1.163   2.647 -0.5150  0.2590  0.8098
 2160TIP3    H227896   5.148   1.017   2.651  0.4791 -0.0898 -1.2649
 2161TIP3   OH227897   5.578   5.098   0.509 -0.2876  0.2492 -0.4909
 2161TIP3    H127898   5.633   5.120   0.584 -0.5297  2.3819 -0.9066
 2161TIP3    H227899   5.491   5.085   0.546  0.2159 -1.9964  0.0094
 2162TIP3   OH227900   3.604   3.068   2.727  0.2695  0.4358  0.8760
 2162TIP3    H127901   3.554   3.144   2.697 -0.3703 -0.2598  0.1497
 2162TIP3    H227902   3.549   2.993   2.706 -0.1999 -0.1065  3.7747
 2163TIP3   OH227903   3.797   2.952  16.037 -0.3386 -0.7549  0.7128
 2163TIP3    H127904   3.791   2.859  16.019  0.2806 -0.8851  1.1784
 2163TIP3    H227905   3.708   2.985  16.025 -0.0695 -0.9227 -2.0457
 2164TIP3   OH227906   0.123   3.093   4.060  0.7453 -0.0132  0.1237
 2164TIP3    H127907   0.030   3.112   4.072  0.8223  1.4493 -1.3791
 2164TIP3    H227908   0.126   3.029   3.989  0.9243  0.4074 -0.2486
 2165TIP3   OH227909   6.212   5.183  12.802  0.1670  0.7619 -0.6463
 2165TIP3    H127910   6.127   5.219  12.779 -0.0795 -1.1687 -3.0260
 2165TIP3    H227911   6.216   5.189  12.897 -1.8619  2.5104 -0.6356
 2166TIP3   OH227912   5.581   3.999   5.897 -0.2967  0.0129  0.5869
 2166TIP3    H127913   5.496   4.042   5.906 -0.2913  0.2709 -0.5082
 2166TIP3    H227914   5.588   3.941   5.973 -1.7984 -0.6149  0.2450
 2167TIP3   OH227915   6.767   1.067  15.297  0.5523 -0.8147 -0.1739
 2167TIP3    H127916   6.855   1.040  15.320  0.6788 -1.0202 -0.8918
 2167TIP3    H227917   6.760   1.051  15.202  0.3267  0.7879 -0.4509
 2168TIP3   OH227918   4.853   3.687  15.756  0.5217 -0.5916  0.0836
 2168TIP3    H127919   4.907   3.701  15.834  1.6113  1.7089 -1.0392
 2168TIP3    H227920   4.776   3.742  15.771  0.7366 -0.1426 -0.4631
 2169TIP3   OH227921   0.329   0.999  14.145  0.3802 -0.5815 -0.0192
 2169TIP3    H127922   0.237   1.023  14.137  0.9404  2.0794  1.1185
 2169TIP3    H227923   0.328   0.908  14.175 -1.8412 -0.9204 -1.0219
 2170TIP3   OH227924   1.629   6.272  12.235 -0.2234  0.0594  0.6194
 2170TIP3    H127925   1.587   6.213  12.172 -3.0499  0.7208  1.8149
 2170TIP3    H227926   1.669   6.214  12.299  0.9544 -0.5934 -0.6771
 2171TIP3   OH227927   5.807   6.331  16.765 -0.3417  0.5185 -0.5142
 2171TIP3    H127928   5.822   6.243  16.730 -0.4520  0.0047  0.7201
 2171TIP3    H227929   5.734   6.365  16.712 -2.1146 -1.1597  0.7567
 2172TIP3   OH227930   2.898   3.288  11.905 -0.5519 -0.2592  0.0627
 2172TIP3    H127931   2.994   3.283  11.907 -0.5256  0.4362  0.6954
 2172TIP3    H227932   2.879   3.369  11.857 -0.8163 -0.0308  0.5573
 2173TIP3   OH227933   2.278   3.518   5.963  0.3608 -0.1253  0.0797
 2173TIP3    H127934   2.292   3.594   5.905  1.6194  0.3004  0.9133
 2173TIP3    H227935   2.331   3.538   6.041 -0.9705 -0.8934  1.1967
 2174TIP3   OH227936   6.501   1.064  13.685 -0.2434  0.5272 -0.3849
 2174TIP3    H127937   6.493   0.969  13.680 -2.4331  0.6991 -0.5943
 2174TIP3    H227938   6.466   1.086  13.772 -1.1559  1.2699 -0.9383
 2175TIP3   OH227939   0.209   2.959   0.112  0.2881 -0.4134 -0.3396
 2175TIP3    H127940   0.244   3.035   0.064 -0.2051  1.5398  2.2609
 2175TIP3    H227941   0.184   2.995   0.197  0.7330 -3.7075  1.2282
 2176TIP3   OH227942   4.116   0.880  10.046  0.0769  0.5826 -0.0667
 2176TIP3    H127943   4.122   0.865  10.141  1.4267 -0.8103 -0.3518
 2176TIP3    H227944   4.085   0.970  10.038 -1.9686  0.0847  1.7036
 2177TIP3   OH227945   5.203   6.651   3.103 -0.0889  0.0996 -0.7838
 2177TIP3    H127946   5.128   6.593   3.092  0.5160 -0.9117  0.3372
 2177TIP3    H227947   5.236   6.632   3.191  0.4071  1.8017 -0.5947
 2178TIP3   OH227948   5.575   6.234  11.161  0.0002  0.2810  0.1208
 2178TIP3    H127949   5.572   6.171  11.233  1.8387 -0.0931 -0.0892
 2178TIP3    H227950   5.643   6.199  11.102  0.4188  1.9856 -0.4436
 2179TIP3   OH227951   6.492   4.403   0.421  0.2224 -0.0680 -0.0798
 2179TIP3    H127952   6.465   4.437   0.336  1.0610  1.1653  0.1353
 2179TIP3    H227953   6.457   4.314   0.424 -0.4686  0.1579 -1.3915
 2180TIP3   OH227954   6.437   1.280   4.176 -0.4716 -0.0834  0.0557
 2180TIP3    H127955   6.506   1.305   4.114  0.8666  1.3821  2.0849
 2180TIP3    H227956   6.447   1.185   4.184  2.3441  0.2509  1.4264
 2181TIP3   OH227957   3.207   5.750  14.003  0.5402 -0.0835 -0.2941
 2181TIP3    H127958   3.127   5.711  14.039  0.5869 -0.2386 -0.3596
 2181TIP3    H227959   3.224   5.826  14.060  0.2536  0.0484 -0.3814
 2182TIP3   OH227960   4.657   0.551   0.894 -0.0027  0.1885 -0.1373
 2182TIP3    H127961   4.620   0.489   0.830 -1.7842  0.0638  0.9772
 2182TIP3    H227962   4.750   0.555   0.872 -0.2381 -1.3136 -1.5400
 2183TIP3   OH227963   5.692   3.548   6.038  0.2600  0.7222 -0.0728
 2183TIP3    H127964   5.648   3.463   6.044  0.2508  0.6076 -1.5673
 2183TIP3    H227965   5.734   3.559   6.123 -2.7469  0.9115  1.4344
 2184TIP3   OH227966   1.347   0.497   1.773 -0.3422  0.5368  0.2750
 2184TIP3    H127967   1.296   0.574   1.797  1.4842  1.4864  1.1898
 2184TIP3    H227968   1.429   0.532   1.739  0.2140 -0.9926  0.0055
 2185TIP3   OH227969   0.332   2.959   3.665  0.6547 -0.1076  0.4108
 2185TIP3    H127970   0.278   2.968   3.743 -1.1112 -1.8460 -0.5389
 2185TIP3    H227971   0.414   2.921   3.696 -0.5214 -2.0009  1.2817
 2186TIP3   OH227972   3.701   5.859  14.939  0.3301 -0.3341  0.2078
 2186TIP3    H127973   3.637   5.874  15.008  1.1464 -0.2521  0.9531
 2186TIP3    H227974   3.704   5.942  14.891 -0.2318 -0.3908  0.0655
 2187TIP3   OH227975   4.235   6.157  10.859  0.8342 -0.3985 -0.3600
 2187TIP3    H127976   4.157   6.185  10.908  1.2581  0.1649 -0.0054
 2187TIP3    H227977   4.200   6.101  10.789  0.2416 -1.3703  0.7002
 2188TIP3   OH227978   1.258   2.530   5.583 -0.0293 -0.0158 -0.5404
 2188TIP3    H127979   1.257   2.445   5.540  1.8557 -0.5956  0.5259
 2188TIP3    H227980   1.343   2.536   5.625 -0.8745  1.5734  1.0636
 2189TIP3   OH227981   2.507   0.833  12.170  0.5301  0.4539 -0.0142
 2189TIP3    H127982   2.469   0.791  12.247  0.6518  1.1872  0.4569
 2189TIP3    H227983   2.602   0.825  12.183  0.5612  1.4228  0.3950
 2190TIP3   OH227984   1.766   1.606  15.897  0.1899 -0.2762  0.0414
 2190TIP3    H127985   1.819   1.621  15.818 -1.9691  1.1423 -1.1815
 2190TIP3    H227986   1.796   1.673  15.959 -0.5205  0.9063 -0.8586
 2191TIP3   OH227987   1.552   3.890   3.660  0.0121 -0.2271 -0.4577
 2191TIP3    H127988   1.646   3.905   3.660 -0.0889  0.4374 -0.7057
 2191TIP3    H227989   1.524   3.915   3.571 -0.5763  0.7730 -0.0041
 2192TIP3   OH227990   0.891   6.125  16.907  0.7488 -0.6189 -0.3591
 2192TIP3    H127991   0.886   6.035  16.941 -1.0983 -0.3797  0.0316
 2192TIP3    H227992   0.964   6.164  16.956  0.7433 -1.5204  0.3970
 2193TIP3   OH227993   5.227   1.348  13.943  0.6862  0.7697 -0.6665
 2193TIP3    H127994   5.148   1.341  13.996  0.5996 -0.9150 -0.9774
 2193TIP3    H227995   5.297   1.364  14.006  0.8404 -2.8981  0.2203
 2194TIP3   OH227996   1.437   0.993  16.278  0.1269 -0.0096  0.1781
 2194TIP3    H127997   1.434   0.969  16.185 -1.5359 -0.2588  0.2882
 2194TIP3    H227998   1.491   0.925  16.319  0.1251 -0.3896 -0.4499
 2195TIP3   OH227999   1.168   2.442  13.653  0.0761  0.1897  0.7171
 2195TIP3    H128000   1.210   2.387  13.586 -3.3335 -2.5384  0.6402
 2195TIP3    H228001   1.131   2.515  13.605 -0.0132 -0.3340 -0.0186
 2196TIP3   OH228002   1.626   4.114  14.987  0.2582 -0.4979  0.1120
 2196TIP3    H128003   1.660   4.176  14.923  0.4016 -1.9858 -1.2874
 2196TIP3    H228004   1.531   4.113  14.972  0.2282 -0.4375  0.2955
 2197TIP3   OH228005   2.447   2.012   2.249 -0.4309 -0.0306 -0.0846
 2197TIP3    H128006   2.364   1.968   2.270 -1.3356  1.5046 -0.3733
 2197TIP3    H228007   2.461   1.994   2.156 -0.8524  0.3761 -0.2272
 2198TIP3   OH228008   5.929   5.858  15.190 -0.3747 -0.8329 -0.0024
 2198TIP3    H128009   5.857   5.920  15.205 -0.9650 -1.1995 -1.3133
 2198TIP3    H228010   5.949   5.867  15.097  1.5836 -0.4139  0.4305
 2199TIP3   OH228011   4.324   3.317   2.850  0.2257  0.4543  0.2059
 2199TIP3    H128012   4.374   3.396   2.868  1.3262  0.1649 -1.5019
 2199TIP3    H228013   4.374   3.271   2.783 -1.1138 -1.0179  0.1734
 2200TIP3   OH228014   5.332   0.576   1.964 -0.0638  0.0603 -0.2015
 2200TIP3    H128015   5.399   0.635   1.930 -1.4107  1.2929 -0.7550
 2200TIP3    H228016   5.345   0.576   2.058 -1.2994  2.8025 -0.0017
 2201TIP3   OH228017   2.601   1.420   1.738  0.3044  0.0495 -0.0746
 2201TIP3    H128018   2.531   1.466   1.692  1.1333  0.9289 -0.4596
 2201TIP3    H228019   2.615   1.340   1.687 -1.3064 -0.7702  0.7336
 2202TIP3   OH228020   2.413   5.761   2.629 -1.0020 -0.1802 -0.4522
 2202TIP3    H128021   2.451   5.835   2.582 -1.0970  0.7952  0.9721
 2202TIP3    H228022   2.478   5.739   2.695 -1.0039 -1.3454 -0.8348
 2203TIP3   OH228023   2.709   1.888  15.488 -0.2320  0.2241 -0.5553
 2203TIP3    H128024   2.745   1.813  15.439 -0.4209  0.7836 -1.5630
 2203TIP3    H228025   2.784   1.945  15.503 -0.0292 -0.2999  0.4803
 2204TIP3   OH228026   4.614   5.453  15.676  0.6355  0.0880 -0.0970
 2204TIP3    H128027   4.700   5.427  15.643  0.6297 -1.1336  0.8096
 2204TIP3    H228028   4.615   5.427  15.769  0.8261  3.8414  1.0239
 2205TIP3   OH228029   5.712   1.377   5.086 -0.5145  0.2127 -0.7452
 2205TIP3    H128030   5.760   1.306   5.043 -0.5421  0.2981 -0.9216
 2205TIP3    H228031   5.778   1.446   5.099 -0.2328 -0.2723  0.4393
 2206TIP3   OH228032   2.248   1.564   1.313 -0.0918 -0.6235 -0.1107
 2206TIP3    H128033   2.275   1.565   1.221 -1.3993 -2.3273 -0.5503
 2206TIP3    H228034   2.302   1.496   1.353  0.9545  0.5755  0.5664
 2207TIP3   OH228035   3.378   2.746  15.126 -0.2745  0.1740 -0.2071
 2207TIP3    H128036   3.289   2.776  15.109 -1.1606 -2.6195 -0.8251
 2207TIP3    H228037   3.403   2.699  15.047  1.1841 -0.3258  0.5352
 2208TIP3   OH228038   1.442   5.357  16.675 -0.3948  0.0052 -0.7621
 2208TIP3    H128039   1.504   5.426  16.698 -0.4142 -0.9498  2.4032
 2208TIP3    H228040   1.358   5.401  16.668 -0.5124  0.2645  1.8433
 2209TIP3   OH228041   3.521   4.438   0.207 -0.1377  0.7563  0.0870
 2209TIP3    H128042   3.540   4.345   0.221 -1.6537  0.4680  0.3059
 2209TIP3    H228043   3.571   4.461   0.129  2.7500  0.5774  1.8047
 2210TIP3   OH228044   2.933   4.414  17.144 -0.5092  0.3721 -0.1245
 2210TIP3    H128045   2.903   4.349  17.208 -0.2077 -0.4505 -0.8086
 2210TIP3    H228046   3.029   4.409  17.147 -0.4702  1.2244  0.2594
 2211TIP3   OH228047   0.832   4.637   1.650 -0.2431 -0.1237 -0.2105
 2211TIP3    H128048   0.875   4.721   1.668 -0.4818  0.6327 -2.9417
 2211TIP3    H228049   0.879   4.574   1.705  0.5260  1.6306  1.2040
 2212TIP3   OH228050   1.060   6.754  11.163  0.0298  0.2228 -0.0506
 2212TIP3    H128051   0.980   6.765  11.215  0.0934  0.4832 -0.0081
 2212TIP3    H228052   1.053   6.820  11.094 -1.3467 -1.8653 -1.9926
 2213TIP3   OH228053   2.593   3.145  13.622  0.2292 -0.5350  0.3169
 2213TIP3    H128054   2.601   3.062  13.576  0.2937 -1.4293  1.8799
 2213TIP3    H228055   2.656   3.203  13.580  1.3507 -1.7713  0.2550
 2214TIP3   OH228056   3.525   6.010  13.643  0.7275 -0.0905  0.2467
 2214TIP3    H128057   3.553   6.098  13.669  2.2703 -0.8283  1.1822
 2214TIP3    H228058   3.544   5.955  13.719 -0.6523 -1.1672 -0.1553
 2215TIP3   OH228059   5.589   4.266  15.121  0.2729 -0.0789 -0.2954
 2215TIP3    H128060   5.527   4.201  15.154 -2.5896  2.2162 -0.9261
 2215TIP3    H228061   5.549   4.299  15.041  1.2212  3.0316  0.4400
 2216TIP3   OH228062   2.108   4.222  11.210  0.3908  0.6195  0.1392
 2216TIP3    H128063   2.180   4.186  11.261  1.1004  0.7062 -0.7859
 2216TIP3    H228064   2.117   4.182  11.123 -0.3462  1.0547 -0.1479
 2217TIP3   OH228065   1.256   6.760  12.907 -0.5976  0.0128 -0.0109
 2217TIP3    H128066   1.164   6.734  12.909 -0.5052 -0.3158 -0.0117
 2217TIP3    H228067   1.272   6.787  12.817 -0.4758 -0.7310 -0.2163
 2218TIP3   OH228068   6.164   0.307  15.787 -0.1176 -0.2052 -0.7069
 2218TIP3    H128069   6.197   0.335  15.702  0.2660  1.1919 -0.1196
 2218TIP3    H228070   6.241   0.312  15.845 -1.1567  2.5237  0.5398
 2219TIP3   OH228071   0.253   3.224   0.522  0.0389  0.3694  0.1868
 2219TIP3    H128072   0.341   3.260   0.533  0.3902 -0.9715  2.0490
 2219TIP3    H228073   0.226   3.200   0.610 -2.1814  0.6816 -0.3805
 2220TIP3   OH228074   0.416   6.227   4.339  0.2512  0.2350  0.6317
 2220TIP3    H128075   0.372   6.180   4.267  0.0191  1.6375 -0.1579
 2220TIP3    H228076   0.504   6.188   4.342  1.3099  2.1651 -2.4274
 2221TIP3   OH228077   4.584   6.675  13.237 -0.3932  0.4281  0.2822
 2221TIP3    H128078   4.634   6.621  13.175 -0.3213 -1.2250  1.7674
 2221TIP3    H228079   4.509   6.621  13.260 -2.6260  2.6786 -1.4835
 2222TIP3   OH228080   4.199   5.371  16.523  0.4383  0.4425  0.4631
 2222TIP3    H128081   4.185   5.334  16.436  2.1349  0.8889 -0.0027
 2222TIP3    H228082   4.146   5.451  16.524  0.2988  0.3587 -0.0862
 2223TIP3   OH228083   1.621   5.494   0.779  0.0925  0.6386 -0.0309
 2223TIP3    H128084   1.676   5.492   0.858 -0.5098  1.4627  0.4142
 2223TIP3    H228085   1.610   5.587   0.760 -3.1148  0.5927  1.2917
 2224TIP3   OH228086   3.420   6.135   0.753  0.2325 -0.4289  0.0961
 2224TIP3    H128087   3.512   6.156   0.737  0.2120 -0.4138 -0.0043
 2224TIP3    H228088   3.381   6.129   0.665 -0.0997  0.6300  0.1625
 2225TIP3   OH228089   1.580   4.474   2.962  0.2554 -1.1531  0.0605
 2225TIP3    H128090   1.673   4.467   2.986  0.5362  0.0158 -0.5900
 2225TIP3    H228091   1.568   4.408   2.894  0.7744 -0.8949 -0.2917
 2226TIP3   OH228092   0.989   2.645  15.847  0.0045 -0.0757 -0.0560
 2226TIP3    H128093   0.945   2.588  15.911  0.9582 -1.4563 -0.6059
 2226TIP3    H228094   0.943   2.630  15.765  0.8952 -0.8447 -0.4306
 2227TIP3   OH228095   5.823   2.333  14.576  0.0448  0.2100  0.5596
 2227TIP3    H128096   5.816   2.343  14.481 -1.5596  1.1064  0.7501
 2227TIP3    H228097   5.855   2.244  14.589 -0.2184 -0.0974 -0.8161
 2228TIP3   OH228098   2.082   5.970  12.955  0.1820  0.0325  0.4615
 2228TIP3    H128099   2.142   6.042  12.937  0.8945 -0.9362 -1.1874
 2228TIP3    H228100   2.005   6.011  12.994  1.4249  1.4260  1.5092
 2229TIP3   OH228101   2.534   2.400  15.238 -0.4902  0.6299 -0.0039
 2229TIP3    H128102   2.444   2.430  15.252 -1.1626 -0.4414 -1.9025
 2229TIP3    H228103   2.527   2.334  15.170  1.7419  0.4574 -0.0974
 2230TIP3   OH228104   1.353   0.112  15.086  0.0385 -0.9239 -0.0943
 2230TIP3    H128105   1.347   0.067  15.170 -0.3474  1.0183  0.9561
 2230TIP3    H228106   1.441   0.149  15.085  0.6257 -2.2965 -1.2853
 2231TIP3   OH228107   0.148   6.431  16.512 -0.2874  0.1078 -0.2831
 2231TIP3    H128108   0.078   6.374  16.545  0.8615 -1.2293 -0.0878
 2231TIP3    H228109   0.141   6.425  16.417  0.2726 -0.9440 -0.2670
 2232TIP3   OH228110   2.308   4.804   6.310 -0.4123  0.4129  0.1203
 2232TIP3    H128111   2.341   4.807   6.400 -1.7835 -0.0659  0.6508
 2232TIP3    H228112   2.371   4.749   6.264  1.1156  1.8617  0.4196
 2233TIP3   OH228113   3.074   4.813  15.287 -0.3723 -0.3428  0.0962
 2233TIP3    H128114   2.985   4.833  15.318 -0.5124 -1.0415  0.1563
 2233TIP3    H228115   3.073   4.839  15.195 -0.5479 -0.0626  0.1767
 2234TIP3   OH228116   3.582   0.808  11.972  0.3268  0.1879  0.0297
 2234TIP3    H128117   3.608   0.716  11.977 -0.0309  0.0137 -1.2035
 2234TIP3    H228118   3.656   0.851  11.929 -0.1917  0.1808 -0.8917
 2235TIP3   OH228119   6.127   0.581  14.338  0.1916 -0.1700  0.0096
 2235TIP3    H128120   6.139   0.645  14.268 -1.1954  0.4763  0.3440
 2235TIP3    H228121   6.151   0.498  14.299  1.1988  0.4374 -0.6844
 2236TIP3   OH228122   1.952   0.425   0.060  0.3431 -0.3098 -0.0811
 2236TIP3    H128123   1.930   0.366  -0.013  0.9460 -1.7249  0.8467
 2236TIP3    H228124   2.048   0.419   0.067  0.3795  0.5900  0.1862
 2237TIP3   OH228125   6.712   1.280   1.991 -0.0343 -0.7302 -0.0048
 2237TIP3    H128126   6.724   1.194   1.951 -0.2619 -1.2003  0.9130
 2237TIP3    H228127   6.667   1.262   2.074  1.5249  0.0808  1.0550
 2238TIP3   OH228128   5.604   2.926  11.684  0.4086 -0.3133 -0.5254
 2238TIP3    H128129   5.528   2.955  11.735 -0.2397 -3.1230  0.1476
 2238TIP3    H228130   5.569   2.866  11.619  1.6875  0.7562 -2.2494
 2239TIP3   OH228131   0.899   3.925  16.835  0.1750 -0.4887  0.2216
 2239TIP3    H128132   0.946   4.009  16.845 -0.9303  0.0487  0.9926
 2239TIP3    H228133   0.855   3.913  16.919 -1.8454 -0.5271 -0.8297
 2240TIP3   OH228134   1.603   1.189  16.449 -0.4701 -0.3290 -0.4146
 2240TIP3    H128135   1.555   1.118  16.406 -0.1659  0.0487 -1.3873
 2240TIP3    H228136   1.624   1.250  16.378  0.2029  0.2081  0.2414
 2241TIP3   OH228137   5.369   3.221  15.963  0.5815 -0.5969  0.0856
 2241TIP3    H128138   5.408   3.183  15.884  0.5165  0.8752 -0.6687
 2241TIP3    H228139   5.335   3.146  16.011  0.6938 -1.5169 -1.2411
 2242TIP3   OH228140   0.337   4.694  11.821 -0.7993  0.3499  0.7125
 2242TIP3    H128141   0.317   4.755  11.749  2.1138  0.9351  0.3249
 2242TIP3    H228142   0.316   4.608  11.786 -0.7532  0.7566 -0.3487
 2243TIP3   OH228143   5.408   4.942   5.080  0.4938 -0.2666  0.4085
 2243TIP3    H128144   5.388   5.022   5.032  0.4660 -0.8626 -0.5883
 2243TIP3    H228145   5.356   4.948   5.160  0.5994  0.7674  0.4134
 2244TIP3   OH228146   5.943   2.808   3.855 -0.0043 -0.4686 -0.0676
 2244TIP3    H128147   5.905   2.885   3.813 -0.9074 -1.6604 -1.4656
 2244TIP3    H228148   5.873   2.742   3.853  0.6034 -1.1868  1.5147
 2245TIP3   OH228149   1.189   0.662   3.322 -0.2103  0.2161  0.2772
 2245TIP3    H128150   1.237   0.666   3.239 -1.0860 -0.9897 -0.3035
 2245TIP3    H228151   1.171   0.753   3.344  1.2999  0.6136 -0.1125
 2246TIP3   OH228152   1.977   3.850  15.567  0.0458 -0.6366  0.3022
 2246TIP3    H128153   2.064   3.822  15.595  1.6928 -0.5170 -4.2962
 2246TIP3    H228154   1.927   3.768  15.563  0.5849 -1.0023  0.7596
 2247TIP3   OH228155   5.612   5.619   4.626 -0.1788  0.0632  0.3859
 2247TIP3    H128156   5.599   5.526   4.606 -1.2502  0.9172 -3.2077
 2247TIP3    H228157   5.689   5.644   4.576 -1.3263  1.6859 -0.5880
 2248TIP3   OH228158   1.974   0.401   1.926  0.6316  0.4195 -0.1687
 2248TIP3    H128159   1.879   0.408   1.923  0.3923 -1.3181  2.2102
 2248TIP3    H228160   2.004   0.492   1.934 -0.8274  0.9755 -0.8242
 2249TIP3   OH228161   3.803   4.788  15.333 -0.1544  0.4153  0.1714
 2249TIP3    H128162   3.826   4.879  15.352  0.4921  0.7737 -2.1377
 2249TIP3    H228163   3.778   4.789  15.240 -0.3590 -1.7205  0.1855
 2250TIP3   OH228164   0.605   1.367  14.650  0.6228 -0.5863 -0.1429
 2250TIP3    H128165   0.628   1.277  14.628 -0.1790 -0.9080  0.3252
 2250TIP3    H228166   0.610   1.414  14.566 -1.8553 -1.6852 -0.9792
 2251TIP3   OH228167   0.213   1.055  15.642 -0.5752 -0.6648  0.1227
 2251TIP3    H128168   0.238   1.035  15.552 -1.4104 -0.0553 -0.2459
 2251TIP3    H228169   0.159   1.134  15.636 -0.5912 -0.5787  1.1638
 2252TIP3   OH228170   4.659   0.418  15.686  0.2457  0.0330 -0.4081
 2252TIP3    H128171   4.635   0.460  15.603  0.3179  1.3679  0.2387
 2252TIP3    H228172   4.577   0.416  15.735  0.3359 -0.2061 -0.2686
 2253TIP3   OH228173   6.635   1.226   6.458  0.1045 -0.1367  0.1831
 2253TIP3    H128174   6.553   1.264   6.489  0.5926  2.4822 -1.5909
 2253TIP3    H228175   6.692   1.225   6.535 -0.8458  0.1777  0.8926
 2254TIP3   OH228176   5.186   3.891   2.964 -0.4162 -0.3543 -0.3659
 2254TIP3    H128177   5.141   3.869   3.046 -0.4984 -0.6651 -0.4918
 2254TIP3    H228178   5.248   3.959   2.988  1.0564 -1.9204  0.3941
 2255TIP3   OH228179   3.905   0.236   2.431  0.3175 -0.2701 -0.2079
 2255TIP3    H128180   3.863   0.158   2.465 -0.7446  1.0591  1.6418
 2255TIP3    H228181   3.992   0.237   2.470  0.0629 -0.1442  0.3536
 2256TIP3   OH228182   3.598   3.934  12.943  0.6766 -0.4253 -0.0175
 2256TIP3    H128183   3.540   3.969  12.876  1.7046 -0.5626 -0.9968
 2256TIP3    H228184   3.680   3.982  12.931  1.6478 -2.1601 -0.4569
 2257TIP3   OH228185   3.023   0.526   0.981 -0.2704  0.2716  0.0771
 2257TIP3    H128186   3.088   0.479   0.928  1.1298  1.6329  0.5392
 2257TIP3    H228187   2.975   0.580   0.917 -2.4235 -2.2774 -0.5756
 2258TIP3   OH228188   0.738   6.210   6.377 -0.1797  0.0221 -0.1285
 2258TIP3    H128189   0.740   6.119   6.347  0.2556 -0.7422  2.0841
 2258TIP3    H228190   0.649   6.222   6.413  0.0821  0.1411  0.4971
 2259TIP3   OH228191   1.053   3.070   3.669  0.6244  0.0381 -0.0181
 2259TIP3    H128192   0.977   3.014   3.657 -0.7102  1.4674  1.5532
 2259TIP3    H228193   1.066   3.113   3.584  1.7270 -2.6481 -1.2747
 2260TIP3   OH228194   6.216   1.442  11.360 -0.3888  0.0923 -0.0438
 2260TIP3    H128195   6.175   1.513  11.410 -0.4777 -0.1816  0.2738
 2260TIP3    H228196   6.282   1.406  11.419  0.9257  1.0855 -0.8604
 2261TIP3   OH228197   6.164   6.605   3.044  0.3666  0.1347  0.4577
 2261TIP3    H128198   6.139   6.686   3.089  1.9457  1.3133 -0.7132
 2261TIP3    H228199   6.259   6.613   3.033  0.7576 -2.5205  1.5470
 2262TIP3   OH228200   4.980   1.250   2.194 -0.0345 -0.2453  0.5443
 2262TIP3    H128201   5.072   1.256   2.217 -0.3792  0.4796  1.7671
 2262TIP3    H228202   4.934   1.254   2.277 -1.1938 -0.2212 -0.0833
 2263TIP3   OH228203   2.599   3.763  12.850  0.2664 -0.5475 -0.5403
 2263TIP3    H128204   2.536   3.739  12.918  1.4790 -1.4099  0.2985
 2263TIP3    H228205   2.612   3.682  12.800 -1.0795  0.2363 -2.1986
 2264TIP3   OH228206   2.636   0.896   5.134  0.2870  0.3490 -0.9996
 2264TIP3    H128207   2.591   0.873   5.215  0.2782  0.7371 -0.8927
 2264TIP3    H228208   2.686   0.818   5.111  0.7291  0.4300 -0.3247
 2265TIP3   OH228209   2.856   4.821   3.491 -0.0332  0.3164  0.0162
 2265TIP3    H128210   2.778   4.775   3.522 -0.7452 -0.4171 -2.6534
 2265TIP3    H228211   2.822   4.884   3.427  1.2743  2.3064  1.2409
 2266TIP3   OH228212   6.315   1.519  12.088  0.1350  0.1429 -0.1502
 2266TIP3    H128213   6.411   1.520  12.085  0.1952 -1.5160  0.5422
 2266TIP3    H228214   6.294   1.510  12.181 -0.6923  0.4715 -0.3061
 2267TIP3   OH228215   6.473   0.336  12.959 -0.2735 -0.1371  0.3224
 2267TIP3    H128216   6.405   0.326  12.892  1.4744  0.9037 -1.6919
 2267TIP3    H228217   6.475   0.430  12.977 -1.0413 -0.4689  2.1998
 2268TIP3   OH228218   1.531   5.234  11.387  0.5302 -0.0638  0.2269
 2268TIP3    H128219   1.594   5.306  11.399  0.2438  0.2777 -0.2861
 2268TIP3    H228220   1.570   5.181  11.318  0.7054 -0.3608  0.5535
 2269TIP3   OH228221   3.169   5.243  16.222  0.1069 -0.4208 -0.6109
 2269TIP3    H128222   3.076   5.223  16.216  0.0729 -0.2921 -0.5004
 2269TIP3    H228223   3.174   5.319  16.280  0.2018  0.1563 -1.3647
 2270TIP3   OH228224   2.129   1.143  14.298 -0.2514  0.7324  0.4838
 2270TIP3    H128225   2.056   1.117  14.355 -0.1928  3.1813  1.7512
 2270TIP3    H228226   2.093   1.214  14.245  0.7354  0.8605 -0.0157
 2271TIP3   OH228227   5.367   1.889   2.317 -0.2723 -0.0289 -0.2274
 2271TIP3    H128228   5.329   1.947   2.382 -1.8156 -1.5052  0.2369
 2271TIP3    H228229   5.461   1.911   2.316 -0.3205  0.3758  2.0919
 2272TIP3   OH228230   6.724   2.776  13.071 -0.6451  0.2414  0.0792
 2272TIP3    H128231   6.751   2.832  12.998 -0.9123  0.5436  0.2111
 2272TIP3    H228232   6.803   2.767  13.125 -0.3762 -0.1849 -0.3707
 2273TIP3   OH228233   1.316   1.833   5.719 -0.1754 -0.5840 -0.1827
 2273TIP3    H128234   1.367   1.761   5.682 -1.4778 -1.0400 -1.1478
 2273TIP3    H228235   1.261   1.792   5.786 -1.6773 -0.7062 -1.4495
 2274TIP3   OH228236   0.937   2.214  10.745  0.4034  0.6841 -0.5259
 2274TIP3    H128237   0.936   2.145  10.678  1.5493  0.7001 -0.5695
 2274TIP3    H228238   0.941   2.295  10.694 -0.2371  0.7517 -0.4642
 2275TIP3   OH228239   1.470   2.829   3.189 -0.0979  0.8070 -0.0107
 2275TIP3    H128240   1.499   2.921   3.182 -0.1124  0.7468 -0.9285
 2275TIP3    H228241   1.527   2.791   3.256 -0.4874  1.6411  0.8039
 2276TIP3   OH228242   6.449   1.793   4.791  0.5921  0.5786  0.3089
 2276TIP3    H128243   6.493   1.876   4.774  1.4896  0.1469  0.4889
 2276TIP3    H228244   6.497   1.755   4.865  0.0850 -0.0136  0.3363
 2277TIP3   OH228245   1.898   4.777  14.811 -0.3060 -0.3690  0.1140
 2277TIP3    H128246   1.884   4.683  14.802 -0.2443 -0.1920 -2.0188
 2277TIP3    H228247   1.954   4.785  14.888 -0.4100 -2.0676  0.3882
 2278TIP3   OH228248   5.810   4.559   4.140 -0.2737 -0.4822  0.1352
 2278TIP3    H128249   5.785   4.639   4.187  1.1674 -1.5911  2.8424
 2278TIP3    H228250   5.731   4.505   4.142 -1.1543  0.6648 -1.4249
 2279TIP3   OH228251   6.397   6.621  10.945 -0.9687 -0.3268  0.0034
 2279TIP3    H128252   6.443   6.593  10.866 -0.1466  2.2381 -0.4510
 2279TIP3    H228253   6.389   6.541  10.997  1.2840 -1.4093 -1.2637
 2280TIP3   OH228254   4.108   1.755   5.140  0.1996  0.5539  0.3314
 2280TIP3    H128255   4.099   1.735   5.047 -1.0203 -0.0355  0.5677
 2280TIP3    H228256   4.038   1.705   5.182  0.4477  1.1936  1.5144
 2281TIP3   OH228257   5.111   5.183  16.675  0.6472  0.6915 -0.0407
 2281TIP3    H128258   5.055   5.105  16.664 -1.9501  2.4883  0.0354
 2281TIP3    H228259   5.198   5.152  16.651 -0.1498 -2.4856  0.8287
 2282TIP3   OH228260   3.809   5.448   2.735 -0.1431 -0.5867  0.0259
 2282TIP3    H128261   3.803   5.540   2.710 -1.1061 -0.8611 -0.7612
 2282TIP3    H228262   3.903   5.432   2.747  0.1205  0.1962 -0.9786
 2283TIP3   OH228263   4.139   0.678   0.557  0.4068 -0.6318 -0.2154
 2283TIP3    H128264   4.081   0.603   0.547  0.6127 -0.9687  0.9639
 2283TIP3    H228265   4.168   0.674   0.649  1.4280  0.1511 -0.4866
 2284TIP3   OH228266   6.440   0.563   0.241 -0.0136 -0.1132  0.0928
 2284TIP3    H128267   6.481   0.532   0.160  0.4479 -0.5737  0.4979
 2284TIP3    H228268   6.351   0.587   0.216  0.1211 -0.2771 -0.5434
 2285TIP3   OH228269   0.221   4.638   0.382 -0.4334  0.3985 -0.0438
 2285TIP3    H128270   0.312   4.660   0.362 -0.4434  0.5752  0.1011
 2285TIP3    H228271   0.224   4.546   0.410 -0.5905 -0.2180 -1.9885
 2286TIP3   OH228272   2.038   4.168   0.556  0.1936 -0.0714 -0.2667
 2286TIP3    H128273   2.011   4.234   0.492 -0.9049 -0.5283 -0.2823
 2286TIP3    H228274   2.101   4.114   0.511 -0.9178 -0.6718 -1.1176
 2287TIP3   OH228275   1.218   0.557  13.258  0.3370 -0.5038 -0.1834
 2287TIP3    H128276   1.136   0.560  13.306  1.1270  1.3498  1.0699
 2287TIP3    H228277   1.285   0.540  13.325  1.1542 -0.4345 -0.9693
 2288TIP3   OH228278   1.960   2.789  12.670 -0.1096 -0.2208  0.1768
 2288TIP3    H128279   1.945   2.821  12.580 -1.4451  0.8337  0.7550
 2288TIP3    H228280   1.882   2.737  12.690 -0.0173 -0.0800  0.8962
 2289TIP3   OH228281   2.891   3.956   2.812  0.0446  0.1754 -0.0840
 2289TIP3    H128282   2.971   3.966   2.863  0.9458 -0.0357 -1.4495
 2289TIP3    H228283   2.860   3.868   2.833 -0.0027  0.3655  0.6735
 2290TIP3   OH228284   3.461   3.155   3.753  0.2883  0.2650  0.6012
 2290TIP3    H128285   3.484   3.194   3.668 -0.0598  2.5065  1.4825
 2290TIP3    H228286   3.379   3.108   3.737 -0.0986  1.1830 -0.1803
 2291TIP3   OH228287   3.401   5.311   0.067  0.3872  0.2105  0.8468
 2291TIP3    H128288   3.306   5.304   0.083  0.2191 -0.4315 -0.3702
 2291TIP3    H228289   3.408   5.360  -0.014  0.9804 -2.0899 -0.5375
 2292TIP3   OH228290   3.680   2.131   0.235  0.4528 -0.3316 -0.4570
 2292TIP3    H128291   3.710   2.045   0.262  0.3806 -0.9695 -2.3480
 2292TIP3    H228292   3.737   2.155   0.162  0.4308  1.1907 -0.0012
 2293TIP3   OH228293   1.157   1.302  11.141 -0.5314 -0.0329 -0.2302
 2293TIP3    H128294   1.128   1.211  11.133 -1.3450  0.2543 -0.6278
 2293TIP3    H228295   1.126   1.344  11.060  0.0429  0.5438 -0.1582
 2294TIP3   OH228296   4.833   1.419  16.835 -0.1816  0.3156 -0.0307
 2294TIP3    H128297   4.910   1.370  16.865  0.9395  1.5920 -0.7890
 2294TIP3    H228298   4.868   1.487  16.778 -1.8811  0.9360 -0.3719
 2295TIP3   OH228299   2.385   4.339   5.945  0.3301  0.3066  1.1606
 2295TIP3    H128300   2.362   4.408   6.008 -0.6851  2.0049 -0.9936
 2295TIP3    H228301   2.478   4.354   5.927  0.2940  0.6734  1.2637
 2296TIP3   OH228302   1.672   4.611  13.114 -0.1437  0.3225 -0.0539
 2296TIP3    H128303   1.682   4.705  13.128 -0.4543  0.4784 -0.8762
 2296TIP3    H228304   1.760   4.575  13.128  0.0628  0.7872 -0.1547
 2297TIP3   OH228305   1.616   2.887  15.944  0.3606  0.0258 -0.5319
 2297TIP3    H128306   1.615   2.983  15.945  0.5052  0.0260 -0.3236
 2297TIP3    H228307   1.545   2.862  16.003  0.4530  0.0047 -0.4296
 2298TIP3   OH228308   4.093   2.868  13.021  0.0325 -0.4865  0.2083
 2298TIP3    H128309   4.109   2.952  12.978  3.0570 -1.0420  0.1553
 2298TIP3    H228310   4.033   2.889  13.093 -0.2061  1.4810 -0.5192
 2299TIP3   OH228311   5.029   5.751   4.068  0.2116 -0.4730  0.6291
 2299TIP3    H128312   5.083   5.676   4.044  2.6668  1.2754  0.5036
 2299TIP3    H228313   5.040   5.759   4.163  0.7771  0.3162  0.5040
 2300TIP3   OH228314   0.103   6.105  15.389 -0.1715 -0.0652  0.2539
 2300TIP3    H128315   0.099   6.200  15.385  1.9174  0.0284 -0.3165
 2300TIP3    H228316   0.077   6.084  15.479 -1.0910  0.9997  0.2519
 2301TIP3   OH228317   0.500   1.859   5.320 -0.2395  0.0534  0.3768
 2301TIP3    H128318   0.554   1.869   5.399  0.0108  0.9138  0.1004
 2301TIP3    H228319   0.531   1.777   5.281  0.1994  0.0442  0.7395
 2302TIP3   OH228320   6.142   5.447  14.604 -0.4222 -0.4290  0.1222
 2302TIP3    H128321   6.192   5.368  14.623 -0.7176 -0.6271  0.0721
 2302TIP3    H228322   6.068   5.417  14.552 -1.0519 -0.2578  0.9014
 2303TIP3   OH228323   0.044   3.924   4.873  0.4220  0.0837  0.1975
 2303TIP3    H128324   0.114   3.928   4.808  0.7060  0.2921  0.5178
 2303TIP3    H228325  -0.024   3.870   4.832  0.4627  0.4895 -0.4073
 2304TIP3   OH228326   3.824   4.651   1.746  0.1044 -0.0756 -0.1862
 2304TIP3    H128327   3.888   4.703   1.697 -0.3340  0.2411 -0.4213
 2304TIP3    H228328   3.820   4.568   1.700  0.1897 -0.0178 -0.2972
 2305TIP3   OH228329   2.505   5.401  13.899 -0.4630  0.2156 -0.9280
 2305TIP3    H128330   2.518   5.319  13.852  0.5518 -0.1246 -0.0535
 2305TIP3    H228331   2.530   5.469  13.836  0.4563 -0.2221 -1.0384
 2306TIP3   OH228332   5.407   3.508   5.210 -0.6624 -0.0077  0.0833
 2306TIP3    H128333   5.395   3.522   5.304  0.8641  0.4303  0.2203
 2306TIP3    H228334   5.484   3.561   5.187 -1.9593  1.1467 -1.7269
 2307TIP3   OH228335   5.578   5.277  13.333  0.3230 -0.6035 -0.3832
 2307TIP3    H128336   5.485   5.273  13.356  0.0040  1.8657 -1.1193
 2307TIP3    H228337   5.579   5.272  13.237  0.9989 -1.1644 -0.3570
 2308TIP3   OH228338   1.086   3.546   1.038  0.0511  0.0338 -0.2034
 2308TIP3    H128339   0.999   3.509   1.057 -0.6462  1.9548  0.4406
 2308TIP3    H228340   1.067   3.633   1.002  1.7130  0.4778 -0.0135
 2309TIP3   OH228341   5.484   5.389   1.416 -0.1715 -0.0514  0.1671
 2309TIP3    H128342   5.416   5.383   1.483 -0.4146 -2.9380 -0.2601
 2309TIP3    H228343   5.441   5.429   1.340 -1.8314 -3.0650 -0.5671
 2310TIP3   OH228344   1.374   5.592   2.721 -0.1660 -0.0956 -0.6971
 2310TIP3    H128345   1.436   5.562   2.655  1.6645  1.2492  0.4029
 2310TIP3    H228346   1.392   5.537   2.797  1.2597  1.8008  0.3769
 2311TIP3   OH228347   3.065   1.877  14.190 -0.2217  0.0112 -0.3967
 2311TIP3    H128348   3.001   1.933  14.232  1.3396  0.8919  0.8716
 2311TIP3    H228349   3.099   1.822  14.261  0.2308 -0.6206 -1.0907
 2312TIP3   OH228350   4.807   3.253   2.125 -0.0892 -0.1622 -0.3359
 2312TIP3    H128351   4.848   3.245   2.211 -1.0014 -2.9455 -0.1026
 2312TIP3    H228352   4.727   3.201   2.132  0.0603 -0.8107 -3.0152
 2313TIP3   OH228353   0.077   4.686  12.587  0.0502 -0.8162  0.2915
 2313TIP3    H128354   0.106   4.633  12.513 -2.8992 -1.5054 -0.4398
 2313TIP3    H228355   0.024   4.755  12.547  2.1986  1.5872  1.3988
 2314TIP3   OH228356   4.971   2.051   1.844 -0.1196  0.3989  0.2631
 2314TIP3    H128357   4.938   2.139   1.828  0.4465  0.8083  1.3299
 2314TIP3    H228358   4.926   2.022   1.924  1.2608  0.5235  1.0821
 2315TIP3   OH228359   0.304   1.798   0.072 -0.1499  0.6213 -0.1973
 2315TIP3    H128360   0.276   1.860   0.005 -0.8634 -0.5380 -0.9884
 2315TIP3    H228361   0.384   1.835   0.107  2.1635 -0.4214 -4.0846
 2316TIP3   OH228362   2.285   2.110   1.527 -0.5176  0.9355  0.2538
 2316TIP3    H128363   2.248   2.153   1.450  0.0034 -1.5038 -1.4275
 2316TIP3    H228364   2.370   2.152   1.540  0.0350  0.3728 -1.4191
 2317TIP3   OH228365   4.397   4.825  15.789  0.1057 -0.5498  0.1266
 2317TIP3    H128366   4.309   4.792  15.772  0.7979 -1.8387 -1.0117
 2317TIP3    H228367   4.452   4.747  15.795  1.1154  0.2181  1.2184
 2318TIP3   OH228368   0.198   3.874   4.623  0.1477 -0.0202  0.0024
 2318TIP3    H128369   0.214   3.871   4.528  2.6689 -1.2932  0.4132
 2318TIP3    H228370   0.230   3.960   4.650  0.7857 -0.2174 -0.1067
 2319TIP3   OH228371   5.485   4.880  14.294  0.2597 -0.1760  0.2243
 2319TIP3    H128372   5.562   4.898  14.240  0.7279 -2.3022  0.1264
 2319TIP3    H228373   5.521   4.859  14.381 -0.2781  0.0879  0.5096
 2320TIP3   OH228374   5.420   5.516  17.173  0.0614  0.0629 -0.4184
 2320TIP3    H128375   5.406   5.563  17.091  1.0368  1.9069  0.4536
 2320TIP3    H228376   5.463   5.435  17.147 -1.1622 -0.1464 -1.8838
 2321TIP3   OH228377   6.492   2.684   2.162 -0.1035  0.1264  0.3772
 2321TIP3    H128378   6.517   2.622   2.231  1.3876 -0.0034 -0.2699
 2321TIP3    H228379   6.405   2.655   2.135  1.2899 -2.8643 -1.2050
 2322TIP3   OH228380   6.527   2.330  12.058 -0.3713 -0.0464  0.1228
 2322TIP3    H128381   6.603   2.273  12.044 -1.8003 -1.8155 -0.5608
 2322TIP3    H228382   6.515   2.375  11.975 -0.5612 -0.3794 -0.0314
 2323TIP3   OH228383   0.435   3.115   2.077  0.0382 -0.0638  0.0384
 2323TIP3    H128384   0.515   3.092   2.125  0.5722  0.0789 -0.7607
 2323TIP3    H228385   0.467   3.156   1.996 -0.8595  0.5091 -0.0285
 2324TIP3   OH228386   0.946   4.055  15.528  0.2596  0.0778 -0.2607
 2324TIP3    H128387   0.889   4.005  15.586 -1.0753 -0.4859 -1.9844
 2324TIP3    H228388   0.990   3.988  15.475  3.1693  0.4661  1.5953
 2325TIP3   OH228389   3.923   1.429   1.644  0.3001 -0.1297 -0.2788
 2325TIP3    H128390   3.958   1.417   1.555 -0.9218  1.1463 -0.9616
 2325TIP3    H228391   3.953   1.515   1.670  0.5789 -0.4679  0.5290
 2326TIP3   OH228392   0.141   3.984  14.489  0.3473 -0.0225  0.2959
 2326TIP3    H128393   0.125   3.891  14.475  1.5864 -0.0036 -1.4852
 2326TIP3    H228394   0.210   3.987  14.555 -0.2061 -0.3586  0.8805
 2327TIP3   OH228395   5.195   0.952   3.538  0.7004 -0.4538  0.0284
 2327TIP3    H128396   5.271   0.904   3.505  0.1046 -2.3935  1.3585
 2327TIP3    H228397   5.119   0.902   3.506  0.0551 -0.0757  0.9456
 2328TIP3   OH228398   5.575   0.828  14.930  0.3444  0.8295  0.3098
 2328TIP3    H128399   5.521   0.767  14.981  0.6067  0.0734 -0.3062
 2328TIP3    H228400   5.525   0.909  14.930 -0.3647  0.4036  0.5107
 2329TIP3   OH228401   2.486   5.042   1.998 -0.7911  0.0677  0.0562
 2329TIP3    H128402   2.442   5.119   1.962  0.6738  0.8606 -0.0507
 2329TIP3    H228403   2.564   5.077   2.041 -0.0213 -1.3762 -0.1513
 2330TIP3   OH228404   3.612   6.458   1.464 -0.1187  1.0438 -0.5598
 2330TIP3    H128405   3.683   6.467   1.400  0.6401  0.5512  0.2001
 2330TIP3    H228406   3.654   6.473   1.549 -0.9960  1.0909 -0.1318
 2331TIP3   OH228407   1.227   4.464   6.401  0.0781 -0.2564  0.2391
 2331TIP3    H128408   1.192   4.378   6.423 -1.2254 -0.1676 -1.3222
 2331TIP3    H228409   1.176   4.525   6.454 -0.0882 -0.3334  0.1673
 2332TIP3   OH228410   3.692   6.111  14.814 -0.0662 -0.2457 -0.0281
 2332TIP3    H128411   3.724   6.102  14.724 -0.4835 -4.1535  0.1244
 2332TIP3    H228412   3.638   6.190  14.812  2.5092  1.5513 -2.3847
 2333TIP3   OH228413   5.259   2.075  13.307  0.1553 -0.1536 -0.3158
 2333TIP3    H128414   5.238   2.007  13.370  3.2034  0.9842  2.0412
 2333TIP3    H228415   5.193   2.143  13.322  0.0441 -0.4848  0.7081
 2334TIP3   OH228416   2.247   4.942   4.014 -0.0058  0.1282  0.3883
 2334TIP3    H128417   2.343   4.944   4.008 -0.1210  0.4343 -1.4961
 2334TIP3    H228418   2.223   4.854   3.986 -0.2158 -0.4397  2.2554
 2335TIP3   OH228419   4.574   4.855   5.641 -0.0161 -0.0620  0.2217
 2335TIP3    H128420   4.496   4.808   5.609  0.2354 -0.5164  0.2818
 2335TIP3    H228421   4.561   4.861   5.735  0.3296 -0.7060  0.3135
 2336TIP3   OH228422   1.570   2.299   4.605  0.3000 -0.1625 -0.2263
 2336TIP3    H128423   1.546   2.343   4.524  2.0088  0.7519 -0.2611
 2336TIP3    H228424   1.665   2.312   4.613  0.3085 -1.0258  1.4380
 2337TIP3   OH228425   2.468   3.639  17.135 -0.4584  0.2878  1.0823
 2337TIP3    H128426   2.474   3.547  17.160 -1.8259 -0.1635 -0.2249
 2337TIP3    H228427   2.548   3.678  17.171  1.4604 -1.9159 -0.6229
 2338TIP3   OH228428   2.413   1.800   0.513  0.2204 -0.0849 -0.2477
 2338TIP3    H128429   2.453   1.887   0.516  1.3572 -0.6461  1.1731
 2338TIP3    H228430   2.320   1.817   0.494  0.7881  1.3070 -1.8847
 2339TIP3   OH228431   4.721   1.859  16.242  0.1924  0.2027 -0.1102
 2339TIP3    H128432   4.802   1.851  16.292  1.0210  0.1512 -1.4439
 2339TIP3    H228433   4.682   1.941  16.273  1.6474  1.1536 -0.7187
 2340TIP3   OH228434   6.520   5.740   1.987 -0.3644  1.0162 -0.6452
 2340TIP3    H128435   6.592   5.736   2.050 -1.0642  1.2407  0.1886
 2340TIP3    H228436   6.443   5.762   2.041 -1.1449  0.2643 -1.4390
 2341TIP3   OH228437   0.924   4.404   6.313  0.6024  0.4232 -0.2158
 2341TIP3    H128438   0.992   4.340   6.296 -0.6699 -1.1536  0.5157
 2341TIP3    H228439   0.892   4.429   6.226  0.3548 -0.7606 -0.4746
 2342TIP3   OH228440   1.239   5.833  12.389 -0.3665  0.3248  0.1096
 2342TIP3    H128441   1.172   5.786  12.438 -0.9522  2.2374  1.1949
 2342TIP3    H228442   1.309   5.849  12.453  0.5230 -0.4561 -0.6599
 2343TIP3   OH228443   3.395   4.716  11.608 -0.7168 -0.5059  0.2604
 2343TIP3    H128444   3.370   4.658  11.680 -1.8389  1.2560  1.3392
 2343TIP3    H228445   3.479   4.753  11.636 -1.3548  0.5002  0.8947
 2344TIP3   OH228446   2.875   2.830   4.547  0.2578 -0.1923 -0.4026
 2344TIP3    H128447   2.934   2.895   4.509 -1.5497  0.8609 -1.5108
 2344TIP3    H228448   2.859   2.768   4.476 -1.2025  0.4288 -0.6537
 2345TIP3   OH228449   2.932   6.478  15.438  0.3671  0.3535  0.6544
 2345TIP3    H128450   2.848   6.492  15.395  0.6167  1.6713  0.5839
 2345TIP3    H228451   2.916   6.403  15.496 -0.6743  0.1881  0.1754
 2346TIP3   OH228452   0.307   6.434  13.365  0.0526  0.1863  0.7246
 2346TIP3    H128453   0.345   6.395  13.444 -0.7055  0.4300  1.2180
 2346TIP3    H228454   0.379   6.439  13.303  0.3000 -1.4710  0.8591
 2347TIP3   OH228455   6.338   5.807   1.764 -0.1719 -0.2217 -0.2230
 2347TIP3    H128456   6.276   5.880   1.770  2.4279  2.0585 -0.1089
 2347TIP3    H228457   6.340   5.770   1.852  1.2716  1.9906  0.7072
 2348TIP3   OH228458   6.080   2.273  15.793 -0.0246  0.2204 -0.1252
 2348TIP3    H128459   6.047   2.249  15.707 -0.9235  0.3767  0.1675
 2348TIP3    H228460   6.006   2.317  15.836  0.0612 -0.8101  1.1203
 2349TIP3   OH228461   0.497   3.625   3.829  0.6576 -0.2631  0.1322
 2349TIP3    H128462   0.431   3.689   3.855  0.3873 -0.7039  0.5406
 2349TIP3    H228463   0.475   3.605   3.738 -1.2789 -2.2101  0.9813
 2350TIP3   OH228464   2.301   5.240  11.308 -0.2365  0.1594  0.1304
 2350TIP3    H128465   2.359   5.301  11.355  1.2064 -0.0876 -1.2711
 2350TIP3    H228466   2.306   5.159  11.360  1.3321 -0.1075 -0.3953
 2351TIP3   OH228467   4.285   3.528  17.137 -0.0447  0.5332 -0.6073
 2351TIP3    H128468   4.362   3.582  17.119  0.2661 -0.2045 -1.5120
 2351TIP3    H228469   4.244   3.516  17.052  0.7638 -1.9706 -0.6838
 2352TIP3   OH228470   6.766   1.401   5.054  0.1266 -0.0576  0.0911
 2352TIP3    H128471   6.795   1.319   5.093 -0.7178 -0.1984  0.4213
 2352TIP3    H228472   6.722   1.447   5.125 -0.4827  0.1496 -0.4213
 2353TIP3   OH228473   2.725   4.706  12.409 -0.2552 -0.1701  0.1767
 2353TIP3    H128474   2.811   4.671  12.387 -1.0330 -1.4017 -0.9352
 2353TIP3    H228475   2.744   4.788  12.455  1.5023 -0.2822 -0.3147
 2354TIP3   OH228476   0.499   0.086   1.071 -0.1335  0.3152  0.7134
 2354TIP3    H128477   0.414   0.095   1.115 -0.1612 -1.6077  1.0754
 2354TIP3    H228478   0.479   0.099   0.978 -0.7343  0.3704  0.8450
 2355TIP3   OH228479   2.562   0.958  13.615 -0.2122  0.0829  0.6853
 2355TIP3    H128480   2.648   0.994  13.636 -0.5135  1.8313 -0.9040
 2355TIP3    H228481   2.501   1.006  13.671 -0.4863  1.2036 -0.5535
 2356TIP3   OH228482   0.356   2.119   2.976  0.0528  0.3179 -0.0409
 2356TIP3    H128483   0.312   2.055   2.921  0.6675  0.2972 -0.5099
 2356TIP3    H228484   0.447   2.089   2.980 -0.2265 -0.3720  1.9749
 2357TIP3   OH228485   5.970   0.056  16.880  0.3221 -0.0963 -0.1808
 2357TIP3    H128486   5.881   0.089  16.890  0.7213  0.2167  2.7511
 2357TIP3    H228487   6.000   0.092  16.796 -2.4057 -0.4971 -1.3561
 2358TIP3   OH228488   4.063   1.006   0.984 -0.6613  0.1077 -0.3800
 2358TIP3    H128489   4.003   1.027   0.913  0.6300  0.1093 -1.4739
 2358TIP3    H228490   4.034   0.920   1.015 -1.8811  0.5714 -0.1860
 2359TIP3   OH228491   1.322   4.189   1.878  0.3907 -0.5521  0.0665
 2359TIP3    H128492   1.276   4.266   1.912  0.4163 -0.7609  0.5841
 2359TIP3    H228493   1.351   4.215   1.791  0.9637  0.2534  0.4933
 2360TIP3   OH228494   6.493   5.798  15.208 -0.4306 -0.2567  0.0469
 2360TIP3    H128495   6.484   5.839  15.294 -0.4956  1.1269 -0.6049
 2360TIP3    H228496   6.420   5.833  15.157  0.7413  0.4568 -1.1572
 2361TIP3   OH228497   4.723   6.564  13.927  0.2730 -0.0891  0.3026
 2361TIP3    H128498   4.671   6.643  13.939  0.5057  0.0400  0.4752
 2361TIP3    H228499   4.680   6.517  13.856 -0.4109 -0.2652  0.8224
 2362TIP3   OH228500   6.663   1.649  13.028 -0.1755  0.3586 -0.5248
 2362TIP3    H128501   6.709   1.713  12.975  1.7611  2.0247  2.9669
 2362TIP3    H228502   6.732   1.588  13.056 -0.7143  0.7024  1.6546
 2363TIP3   OH228503   5.446   1.931  13.934 -0.0384 -0.1286 -0.3142
 2363TIP3    H128504   5.353   1.950  13.926 -0.4295 -1.4923  0.6868
 2363TIP3    H228505   5.466   1.877  13.857  0.0702  0.6588 -0.8439
 2364TIP3   OH228506   3.096   6.630  16.423 -0.6587  0.4083 -0.3403
 2364TIP3    H128507   3.125   6.716  16.452 -0.9424  0.4974 -0.3209
 2364TIP3    H228508   3.009   6.645  16.386 -0.8109  0.0866 -0.1130
 2365TIP3   OH228509   4.119   5.328   2.826 -0.0592  0.2282 -0.3829
 2365TIP3    H128510   4.102   5.251   2.772  1.0902  0.4533 -1.0740
 2365TIP3    H228511   4.215   5.335   2.829 -0.0967  0.2453  1.6418
 2366TIP3   OH228512   5.400   4.020  14.477 -0.2183  0.2576  0.1688
 2366TIP3    H128513   5.456   4.012  14.555 -0.1719  0.9480  0.2136
 2366TIP3    H228514   5.403   4.114  14.455 -0.5205  0.1256 -0.4509
 2367TIP3   OH228515   1.998   2.678  11.951  0.3997 -0.4535  0.2297
 2367TIP3    H128516   2.082   2.714  11.980 -0.8950  2.3393  0.6686
 2367TIP3    H228517   1.979   2.608  12.014  1.4421  0.2119  1.3072
 2368TIP3   OH228518   2.041   4.361  16.720  0.7735  0.4422  0.1096
 2368TIP3    H128519   2.088   4.367  16.803  0.5046  2.3578  0.1638
 2368TIP3    H228520   2.072   4.280  16.680  2.4053  0.5089  1.1850
 2369TIP3   OH228521   2.473   2.603   0.257 -0.0819  0.4071  0.1717
 2369TIP3    H128522   2.450   2.511   0.273 -0.9722  0.8799  1.6981
 2369TIP3    H228523   2.533   2.600   0.183  0.1964 -1.4470  0.4492
 2370TIP3   OH228524   5.068   0.849   2.544 -0.0924  0.2481  0.0006
 2370TIP3    H128525   5.102   0.763   2.569 -1.9548 -0.1135  1.4184
 2370TIP3    H228526   4.982   0.854   2.587 -2.0736  0.9237 -3.8671
 2371TIP3   OH228527   4.281   3.604  13.791 -0.4219  0.0998  0.3134
 2371TIP3    H128528   4.219   3.569  13.855  1.5554 -1.4029  1.4210
 2371TIP3    H228529   4.344   3.653  13.842  1.4137 -1.4607 -0.4179
 2372TIP3   OH228530   4.771   0.783  11.133 -0.3369 -0.0045 -0.2102
 2372TIP3    H128531   4.717   0.857  11.159 -0.8647 -0.4800  0.0691
 2372TIP3    H228532   4.807   0.808  11.048  0.2011  0.9340  0.2897
 2373TIP3   OH228533   6.067   3.150   0.440  0.0044 -0.8683  0.2372
 2373TIP3    H128534   6.068   3.219   0.374  0.1845  0.0013  1.1477
 2373TIP3    H228535   6.091   3.194   0.521  1.0923 -2.1808  0.6415
 2374TIP3   OH228536   1.494   5.111  12.801 -1.0553 -0.1803 -0.0278
 2374TIP3    H128537   1.425   5.177  12.797 -2.0758 -1.1835  0.5385
 2374TIP3    H228538   1.452   5.031  12.771 -0.4605 -1.0509  1.4167
 2375TIP3   OH228539   1.565   2.473   4.361  0.5846 -0.0300 -0.1852
 2375TIP3    H128540   1.626   2.535   4.321  0.2207  0.7342  0.4338
 2375TIP3    H228541   1.481   2.494   4.322  0.9213 -1.9739 -2.0558
 2376TIP3   OH228542   5.737   1.513   3.030 -0.4292 -0.1982 -0.8412
 2376TIP3    H128543   5.791   1.452   3.080 -2.3874 -0.6538  0.7891
 2376TIP3    H228544   5.770   1.506   2.940  1.8465 -0.8352  0.0043
 2377TIP3   OH228545   2.234   6.649   5.896  0.3177 -0.2295  0.5079
 2377TIP3    H128546   2.194   6.710   5.835 -1.5696 -1.9234  0.0237
 2377TIP3    H228547   2.286   6.704   5.955  1.4542  1.5034 -2.0358
 2378TIP3   OH228548   1.294   5.342  13.282  0.3388 -0.1469  0.6717
 2378TIP3    H128549   1.350   5.273  13.245 -0.3958 -0.5942  0.3726
 2378TIP3    H228550   1.355   5.413  13.304  1.0937 -0.8414  0.8767
 2379TIP3   OH228551   2.339   3.297   3.164 -0.2513  0.0598 -0.2814
 2379TIP3    H128552   2.383   3.213   3.177 -1.0874 -0.2136  0.9660
 2379TIP3    H228553   2.377   3.354   3.231 -0.1180  0.4966 -0.7331
 2380TIP3   OH228554   1.648   2.401   2.996 -0.1774 -0.0195 -0.5337
 2380TIP3    H128555   1.564   2.446   3.002  1.0144  2.2821 -0.4665
 2380TIP3    H228556   1.690   2.441   2.919  2.2143  1.2915  1.3986
 2381TIP3   OH228557   1.114   5.745   5.030  0.1717  0.2282  0.3163
 2381TIP3    H128558   1.133   5.665   5.079 -2.1627 -0.7452 -0.3148
 2381TIP3    H228559   1.121   5.719   4.938 -1.0863  0.6194  0.1036
 2382TIP3   OH228560   3.608   1.407   0.200  0.5269 -0.2785  0.0394
 2382TIP3    H128561   3.647   1.368   0.121 -0.6300 -0.3886 -0.4783
 2382TIP3    H228562   3.558   1.482   0.167  0.1020 -0.2837  0.6848
 2383TIP3   OH228563   1.740   0.938  10.651 -0.3102 -0.1664  0.1936
 2383TIP3    H128564   1.685   0.889  10.589  0.1572 -0.3375 -0.0868
 2383TIP3    H228565   1.810   0.976  10.598 -0.0229 -0.1411  0.5819
 2384TIP3   OH228566   5.646   0.837   5.455 -0.3059  0.6083 -1.1736
 2384TIP3    H128567   5.611   0.748   5.461  0.6840  0.0540 -3.0336
 2384TIP3    H228568   5.721   0.829   5.395  0.0126  2.6220 -1.0784
 2385TIP3   OH228569   4.345   1.591   3.867 -0.1130 -0.3201  0.5971
 2385TIP3    H128570   4.268   1.638   3.899 -0.3328 -0.1544 -0.1564
 2385TIP3    H228571   4.395   1.571   3.946 -0.5675  0.2078  1.0298
 2386TIP3   OH228572   3.673   1.651   4.299 -0.1373 -0.1448  0.1358
 2386TIP3    H128573   3.635   1.564   4.286 -0.6886  0.0480  0.4262
 2386TIP3    H228574   3.719   1.645   4.383  1.4073 -0.6954 -0.7314
 2387TIP3   OH228575   5.051   4.046   5.797  0.6228  0.2299 -0.2058
 2387TIP3    H128576   5.001   4.123   5.824 -1.6212 -1.3916  0.3861
 2387TIP3    H228577   5.014   4.022   5.712 -0.6623 -1.8404  0.8931
 2388TIP3   OH228578   0.482   4.749   0.340 -0.2171  0.0489  0.4127
 2388TIP3    H128579   0.538   4.690   0.290 -1.0366 -0.6544  0.3143
 2388TIP3    H228580   0.428   4.793   0.274 -2.1918 -1.8066  0.7158
 2389TIP3   OH228581   1.712   4.224   2.490  0.0289  0.4377  0.1227
 2389TIP3    H128582   1.743   4.149   2.541  3.1639  1.0078 -0.8211
 2389TIP3    H228583   1.723   4.299   2.548 -2.1503  0.3535  0.7011
 2390TIP3   OH228584   1.341   0.595   0.935  0.1635 -0.0811  0.4346
 2390TIP3    H128585   1.322   0.655   1.007  1.6943  0.4905  0.3765
 2390TIP3    H228586   1.349   0.651   0.858 -2.1887 -0.7637 -0.3439
 2391TIP3   OH228587   3.398   6.529   5.332  0.3067 -0.0632 -0.4050
 2391TIP3    H128588   3.475   6.581   5.357 -1.3516  2.9046 -1.2094
 2391TIP3    H228589   3.382   6.552   5.241 -1.0383 -1.2988 -0.4985
 2392TIP3   OH228590   3.078   4.095  17.205  0.0208 -0.3323 -0.4256
 2392TIP3    H128591   2.994   4.140  17.197  0.7259  1.1843  0.3870
 2392TIP3    H228592   3.060   4.023  17.266 -0.9419 -0.6983 -1.1261
 2393TIP3   OH228593   3.275   2.400  13.701  0.9391 -0.3471  0.4485
 2393TIP3    H128594   3.216   2.456  13.751  0.9888  0.2293 -0.1381
 2393TIP3    H228595   3.299   2.330  13.762 -0.3715 -0.6078  0.6828
 2394TIP3   OH228596   0.771   0.988  12.777 -0.2562  0.1331  0.4384
 2394TIP3    H128597   0.821   1.055  12.731  0.8116 -0.7854  0.2233
 2394TIP3    H228598   0.680   1.019  12.775  0.2831  1.7511  0.6985
 2395TIP3   OH228599   3.854   6.364  15.582  0.4214 -0.0656  0.0315
 2395TIP3    H128600   3.840   6.459  15.577 -0.4704 -0.2220 -0.5640
 2395TIP3    H228601   3.811   6.330  15.504  1.4508 -0.8875 -0.1743
 2396TIP3   OH228602   0.702   0.164   2.216 -0.6949 -0.0798 -0.1837
 2396TIP3    H128603   0.684   0.080   2.174  1.0017 -0.7764  0.4385
 2396TIP3    H228604   0.792   0.186   2.190 -0.8539  1.1788  0.2649
 2397TIP3   OH228605   2.194   0.325   3.838  0.7249  0.0720  0.1163
 2397TIP3    H128606   2.102   0.303   3.829 -0.6195  3.9547  2.9060
 2397TIP3    H228607   2.228   0.325   3.748 -2.7234  1.3413 -1.2698
 2398TIP3   OH228608   3.887   4.285   5.465  0.1056  0.1971 -0.3681
 2398TIP3    H128609   3.844   4.362   5.427 -0.9150 -0.2962 -0.2211
 2398TIP3    H228610   3.980   4.310   5.471  0.1580  0.6050 -2.3704
 2399TIP3   OH228611   3.455   3.335  11.948 -0.2081 -0.0908  0.0957
 2399TIP3    H128612   3.427   3.415  11.992  0.8514  1.0537 -1.2265
 2399TIP3    H228613   3.547   3.351  11.926 -0.2839 -1.2283 -1.1291
 2400TIP3   OH228614   3.275   2.541  15.554 -0.3707  0.4894  0.2269
 2400TIP3    H128615   3.222   2.605  15.507  0.0975  0.1852 -0.7347
 2400TIP3    H228616   3.223   2.518  15.631 -1.0881  1.0955 -0.0727
 2401TIP3   OH228617   5.224   2.000   1.724 -0.5971  0.3415 -0.2159
 2401TIP3    H128618   5.136   1.981   1.755 -1.2705  0.6244 -1.9422
 2401TIP3    H228619   5.214   2.078   1.670  0.6551  0.1372 -0.7485
 2402TIP3   OH228620   5.463   6.631   4.800  0.6936  0.0995 -0.4982
 2402TIP3    H128621   5.519   6.556   4.822  0.2753 -0.3780 -1.0190
 2402TIP3    H228622   5.491   6.701   4.859 -0.6237 -1.2487  1.8133
 2403TIP3   OH228623   6.613   1.940   3.299  0.0148 -0.1009  0.2109
 2403TIP3    H128624   6.666   1.926   3.378 -0.1160 -0.3524  0.2542
 2403TIP3    H228625   6.671   1.989   3.241 -0.3021  1.1178  0.9164
 2404TIP3   OH228626   3.954   0.740   1.114 -0.2566  0.1331 -0.4803
 2404TIP3    H128627   3.905   0.659   1.126  0.3427  0.0282  1.4681
 2404TIP3    H228628   3.968   0.773   1.203  1.0588  1.4379 -1.1465
 2405TIP3   OH228629   1.443   2.034  11.941  0.2089 -0.2371  0.3769
 2405TIP3    H128630   1.527   2.065  11.974  0.7620  0.1082 -1.2961
 2405TIP3    H228631   1.386   2.111  11.943  0.7217  0.1928 -0.9935
 2406TIP3   OH228632   5.429   3.382   0.175 -0.2559  0.9153  0.0560
 2406TIP3    H128633   5.460   3.356   0.262 -1.3686  3.2619  1.1731
 2406TIP3    H228634   5.488   3.336   0.114  0.0893 -1.3194  1.9948
 2407TIP3   OH228635   3.797   4.941   5.411 -0.3041 -0.1018 -0.0647
 2407TIP3    H128636   3.728   4.895   5.460  0.7066 -1.6198 -0.0122
 2407TIP3    H228637   3.766   4.941   5.321 -1.6059  1.6193  0.3477
 2408TIP3   OH228638   1.893   0.220  17.131  0.5224 -0.0690  0.5733
 2408TIP3    H128639   1.847   0.146  17.172 -0.7069  1.1446  1.4160
 2408TIP3    H228640   1.863   0.219  17.040  1.5075 -1.3799  0.2388
 2409TIP3   OH228641   5.746   4.245  17.111  0.1029  0.3559 -0.3961
 2409TIP3    H128642   5.682   4.238  17.182  0.7400  0.6981  0.2154
 2409TIP3    H228643   5.723   4.173  17.051  0.4097 -0.7991  0.8374
 2410TIP3   OH228644   6.498   0.766   0.470 -0.6752  0.1052 -0.0831
 2410TIP3    H128645   6.415   0.718   0.475 -0.4075 -0.5503 -1.6063
 2410TIP3    H228646   6.551   0.715   0.409  0.1472  1.5560 -0.6033
 2411TIP3   OH228647   4.817   5.795  14.427  0.3702  0.0532 -0.2972
 2411TIP3    H128648   4.798   5.705  14.453  0.8874  0.1644  0.4810
 2411TIP3    H228649   4.908   5.794  14.400  0.1993  0.2155 -0.8893
 2412TIP3   OH228650   5.388   0.464  11.613 -0.3406 -0.0710 -0.7663
 2412TIP3    H128651   5.475   0.425  11.624 -0.3114  0.5896  1.5144
 2412TIP3    H228652   5.401   0.532  11.547  0.6670 -0.5572 -1.0897
 2413TIP3   OH228653   5.980   5.322   3.345 -0.2298 -0.2806 -0.2262
 2413TIP3    H128654   6.047   5.314   3.413 -0.8394 -0.5503  0.3599
 2413TIP3    H228655   6.015   5.274   3.270  0.1931 -0.5023  0.1116
 2414TIP3   OH228656   1.252   3.781   5.362  0.6390  0.3272 -0.1512
 2414TIP3    H128657   1.265   3.756   5.453 -1.9345  3.3303  1.1195
 2414TIP3    H228658   1.184   3.721   5.330  2.4961 -1.6260 -0.5854
 2415TIP3   OH228659   6.723   1.868   1.347 -0.0330 -0.6590  0.0283
 2415TIP3    H128660   6.742   1.843   1.257  0.2228  0.4847 -0.2417
 2415TIP3    H228661   6.669   1.947   1.339  0.9533  0.1211  0.8857
 2416TIP3   OH228662   3.745   6.307   5.061 -0.0881  0.3766  0.0711
 2416TIP3    H128663   3.795   6.376   5.105 -1.6873  0.9963  0.9328
 2416TIP3    H228664   3.684   6.354   5.005  0.4690 -0.3870 -1.1820
 2417TIP3   OH228665   0.433   3.061  10.612 -0.3817  0.6241 -0.0783
 2417TIP3    H128666   0.477   3.128  10.560 -0.4613  2.1522  1.8079
 2417TIP3    H228667   0.342   3.090  10.616 -0.4734  0.2611  0.5031
 2418TIP3   OH228668   2.341   1.667  12.124  0.0606 -0.1259  0.2473
 2418TIP3    H128669   2.310   1.597  12.067  2.4449  0.6838 -2.1540
 2418TIP3    H228670   2.430   1.685  12.093 -0.3312  3.6501  1.1048
 2419TIP3   OH228671   4.788   0.846  14.191  0.4766 -0.4577  0.4766
 2419TIP3    H128672   4.766   0.765  14.236 -0.3494  0.6394  2.1149
 2419TIP3    H228673   4.881   0.861  14.211  0.2826 -0.3186  1.2899
 2420TIP3   OH228674   1.544   4.382  11.745 -0.3208  0.0901 -0.2744
 2420TIP3    H128675   1.586   4.415  11.666 -0.2038 -0.0958 -0.2883
 2420TIP3    H228676   1.592   4.424  11.817 -0.9046  0.8405 -0.3136
 2421TIP3   OH228677   0.780   0.541  10.707  0.9283  0.3582  0.0318
 2421TIP3    H128678   0.793   0.469  10.646  0.6870  1.1786 -1.0139
 2421TIP3    H228679   0.782   0.620  10.652 -1.1382  0.9997  0.8219
 2422TIP3   OH228680   6.439   5.729   6.103  0.2967 -0.4217  0.3120
 2422TIP3    H128681   6.393   5.745   6.185 -1.0106 -0.9175 -0.3081
 2422TIP3    H228682   6.405   5.645   6.072  0.5845 -0.1157 -0.8660
 2423TIP3   OH228683   3.432   4.018   3.680 -0.0139  0.3575  0.2182
 2423TIP3    H128684   3.490   4.025   3.756 -1.1591 -0.5033  1.1767
 2423TIP3    H228685   3.391   4.104   3.672  0.4720  0.5969  0.2595
 2424TIP3   OH228686   2.423   4.793  10.897  0.0538  0.3008 -0.4178
 2424TIP3    H128687   2.428   4.834  10.811  0.9424 -0.8251 -0.9069
 2424TIP3    H228688   2.330   4.798  10.920 -0.4121 -0.5298 -2.0095
 2425TIP3   OH228689   6.250   3.172   0.945 -0.4950 -0.1553  0.4325
 2425TIP3    H128690   6.209   3.105   1.001 -0.9232  0.6692  1.1089
 2425TIP3    H228691   6.344   3.164   0.963 -0.4899 -0.9698  0.0703
 2426TIP3   OH228692   1.433   0.891   4.832 -0.5142 -0.4316  0.2645
 2426TIP3    H128693   1.423   0.976   4.874 -2.4113 -0.7886  0.5624
 2426TIP3    H228694   1.367   0.890   4.762  0.9968 -0.7907 -1.1897
 2427TIP3   OH228695   5.539   2.202  16.729  0.2845 -0.1615 -0.2198
 2427TIP3    H128696   5.526   2.173  16.638 -0.9041  2.1996 -0.8609
 2427TIP3    H228697   5.554   2.121  16.778 -1.1407 -1.6912 -2.1877
 2428TIP3   OH228698   0.812   3.840  12.657 -0.2828  0.1200  0.0266
 2428TIP3    H128699   0.895   3.801  12.685 -0.8770 -0.7426  0.5961
 2428TIP3    H228700   0.749   3.768  12.658 -0.5375  0.2522 -2.6847
 2429TIP3   OH228701   0.378   4.381  13.925  0.2684  0.2561 -0.4185
 2429TIP3    H128702   0.471   4.362  13.908  0.2879 -0.8676  0.8678
 2429TIP3    H228703   0.331   4.310  13.881  0.0189  0.8285 -1.0708
 2430TIP3   OH228704   3.554   0.348   4.248  0.5820 -0.3127  0.8720
 2430TIP3    H128705   3.503   0.290   4.305 -0.4074 -0.3589 -0.0568
 2430TIP3    H228706   3.518   0.435   4.264 -0.9893 -0.5697 -1.0497
 2431TIP3   OH228707   0.786   5.012  17.111  0.1081  0.4057 -0.1371
 2431TIP3    H128708   0.796   5.013  17.206 -1.1933  2.3261  0.0060
 2431TIP3    H228709   0.733   4.935  17.093  1.2687 -0.5811  0.5759
 2432TIP3   OH228710   0.673   3.760  11.361  0.6851 -0.2949  0.1088
 2432TIP3    H128711   0.602   3.791  11.418 -0.4894  0.0007 -1.4695
 2432TIP3    H228712   0.682   3.829  11.295  2.8784 -0.0487  0.6489
 2433TIP3   OH228713   0.229   3.778  16.815 -0.2538 -0.5086  0.1287
 2433TIP3    H128714   0.262   3.687  16.818  1.2797 -0.0014 -0.6271
 2433TIP3    H228715   0.154   3.774  16.755  1.1435 -0.8976 -1.6572
 2434TIP3   OH228716   2.042   1.240   5.812 -0.0278 -0.6896  0.1056
 2434TIP3    H128717   1.984   1.249   5.736  1.0925 -0.3413 -0.7418
 2434TIP3    H228718   2.055   1.146   5.822  1.8247 -0.6836 -1.7488
 2435TIP3   OH228719   6.598   1.503  15.761 -0.8758  0.6594  0.1774
 2435TIP3    H128720   6.566   1.416  15.784 -3.8573  1.8464  0.7815
 2435TIP3    H228721   6.549   1.525  15.681  0.6029  1.3919 -0.5452
 2436TIP3   OH228722   5.248   0.476   3.420  0.3463 -0.0069  0.4777
 2436TIP3    H128723   5.196   0.494   3.499 -2.0708  1.2227 -1.3157
 2436TIP3    H228724   5.308   0.550   3.414 -2.3415  2.1494 -1.0669
 2437TIP3   OH228725   1.285   5.458  15.893  0.1763  0.0273 -0.1248
 2437TIP3    H128726   1.235   5.538  15.881 -1.3438 -0.8988 -0.0274
 2437TIP3    H228727   1.343   5.454  15.816  0.0952  1.0851 -0.2469
 2438TIP3   OH228728   6.285   1.496  12.965  0.2529  0.1876  0.1324
 2438TIP3    H128729   6.201   1.542  12.972 -0.6536 -1.2990 -0.8404
 2438TIP3    H228730   6.331   1.520  13.045 -1.7542 -0.2741  1.4784
 2439TIP3   OH228731   5.306   5.182  16.870 -0.0204  0.4063  0.2963
 2439TIP3    H128732   5.275   5.183  16.960 -1.0067 -0.9593 -0.0221
 2439TIP3    H228733   5.227   5.193  16.817  0.4575  0.4081 -0.4215
 2440TIP3   OH228734   2.364   5.269  11.686 -0.3560 -0.4148  0.5314
 2440TIP3    H128735   2.415   5.304  11.759  0.9886 -0.4500 -0.3676
 2440TIP3    H228736   2.385   5.327  11.613 -1.9722 -0.1618  0.2579
 2441TIP3   OH228737   0.949   4.985  10.920 -0.8277 -0.0028  0.0828
 2441TIP3    H128738   0.901   4.903  10.927 -2.4776  0.8831 -0.4289
 2441TIP3    H228739   1.002   4.976  10.841 -1.4562 -0.3505 -0.2968
 2442TIP3   OH228740   5.179   1.061  10.444  0.0835 -0.3002  0.0587
 2442TIP3    H128741   5.232   1.138  10.466 -1.1242  0.4073  0.5369
 2442TIP3    H228742   5.091   1.095  10.429 -0.0539 -1.3504 -1.6603
 2443TIP3   OH228743   6.404   2.910   5.560  0.0711  0.0469 -0.0001
 2443TIP3    H128744   6.316   2.935   5.533 -0.0675 -0.3826  0.0588
 2443TIP3    H228745   6.392   2.834   5.617  0.3485  1.0826  1.4687
 2444TIP3   OH228746   0.573   4.502   4.921  0.2292 -0.0282 -0.8724
 2444TIP3    H128747   0.622   4.431   4.962  1.6356  0.7078 -1.2468
 2444TIP3    H228748   0.560   4.473   4.830  2.2523  0.8955 -1.4758
 2445TIP3   OH228749   6.020   5.977  14.522  0.0930  0.5245  0.1328
 2445TIP3    H128750   5.954   5.930  14.571 -0.1131  0.8364  0.1603
 2445TIP3    H228751   6.004   6.069  14.541 -0.4678  0.6992 -1.1041
 2446TIP3   OH228752   4.155   3.833  14.120 -0.0659  0.0653  0.2574
 2446TIP3    H128753   4.091   3.807  14.054  0.8181  0.4775 -0.7947
 2446TIP3    H228754   4.203   3.753  14.140  0.1078  0.0692 -0.1218
 2447TIP3   OH228755   0.920   5.267   5.215  0.3919 -0.1575 -0.1642
 2447TIP3    H128756   0.826   5.263   5.232  0.5304 -3.0401  0.2515
 2447TIP3    H228757   0.960   5.241   5.298  1.5959  1.7185 -0.1367
 2448TIP3   OH228758   5.607   1.219  10.939 -0.3861 -0.1012  0.2158
 2448TIP3    H128759   5.567   1.131  10.937 -0.7052  0.0033  1.3566
 2448TIP3    H228760   5.648   1.229  10.853 -2.7097 -0.2747 -0.9728
 2449TIP3   OH228761   3.323   3.212   2.149 -0.2611  0.3137  0.8775
 2449TIP3    H128762   3.290   3.247   2.067  0.4194 -0.4793  0.2543
 2449TIP3    H228763   3.395   3.271   2.174  0.2493 -0.0684  0.3288
 2450TIP3   OH228764   3.037   0.834   1.724  0.0461  0.1251 -0.5007
 2450TIP3    H128765   2.988   0.819   1.643 -0.9055  1.9357 -0.2815
 2450TIP3    H228766   3.104   0.898   1.701  0.8935 -0.6582 -0.2582
 2451TIP3   OH228767   2.587   0.704  15.702 -0.3551 -0.0541 -0.2131
 2451TIP3    H128768   2.504   0.671  15.667 -0.3347 -0.2563 -0.0709
 2451TIP3    H228769   2.604   0.784  15.652 -0.5059 -0.1504 -0.4203
 2452TIP3   OH228770   6.427   2.920   3.258 -0.0932 -0.4769  0.4205
 2452TIP3    H128771   6.478   2.863   3.316  0.0270  0.7764  1.5732
 2452TIP3    H228772   6.465   2.906   3.171  0.2045 -1.8303  0.7545
 2453TIP3   OH228773   2.331   0.488  14.965 -0.0372  0.2032 -0.1452
 2453TIP3    H128774   2.310   0.553  14.899  0.6425 -0.5287 -1.1104
 2453TIP3    H228775   2.255   0.430  14.967 -0.1993  0.4189 -0.0416
 2454TIP3   OH228776   1.248   6.357  11.654  0.2972  0.2717  0.5897
 2454TIP3    H128777   1.156   6.377  11.675  0.2006 -0.4612  0.8806
 2454TIP3    H228778   1.277   6.302  11.727  1.1685  1.0463  0.8371
 2455TIP3   OH228779   4.558   4.946   4.134  0.2115  0.0490  0.0764
 2455TIP3    H128780   4.627   4.927   4.197  0.5833  0.7784 -0.1058
 2455TIP3    H228781   4.591   4.910   4.051  1.1468  1.9188 -0.3797
 2456TIP3   OH228782   0.508   1.377   1.052 -0.1104  0.1511 -0.7491
 2456TIP3    H128783   0.570   1.442   1.019 -0.5802  1.0669  0.1304
 2456TIP3    H228784   0.561   1.299   1.067  0.9434  1.0691  0.4532
 2457TIP3   OH228785   5.092   2.239  11.511 -0.5365 -0.2246  0.2635
 2457TIP3    H128786   5.185   2.236  11.489 -0.0490  1.9458  1.8317
 2457TIP3    H228787   5.050   2.181  11.447  1.7763 -0.5773 -0.9914
 2458TIP3   OH228788   1.889   1.867  14.065 -0.3812  0.0105 -0.0828
 2458TIP3    H128789   1.965   1.857  14.006 -0.6657 -1.4699 -0.1961
 2458TIP3    H228790   1.927   1.869  14.153 -0.1465  0.1173 -0.1863
 2459TIP3   OH228791   5.544   4.917   3.651 -0.1371  0.3456  0.4582
 2459TIP3    H128792   5.460   4.922   3.605 -1.4196  0.7270  2.7737
 2459TIP3    H228793   5.548   4.827   3.684  0.7883  0.0644 -0.3996
 2460TIP3   OH228794   0.765   6.721   2.806 -0.0406 -0.0227  0.2927
 2460TIP3    H128795   0.704   6.763   2.866  1.5806  0.4686  1.6534
 2460TIP3    H228796   0.815   6.794   2.768 -0.1742 -0.4272 -0.6940
 2461TIP3   OH228797   2.678   0.280  12.143 -0.8270  0.2821  0.0237
 2461TIP3    H128798   2.599   0.226  12.135  0.1480 -0.8976 -1.9775
 2461TIP3    H228799   2.664   0.352  12.082 -0.2533 -0.0845 -0.5515
 2462TIP3   OH228800   6.565   3.043   0.010 -0.8063 -0.3717  0.0767
 2462TIP3    H128801   6.611   3.105   0.067 -2.2578  0.3435  0.4877
 2462TIP3    H228802   6.474   3.073   0.010 -1.3198 -1.8785 -0.5765
 2463TIP3   OH228803   5.230   3.196   6.326  0.3323 -0.0178  0.5811
 2463TIP3    H128804   5.152   3.220   6.276 -1.0109 -2.0821  1.6146
 2463TIP3    H228805   5.289   3.156   6.261  0.2403  0.8996 -0.0723
 2464TIP3   OH228806   0.143   3.527  16.218 -0.2166 -0.1862  0.4781
 2464TIP3    H128807   0.105   3.570  16.142  0.8750 -0.8903 -0.4740
 2464TIP3    H228808   0.118   3.583  16.292  0.7566  1.8090 -0.6730
 2465TIP3   OH228809   0.031   2.159   5.598  0.0733 -0.1277  0.1127
 2465TIP3    H128810  -0.020   2.214   5.657  0.6805  0.6788 -0.1152
 2465TIP3    H228811  -0.033   2.098   5.562 -0.6885  0.7066  0.0275
 2466TIP3   OH228812   5.423   4.237   0.698 -0.0324 -0.0807 -0.4174
 2466TIP3    H128813   5.370   4.292   0.640  0.9968  0.1813 -1.1283
 2466TIP3    H228814   5.482   4.190   0.639  1.2571  0.4518  0.4289
 2467TIP3   OH228815   3.460   3.823  12.583 -0.0026  0.2943  0.3078
 2467TIP3    H128816   3.455   3.737  12.625  1.7176 -0.5240 -1.1100
 2467TIP3    H228817   3.450   3.885  12.655 -2.1589 -1.0650  1.2417
 2468TIP3   OH228818   4.773   5.820  16.577  0.1447 -0.1535  0.0104
 2468TIP3    H128819   4.853   5.804  16.626 -0.5087 -1.1903  0.7520
 2468TIP3    H228820   4.758   5.739  16.528 -0.0707  0.2923 -0.6748
 2469TIP3   OH228821   3.375   5.401   4.932  0.2739 -0.2002 -0.3470
 2469TIP3    H128822   3.422   5.392   4.849 -0.3652  2.0006 -0.9880
 2469TIP3    H228823   3.433   5.361   4.997  1.5990 -0.3478 -1.5964
 2470TIP3   OH228824   3.856   2.828   6.145 -0.7576 -0.4001  0.3577
 2470TIP3    H128825   3.926   2.894   6.150 -2.0462  0.9754  0.6262
 2470TIP3    H228826   3.820   2.826   6.233 -0.6688 -1.5578  0.3712
 2471TIP3   OH228827   1.395   1.988   3.248  0.4869  0.4704  0.2556
 2471TIP3    H128828   1.399   2.084   3.250  2.7532  0.4975 -2.8727
 2471TIP3    H228829   1.313   1.968   3.204 -0.6944  0.9062  2.1920
 2472TIP3   OH228830   1.297   1.073  12.958 -0.5620  0.1341  0.0567
 2472TIP3    H128831   1.382   1.030  12.973  0.4641  2.1071  0.0385
 2472TIP3    H228832   1.257   1.023  12.888  1.6379  0.6071 -1.5956
 2473TIP3   OH228833   2.509   5.064   0.709 -0.0129  0.6061 -0.1683
 2473TIP3    H128834   2.585   5.099   0.755 -0.2331 -0.8046  1.3347
 2473TIP3    H228835   2.538   4.980   0.675 -0.7979  0.2131  0.1297
 2474TIP3   OH228836   2.792   0.923   0.952  0.1459 -0.0984 -0.0703
 2474TIP3    H128837   2.728   0.982   0.989  0.4145 -0.8948  1.6961
 2474TIP3    H228838   2.857   0.980   0.910  0.0306  0.8176  0.9964
 2475TIP3   OH228839   4.018   0.932   2.337  0.0433 -0.2546  0.3005
 2475TIP3    H128840   3.967   0.894   2.266  0.2430  2.4116 -1.3648
 2475TIP3    H228841   4.104   0.891   2.331  0.7841  1.5697 -2.5222
 2476TIP3   OH228842   5.636   1.680  16.820  0.2483  0.2400  0.1126
 2476TIP3    H128843   5.576   1.622  16.866  0.8178 -1.3604 -1.0947
 2476TIP3    H228844   5.587   1.708  16.742  0.8562 -0.6814 -0.6213
 2477TIP3   OH228845   3.464   3.341   3.953 -0.1934 -0.2326  0.6398
 2477TIP3    H128846   3.503   3.300   3.875 -0.5082  0.4821  0.1109
 2477TIP3    H228847   3.376   3.365   3.926 -0.8886 -1.4796  1.7223
 2478TIP3   OH228848   1.036   6.599   4.225  0.3447 -0.0636  0.3732
 2478TIP3    H128849   0.941   6.604   4.226  0.3536  0.0151  1.3633
 2478TIP3    H228850   1.062   6.620   4.315  1.3418  0.8132 -0.1143
 2479TIP3   OH228851   2.577   4.803   2.851 -0.3654  0.0772  0.3344
 2479TIP3    H128852   2.498   4.778   2.899 -1.5734  4.8095  1.0553
 2479TIP3    H228853   2.544   4.850   2.774  1.7111  0.7675 -0.1505
 2480TIP3   OH228854   3.662   1.836  11.597  0.3770 -0.0202  0.7676
 2480TIP3    H128855   3.600   1.797  11.659 -1.3283  0.8774 -0.3482
 2480TIP3    H228856   3.709   1.762  11.560 -1.1983 -0.8575  0.4073
 2481TIP3   OH228857   4.727   2.313  14.232 -0.7312  0.3141 -0.2256
 2481TIP3    H128858   4.783   2.237  14.245 -1.5521  0.0753  2.1627
 2481TIP3    H228859   4.779   2.387  14.263 -0.7325  0.4380 -0.5195
 2482TIP3   OH228860   0.549   3.695  11.127  0.1719  0.2993  0.3302
 2482TIP3    H128861   0.488   3.694  11.200  0.7896  1.2278  0.8765
 2482TIP3    H228862   0.495   3.676  11.050 -0.4839 -0.6400  1.0188
 2483TIP3   OH228863   6.756   2.237  11.694 -0.0395 -0.0951  0.3434
 2483TIP3    H128864   6.806   2.278  11.624 -1.5624  0.5290 -0.3883
 2483TIP3    H228865   6.785   2.145  11.693  1.1983  0.2887  0.0477
 2484TIP3   OH228866   4.650   3.195   0.566 -0.0887  0.4722  0.0250
 2484TIP3    H128867   4.689   3.230   0.646 -0.6495  1.2073 -0.0174
 2484TIP3    H228868   4.610   3.271   0.524  1.4623  0.3551 -1.6892
 2485TIP3   OH228869   1.653   6.157  14.321 -0.5229 -0.1164  0.1289
 2485TIP3    H128870   1.733   6.108  14.341 -0.1675  0.3761 -0.0697
 2485TIP3    H228871   1.585   6.090  14.310 -0.2060 -0.5162  0.6186
 2486TIP3   OH228872   3.227   2.573   1.305  0.0419 -0.1117  0.3785
 2486TIP3    H128873   3.315   2.602   1.330  0.6065 -0.8402 -0.6934
 2486TIP3    H228874   3.238   2.541   1.215 -1.3408 -0.1316  0.2122
 2487TIP3   OH228875   3.142   0.208  14.784  0.6643 -0.0876  0.4696
 2487TIP3    H128876   3.134   0.210  14.689 -0.6309  0.7851  0.5767
 2487TIP3    H228877   3.062   0.165  14.814  0.5776  0.5747  1.2046
 2488TIP3   OH228878   3.672   3.106  11.679 -0.0502 -0.6959  0.0613
 2488TIP3    H128879   3.729   3.085  11.753  0.6033 -1.8551 -0.7563
 2488TIP3    H228880   3.729   3.102  11.602 -0.2961  2.4291 -0.3126
 2489TIP3   OH228881   6.714   4.557  11.168 -0.5246  0.3352  0.2955
 2489TIP3    H128882   6.619   4.549  11.158 -0.6286  1.5483  0.1178
 2489TIP3    H228883   6.741   4.605  11.090  0.3919 -0.9748 -0.1945
 2490TIP3   OH228884   1.730   3.333  14.942 -0.0067  0.1490  0.2884
 2490TIP3    H128885   1.787   3.388  14.997  0.2441 -1.2433  1.4446
 2490TIP3    H228886   1.791   3.274  14.898 -0.1531  1.6170 -1.9505
 2491TIP3   OH228887   6.693   1.056  10.995  0.3369  0.1453 -0.1022
 2491TIP3    H128888   6.655   0.987  10.940 -0.3415  0.0509  0.4724
 2491TIP3    H228889   6.632   1.130  10.986  0.2486  0.1466  0.4806
 2492TIP3   OH228890   4.130   2.863  15.102  0.2561 -0.2517  0.2996
 2492TIP3    H128891   4.194   2.868  15.032  0.2525 -1.2250  0.2252
 2492TIP3    H228892   4.176   2.897  15.179 -0.4785  3.0989 -0.6484
 2493TIP3   OH228893   2.365   4.488  16.412  0.3658 -0.4128 -0.4522
 2493TIP3    H128894   2.420   4.566  16.412  0.1820 -0.2767  0.1869
 2493TIP3    H228895   2.323   4.488  16.326 -1.0193  1.1927  0.1834
 2494TIP3   OH228896   6.265   2.904  14.025  0.0089  0.4119  0.3167
 2494TIP3    H128897   6.349   2.945  14.005  0.0740  0.3597  0.4847
 2494TIP3    H228898   6.273   2.815  13.991  0.2796  0.1842  0.9740
 2495TIP3   OH228899   2.990   3.707  12.077 -0.1642  0.0017  0.1942
 2495TIP3    H128900   2.922   3.699  12.010  0.9504  0.0986 -0.9764
 2495TIP3    H228901   3.072   3.713  12.027  0.6482  0.4731  1.5581
 2496TIP3   OH228902   0.530   4.423   3.546  0.0868  0.5776  0.0691
 2496TIP3    H128903   0.577   4.394   3.624 -0.4385  0.1018  0.2116
 2496TIP3    H228904   0.482   4.501   3.574 -0.0085  0.4754  0.1901
 2497TIP3   OH228905   4.044   0.822   3.466  0.0871 -0.1469 -0.1788
 2497TIP3    H128906   4.099   0.744   3.471  3.5386  2.0905 -1.9340
 2497TIP3    H228907   4.082   0.883   3.530 -2.2753  0.3357  0.8355
 2498TIP3   OH228908   3.931   3.325   0.471  0.4729 -0.0127  0.2528
 2498TIP3    H128909   3.940   3.408   0.517  0.2141  0.7186 -0.9916
 2498TIP3    H228910   3.936   3.348   0.378 -3.4689 -0.8717 -0.2834
 2499TIP3   OH228911   6.229   6.780   1.636 -0.1388 -0.1205  0.3888
 2499TIP3    H128912   6.276   6.800   1.555  0.4538 -1.1498  0.4755
 2499TIP3    H228913   6.298   6.766   1.701 -0.5682 -1.0869  0.6472
 2500TIP3   OH228914   0.025   2.575   1.472 -0.5030 -0.0587  0.5510
 2500TIP3    H128915  -0.063   2.548   1.445 -0.9073 -0.2408  2.0051
 2500TIP3    H228916   0.083   2.507   1.436 -0.7753  0.7679 -1.5685
 2501TIP3   OH228917   0.127   3.717  16.435  0.4189 -0.3192  0.4312
 2501TIP3    H128918   0.207   3.748  16.477  0.0633  0.9207  0.2066
 2501TIP3    H228919   0.062   3.716  16.505  0.3118 -0.0991  0.3371
 2502TIP3   OH228920   0.853   3.199  10.853 -0.2067  0.0791  0.4828
 2502TIP3    H128921   0.886   3.268  10.912  0.8676  0.1135 -0.1668
 2502TIP3    H228922   0.901   3.212  10.772  0.1842 -1.6153  0.4381
 2503TIP3   OH228923   0.493   3.414   3.548  0.5560  0.2629 -0.1325
 2503TIP3    H128924   0.400   3.393   3.554 -0.0423  2.9216  0.2935
 2503TIP3    H228925   0.521   3.374   3.466 -1.1097  0.0123 -0.5977
 2504TIP3   OH228926   1.411   4.913  13.231  0.8984 -0.1471  0.2959
 2504TIP3    H128927   1.450   4.988  13.275  0.9271 -1.0019  1.7371
 2504TIP3    H228928   1.476   4.843  13.239  1.7994  0.2401 -2.8915
 2505TIP3   OH228929   3.260   6.679  11.767 -0.2626 -0.3143  0.6303
 2505TIP3    H128930   3.328   6.649  11.706 -0.5029 -1.5865  0.9684
 2505TIP3    H228931   3.300   6.752  11.814  0.9937 -1.2550  1.0515
 2506TIP3   OH228932   3.576   0.697  10.644 -0.3223 -0.3733 -0.0707
 2506TIP3    H128933   3.576   0.619  10.587 -0.2118 -0.5842  0.2192
 2506TIP3    H228934   3.488   0.697  10.683 -0.6790  0.2274 -0.8664
 2507TIP3   OH228935   5.010   3.040  10.681 -0.6681  0.5681  0.0668
 2507TIP3    H128936   5.099   3.006  10.679 -0.8720 -0.1547  2.1944
 2507TIP3    H228937   5.016   3.127  10.642  1.2123  1.0720  1.4186
 2508TIP3   OH228938   3.403   0.516   3.410  0.3622  0.2728 -0.4999
 2508TIP3    H128939   3.458   0.447   3.447 -0.6046 -1.0671 -1.5202
 2508TIP3    H228940   3.442   0.597   3.441  0.6546 -0.7589  1.9841
 2509TIP3   OH228941   1.223   3.236  13.408 -0.8428 -0.1910 -0.2789
 2509TIP3    H128942   1.196   3.314  13.361 -1.5798 -0.5846 -0.5147
 2509TIP3    H228943   1.147   3.213  13.462  0.2278  0.6438  1.6175
 2510TIP3   OH228944   3.729   5.983   4.511  0.0673  0.3493  0.1293
 2510TIP3    H128945   3.751   5.924   4.439  0.5300 -0.8709  1.2565
 2510TIP3    H228946   3.635   5.972   4.524  0.1912 -0.3110  0.4791
 2511TIP3   OH228947   1.845   6.530  13.179  0.3622 -0.3063 -0.3539
 2511TIP3    H128948   1.770   6.584  13.203  0.8804  0.4774 -0.4694
 2511TIP3    H228949   1.865   6.481  13.259  0.2917  0.1633 -0.0417
 2512TIP3   OH228950   6.045   2.418   2.082 -0.1331  0.4937 -1.2056
 2512TIP3    H128951   6.077   2.419   2.172 -0.4143  0.4475 -1.1025
 2512TIP3    H228952   6.030   2.326   2.063 -2.1544  0.6576 -0.5376
 2513TIP3   OH228953   2.433   1.575   3.358  0.0135  0.1623  0.3762
 2513TIP3    H128954   2.383   1.515   3.414  0.9797 -0.2753  0.7742
 2513TIP3    H228955   2.366   1.630   3.317 -0.9351 -1.5636 -0.4583
 2514TIP3   OH228956   2.641   1.468   4.499  0.1495  0.0291 -0.3583
 2514TIP3    H128957   2.634   1.378   4.465 -2.2039  0.6249 -1.5247
 2514TIP3    H228958   2.699   1.460   4.574 -0.6081 -2.6181  0.0036
 2515TIP3   OH228959   0.236   3.044  14.437 -0.1921  0.0077 -0.6046
 2515TIP3    H128960   0.312   3.102  14.441 -0.7853  0.7822 -0.5643
 2515TIP3    H228961   0.161   3.103  14.426 -0.9205 -0.6749  0.6366
 2516TIP3   OH228962   4.745   3.498   0.558 -0.1963  0.5466 -0.4161
 2516TIP3    H128963   4.661   3.452   0.550  0.0103  0.0704  0.1126
 2516TIP3    H228964   4.781   3.469   0.642  0.1046  1.4084 -0.2405
 2517TIP3   OH228965   1.539   6.573   5.760 -0.1458 -0.4615  0.1128
 2517TIP3    H128966   1.482   6.650   5.764  0.0275 -0.3303  0.0823
 2517TIP3    H228967   1.480   6.498   5.765 -0.2039 -0.3219  1.9574
 2518TIP3   OH228968   4.282   2.554   5.534 -0.4474  0.3540  0.3260
 2518TIP3    H128969   4.282   2.522   5.624  3.7146 -0.0769  0.2895
 2518TIP3    H228970   4.352   2.620   5.532 -1.0514  0.9921 -2.3848
 2519TIP3   OH228971   3.242   6.768  12.589 -0.8523 -0.3172  0.7472
 2519TIP3    H128972   3.224   6.846  12.642 -1.0871  0.1152  0.0305
 2519TIP3    H228973   3.332   6.744  12.611 -0.6234  0.4252  0.6123
 2520TIP3   OH228974   5.204   0.194  16.397 -0.3256  0.4646 -0.1476
 2520TIP3    H128975   5.255   0.259  16.445  2.0937 -0.9686 -0.7023
 2520TIP3    H228976   5.165   0.139  16.465 -0.4922  1.0695  0.2584
 2521TIP3   OH228977   3.908   3.582  14.978  0.2822  0.3685  0.1979
 2521TIP3    H128978   3.994   3.621  14.995  1.0643 -1.4614  0.4972
 2521TIP3    H228979   3.864   3.646  14.922  1.3254  1.9416  1.1346
 2522TIP3   OH228980   3.789   3.012  14.776  0.0569  0.3972  0.2405
 2522TIP3    H128981   3.768   2.925  14.808 -1.2728 -0.5217 -2.9115
 2522TIP3    H228982   3.708   3.043  14.735  0.9729  2.4531 -0.1094
 2523TIP3   OH228983   5.785   2.182   5.988  0.4257 -0.4162  0.1258
 2523TIP3    H128984   5.715   2.195   5.925  0.5532 -2.0316 -0.3715
 2523TIP3    H228985   5.740   2.151   6.067  0.4752 -0.4374  0.1454
 2524TIP3   OH228986   2.439   3.026  14.900  0.0493  0.0570 -0.4329
 2524TIP3    H128987   2.479   3.082  14.833  0.0076 -0.9793 -1.3540
 2524TIP3    H228988   2.392   3.086  14.957 -0.3804  0.9222 -1.6731
 2525TIP3   OH228989   3.261   4.453  14.803 -0.4180 -0.1126 -0.6847
 2525TIP3    H128990   3.311   4.372  14.792 -0.8634 -0.4100 -0.5359
 2525TIP3    H228991   3.239   4.480  14.714 -2.1679 -1.3518 -0.6657
 2526TIP3   OH228992   4.798   1.313  11.386 -0.4098 -0.7839 -0.3596
 2526TIP3    H128993   4.784   1.334  11.479  1.3327 -0.8202 -0.0642
 2526TIP3    H228994   4.711   1.289  11.354 -1.4632  1.3798  0.7094
 2527TIP3   OH228995   2.328   6.224   4.724  0.0539  0.4823  0.2534
 2527TIP3    H128996   2.413   6.241   4.766 -0.1036  2.3060 -0.1164
 2527TIP3    H228997   2.350   6.198   4.635  0.2564  0.0839  0.4185
 2528TIP3   OH228998   2.450   0.881  13.033 -0.6860 -0.0772 -0.2757
 2528TIP3    H128999   2.381   0.866  13.097  0.5989 -0.5704  1.0253
 2528TIP3    H229000   2.514   0.936  13.079 -0.1319  0.2448 -1.4051
 2529TIP3   OH229001   3.412   6.155  12.928  0.1717  0.8985 -0.1332
 2529TIP3    H129002   3.491   6.120  12.969 -0.7751  1.1523  1.9603
 2529TIP3    H229003   3.355   6.079  12.918  0.6612  0.7102 -1.6767
 2530TIP3   OH229004   5.234   3.401  14.774  0.3074  0.2872 -0.1750
 2530TIP3    H129005   5.295   3.471  14.754 -1.3248  1.1412 -2.3151
 2530TIP3    H229006   5.170   3.403  14.703 -0.3675 -2.6972  0.2709
 2531TIP3   OH229007   2.067   3.419   1.190  0.5254  0.2799 -0.1111
 2531TIP3    H129008   2.031   3.376   1.112  2.2251 -1.6354  0.0956
 2531TIP3    H229009   2.094   3.506   1.159  3.1574 -1.2075 -2.2724
 2532TIP3   OH229010   4.982   3.588  16.139  0.6038 -0.6746  0.4984
 2532TIP3    H129011   4.920   3.529  16.095  0.1549 -1.1571  1.7765
 2532TIP3    H229012   5.064   3.539  16.141 -0.0216 -1.6883  2.4639
 2533TIP3   OH229013   4.699   1.521  15.946 -0.0032 -0.2779 -0.6603
 2533TIP3    H129014   4.686   1.458  15.875 -2.5367 -0.7444  0.1848
 2533TIP3    H229015   4.712   1.467  16.024 -2.2707  0.2168  0.0809
 2534TIP3   OH229016   2.804   6.127  14.393 -0.2724 -0.2891  0.0478
 2534TIP3    H129017   2.836   6.148  14.480  1.5585 -2.7010  0.0070
 2534TIP3    H229018   2.723   6.078  14.408 -1.0647  1.0779  0.3087
 2535TIP3   OH229019   5.018   3.142   4.630 -0.0745 -0.0088  0.5125
 2535TIP3    H129020   4.940   3.160   4.681  0.0791  2.7936 -0.1957
 2535TIP3    H229021   5.078   3.214   4.650  1.7245 -1.2456 -0.1967
 2536TIP3   OH229022   1.011   5.643   1.611  0.3822  0.2924  0.0132
 2536TIP3    H129023   1.027   5.551   1.587  0.2297  0.2124  0.2128
 2536TIP3    H229024   0.987   5.639   1.703  0.9911  0.6013  0.1863
 2537TIP3   OH229025   3.682   4.203  12.275  0.2731  0.5439  0.1759
 2537TIP3    H129026   3.763   4.186  12.228 -0.6784  2.1843 -2.1608
 2537TIP3    H229027   3.662   4.121  12.320  1.6596 -0.8336 -1.6526
 2538TIP3   OH229028   0.036   0.027   3.542  0.6205  0.0373 -0.3340
 2538TIP3    H129029  -0.015   0.039   3.622  1.8227  1.4064  0.2649
 2538TIP3    H229030   0.116  -0.018   3.571  0.2292 -1.1565 -1.0829
 2539TIP3   OH229031   5.900   1.840   5.903 -0.2277  0.4269  0.6113
 2539TIP3    H129032   5.995   1.837   5.913 -0.1319  0.9967 -0.0691
 2539TIP3    H229033   5.866   1.841   5.993  0.4536  1.5140  0.8678
 2540TIP3   OH229034   5.525   2.331  14.561 -0.2317  0.0300 -0.0524
 2540TIP3    H129035   5.611   2.368  14.544  0.0362  0.0469  1.3112
 2540TIP3    H229036   5.540   2.236  14.560 -0.1859  0.0348  0.2680
 2541TIP3   OH229037   3.774   0.863  13.076 -0.8185  0.3903 -0.6779
 2541TIP3    H129038   3.702   0.925  13.087 -0.5119  0.8033 -0.9817
 2541TIP3    H229039   3.836   0.886  13.146 -1.1486 -0.2077 -0.1806
 2542TIP3   OH229040   4.170   0.096   4.580  0.0343  0.3981 -0.4556
 2542TIP3    H129041   4.092   0.043   4.561  1.2399 -1.5639 -0.0496
 2542TIP3    H229042   4.244   0.037   4.563  1.4350  2.1039 -0.4315
 2543TIP3   OH229043   6.172   0.961   6.009  0.0809  0.0095  0.2649
 2543TIP3    H129044   6.077   0.976   6.007 -0.0014 -0.5543 -0.2113
 2543TIP3    H229045   6.182   0.877   6.054  0.5179  1.2604  2.5761
 2544TIP3   OH229046   1.787   0.108  13.628  0.3737 -0.5834 -0.2728
 2544TIP3    H129047   1.840   0.088  13.551  0.3623 -0.5237 -0.2959
 2544TIP3    H229048   1.697   0.094  13.599  0.3300  0.0841 -0.4644
 2545TIP3   OH229049   3.592   0.933   3.294  0.4142 -0.0472 -0.6215
 2545TIP3    H129050   3.532   0.859   3.286 -0.0918  0.5311 -2.3373
 2545TIP3    H229051   3.571   0.989   3.219  2.5129  0.5820 -0.7645
 2546TIP3   OH229052   6.785   4.907  11.814 -0.0404 -0.6722 -0.0718
 2546TIP3    H129053   6.798   4.898  11.719  1.2670 -0.7962  0.1159
 2546TIP3    H229054   6.773   4.818  11.845  2.0396 -0.8786  0.2235
 2547TIP3   OH229055   1.037   3.939   6.473  0.2873 -0.3923 -0.2511
 2547TIP3    H129056   0.961   3.960   6.526  1.1191 -0.2459  0.8839
 2547TIP3    H229057   1.000   3.898   6.394 -0.9182 -1.0523  0.6438
 2548TIP3   OH229058   1.476   4.940  11.632 -0.8081  0.3355  0.4633
 2548TIP3    H129059   1.394   4.965  11.589 -0.0125  1.0875 -0.6389
 2548TIP3    H229060   1.496   4.853  11.596 -0.6537  0.5408  0.0505
 2549TIP3   OH229061   0.675   0.879  11.714 -0.1938  0.3811 -0.0883
 2549TIP3    H129062   0.640   0.877  11.803  1.3213 -1.7049  0.4985
 2549TIP3    H229063   0.610   0.833  11.661 -0.2970  0.1286  0.2554
 2550TIP3   OH229064   2.470   0.252   6.103 -0.7026  0.0298 -0.0111
 2550TIP3    H129065   2.493   0.340   6.071 -0.0851 -0.0860  0.0934
 2550TIP3    H229066   2.408   0.268   6.174 -0.8553  0.3693 -0.2197
 2551TIP3   OH229067   2.553   3.771  16.075 -0.7960  0.3002  0.0204
 2551TIP3    H129068   2.481   3.832  16.059 -1.6981 -0.4948  0.9966
 2551TIP3    H229069   2.607   3.815  16.141  0.0819  1.2530 -1.2878
 2552TIP3   OH229070   4.745   3.364  16.207 -0.6067  0.3205 -0.5435
 2552TIP3    H129071   4.800   3.296  16.167 -0.5650 -0.3117  0.5622
 2552TIP3    H229072   4.710   3.413  16.132 -0.6424 -0.9228 -1.3678
 2553TIP3   OH229073   5.028   6.248   0.209  0.2791 -0.0162 -0.0887
 2553TIP3    H129074   5.105   6.191   0.204  1.0549  1.0932 -1.3611
 2553TIP3    H229075   5.063   6.333   0.237 -0.4558  0.5426 -0.8364
 2554TIP3   OH229076   6.136   1.990   1.881  0.5265 -0.3287 -0.2879
 2554TIP3    H129077   6.071   2.007   1.949  0.8773 -0.3583  0.0614
 2554TIP3    H229078   6.181   2.073   1.869  1.6110 -0.7511  0.7467
 2555TIP3   OH229079   4.748   1.486  11.637 -0.5504 -0.2400 -0.0564
 2555TIP3    H129080   4.689   1.518  11.569  0.5815 -1.4920 -1.6744
 2555TIP3    H229081   4.796   1.563  11.666  0.2431  0.0433 -2.0016
 2556TIP3   OH229082   2.652   4.885   2.453  0.1592 -0.1762  0.2645
 2556TIP3    H129083   2.613   4.928   2.529 -1.0418 -0.4004 -0.2027
 2556TIP3    H229084   2.694   4.807   2.488 -1.1218 -0.7320  0.6071
 2557TIP3   OH229085   4.044   5.890   6.172 -0.0200 -0.2580  0.1456
 2557TIP3    H129086   4.069   5.976   6.208  0.4790 -0.4798  0.3364
 2557TIP3    H229087   3.960   5.870   6.214  1.2301 -1.1655  2.3209
 2558TIP3   OH229088   2.191   2.086  10.921 -0.5219 -0.0954  0.1566
 2558TIP3    H129089   2.223   2.155  10.980 -1.2949  0.1146  0.3372
 2558TIP3    H229090   2.096   2.099  10.919 -0.5633 -0.4987 -0.6387
 2559TIP3   OH229091   5.920   6.046  15.421  0.1056 -0.1936  0.1835
 2559TIP3    H129092   5.945   5.954  15.410  0.3210  0.0778 -1.6069
 2559TIP3    H229093   5.843   6.057  15.366  1.4166  1.2622 -1.3898
 2560TIP3   OH229094   2.398   6.767  12.608 -0.5455  0.7507 -0.1103
 2560TIP3    H129095   2.469   6.786  12.546 -0.5859 -0.8335 -0.6546
 2560TIP3    H229096   2.391   6.847  12.661  1.3151  1.1207 -0.3667
 2561TIP3   OH229097   4.062   6.075  14.871 -0.6950 -0.1565  0.8011
 2561TIP3    H129098   4.065   6.107  14.781  3.0669 -0.1969  0.8109
 2561TIP3    H229099   4.012   6.141  14.919 -3.4336 -0.5395 -1.4054
 2562TIP3   OH229100   2.562   6.400  13.072  0.4826 -0.1337 -0.2690
 2562TIP3    H129101   2.536   6.443  13.154 -0.4781 -1.5592  0.1858
 2562TIP3    H229102   2.518   6.450  13.004 -2.0473 -1.4170  0.3745
 2563TIP3   OH229103   1.893   1.249  13.665 -0.0149  0.1685 -0.4120
 2563TIP3    H129104   1.818   1.302  13.637 -0.6795 -0.6212 -0.1534
 2563TIP3    H229105   1.970   1.302  13.644 -0.7025  1.5935  0.6188
 2564TIP3   OH229106   2.148   3.357  12.374 -0.0352 -0.5780  0.1094
 2564TIP3    H129107   2.098   3.438  12.374 -0.4111 -0.7973 -0.9940
 2564TIP3    H229108   2.239   3.384  12.387 -0.1870 -0.0069 -0.0317
 2565TIP3   OH229109   5.111   3.148   2.629 -0.5541  0.2739  0.4662
 2565TIP3    H129110   5.135   3.220   2.570  0.0001 -0.4206 -0.1591
 2565TIP3    H229111   5.067   3.191   2.702 -1.5281  1.1304 -0.5963
 2566TIP3   OH229112   0.869   2.323   3.103  0.2621 -0.9467 -0.0326
 2566TIP3    H129113   0.814   2.276   3.041  1.4618 -0.9567 -1.1120
 2566TIP3    H229114   0.826   2.311   3.187 -1.0505 -1.4649 -0.7617
 2567TIP3   OH229115   4.528   2.238  12.921 -0.1232 -0.6049 -0.1176
 2567TIP3    H129116   4.621   2.224  12.938  0.7812  1.0023 -3.3553
 2567TIP3    H229117   4.493   2.274  13.003  2.0369 -1.3886  1.1737
 2568TIP3   OH229118   4.098   3.985   1.266  0.1430 -0.1132 -0.4693
 2568TIP3    H129119   4.109   4.062   1.321  2.0018  0.2390 -1.2999
 2568TIP3    H229120   4.143   3.915   1.314  0.3693 -0.1711 -0.7657
 2569TIP3   OH229121   0.756   3.816   4.965 -0.1105 -0.3572  0.4454
 2569TIP3    H129122   0.727   3.886   4.906  1.0919  1.5559  2.0661
 2569TIP3    H229123   0.679   3.797   5.019 -0.5063 -0.4382 -0.1467
 2570TIP3   OH229124   1.125   2.967  11.389  0.4479 -0.5159  0.0165
 2570TIP3    H129125   1.111   2.876  11.364 -1.2549 -0.5967  1.1783
 2570TIP3    H229126   1.217   2.971  11.414  0.3808 -2.1020  0.6198
 2571TIP3   OH229127   4.518   0.886   5.300  0.3252  0.2126 -0.0204
 2571TIP3    H129128   4.504   0.803   5.254 -0.6069  0.2291  0.2348
 2571TIP3    H229129   4.508   0.865   5.392 -1.4928  0.9267 -0.0494
 2572TIP3   OH229130   0.678   2.609  11.862 -0.4021 -0.2805 -0.5686
 2572TIP3    H129131   0.761   2.604  11.910 -0.8994 -0.3561  0.2818
 2572TIP3    H229132   0.639   2.692  11.890 -0.3406  0.0456 -1.4250
 2573TIP3   OH229133   3.817   0.437  16.311  0.1467  0.3104 -0.3107
 2573TIP3    H129134   3.765   0.489  16.249  1.1682  0.5576 -0.9705
 2573TIP3    H229135   3.892   0.408  16.260  0.6306 -0.0869  0.6268
 2574TIP3   OH229136   4.266   5.810   6.020  0.3866 -0.0867 -0.0146
 2574TIP3    H129137   4.292   5.732   6.070 -1.1715 -0.8577 -0.3486
 2574TIP3    H229138   4.183   5.837   6.060 -0.9134 -0.7481 -2.1912
 2575TIP3   OH229139   2.078   2.819   1.098  0.0105  0.7900  0.4603
 2575TIP3    H129140   2.139   2.892   1.114 -0.2686  0.7785  1.6044
 2575TIP3    H229141   2.031   2.808   1.181  0.4793 -1.1061  0.5033
 2576TIP3   OH229142   4.868   6.305   2.728  0.6756 -0.1844  1.1370
 2576TIP3    H129143   4.882   6.238   2.661 -1.1844 -0.2074  0.7495
 2576TIP3    H229144   4.849   6.385   2.679  0.0074 -0.0396  1.6131
 2577TIP3   OH229145   0.711   1.727  14.993 -0.0016 -0.7147  0.0196
 2577TIP3    H129146   0.753   1.719  14.908  0.7101  0.9519  0.1814
 2577TIP3    H229147   0.624   1.760  14.974 -0.2862 -1.5422 -0.1353
 2578TIP3   OH229148   6.083   0.932  12.535 -0.1335 -0.6217  0.2389
 2578TIP3    H129149   6.027   0.898  12.605  1.2594 -0.1746  1.6243
 2578TIP3    H229150   6.028   0.993  12.488 -1.1283 -0.9743  0.9297
 2579TIP3   OH229151   5.878   3.951  11.980  0.1269  0.2878  0.0440
 2579TIP3    H129152   5.829   4.016  11.929  0.0113  0.2145  0.0611
 2579TIP3    H229153   5.965   3.949  11.940 -0.2587 -0.4967 -0.7943
 2580TIP3   OH229154   0.706   5.391  11.912  0.2474 -0.2995 -0.6248
 2580TIP3    H129155   0.766   5.344  11.855  1.2947  1.3435 -0.9084
 2580TIP3    H229156   0.759   5.418  11.987 -0.1260  1.0756 -0.8323
 2581TIP3   OH229157   6.349   5.251  14.648  0.0239  0.5051 -0.0520
 2581TIP3    H129158   6.411   5.189  14.611 -0.0060 -0.3691  1.3220
 2581TIP3    H229159   6.385   5.272  14.734 -0.7408  1.2439  0.0989
 2582TIP3   OH229160   5.672   6.561  14.869 -0.5592 -0.2005 -0.5292
 2582TIP3    H129161   5.757   6.597  14.842  0.1099  0.3516  2.1682
 2582TIP3    H229162   5.688   6.467  14.879  0.0297  0.0346  0.9161
 2583TIP3   OH229163   1.046   5.540   1.029 -0.0200 -0.2107 -0.6108
 2583TIP3    H129164   1.037   5.453   1.067 -1.3765  0.9116  1.7837
 2583TIP3    H229165   1.141   5.555   1.026  0.2354 -2.0064 -1.6325
 2584TIP3   OH229166   1.978   4.881  12.506  0.1229  0.3811 -0.4984
 2584TIP3    H129167   1.894   4.844  12.477  1.6609 -2.4173 -1.5662
 2584TIP3    H229168   1.988   4.961  12.454 -1.6875  0.5496 -0.6231
 2585TIP3   OH229169   3.607   1.962  16.187 -0.0072  0.4141 -0.0797
 2585TIP3    H129170   3.556   2.043  16.185 -0.4764  0.1237  0.0484
 2585TIP3    H229171   3.650   1.962  16.272 -1.9235 -0.6425  0.9195
 2586TIP3   OH229172   3.840   4.784   1.036  0.0263 -0.4636 -0.1036
 2586TIP3    H129173   3.931   4.754   1.039  0.0013 -0.5205  0.0975
 2586TIP3    H229174   3.789   4.704   1.050 -0.0140 -0.0851  2.1264
 2587TIP3   OH229175   5.008   5.596  11.802  0.9264  0.2920  0.1561
 2587TIP3    H129176   5.095   5.632  11.820  2.3215 -3.3627  1.1956
 2587TIP3    H229177   4.968   5.585  11.889 -0.6463  1.9436 -0.3128
 2588TIP3   OH229178   6.500   2.893  15.178  0.2416 -0.2159  0.8055
 2588TIP3    H129179   6.555   2.971  15.188 -0.2958  0.1364  1.0381
 2588TIP3    H229180   6.521   2.838  15.254  0.7607 -0.3835  0.5385
 2589TIP3   OH229181   4.034   6.204  15.220 -0.2980  0.0241 -0.0816
 2589TIP3    H129182   4.004   6.275  15.162 -5.4351  0.0923  2.3120
 2589TIP3    H229183   4.072   6.249  15.295 -0.5134  0.1806 -0.0651
 2590TIP3   OH229184   5.987   3.113   6.681  0.5999  0.0064  0.1714
 2590TIP3    H129185   6.042   3.039   6.653  0.3421 -0.8665  1.9087
 2590TIP3    H229186   5.899   3.089   6.654  0.5799 -0.1333  0.3562
 2591TIP3   OH229187   5.282   2.860  15.624  0.1387 -0.0175  0.3372
 2591TIP3    H129188   5.256   2.949  15.647 -1.0222 -0.3457  0.3120
 2591TIP3    H229189   5.206   2.824  15.579  0.8252 -0.8209 -0.1940
 2592TIP3   OH229190   3.879   5.921  10.997 -0.2138 -0.0166 -0.1392
 2592TIP3    H129191   3.871   6.014  10.974  0.0891  0.8724  3.0734
 2592TIP3    H229192   3.858   5.918  11.090  1.9955 -2.8697  0.3225
 2593TIP3   OH229193   3.580   3.650  11.803  0.3459  0.1919 -0.8215
 2593TIP3    H129194   3.556   3.660  11.711  0.8410  0.5403 -0.9142
 2593TIP3    H229195   3.656   3.593  11.803 -0.7329 -1.2867 -0.4900
 2594TIP3   OH229196   6.645   4.103  15.741  0.5500  0.3473  0.5361
 2594TIP3    H129197   6.620   4.157  15.666  0.1358  1.1506  1.2377
 2594TIP3    H229198   6.721   4.148  15.779  0.8990 -0.1763  0.4638
 2595TIP3   OH229199   0.029   0.434  16.492  0.6346  0.8862  0.1049
 2595TIP3    H129200  -0.040   0.500  16.481  0.4963  0.6875 -0.2592
 2595TIP3    H229201   0.034   0.391  16.406 -0.3018 -0.5707  0.7599
 2596TIP3   OH229202   2.861   6.421   0.632 -0.3123 -0.2233  0.3861
 2596TIP3    H129203   2.921   6.491   0.658  0.2964 -0.7755  0.4907
 2596TIP3    H229204   2.815   6.398   0.713  0.0520 -0.4819  0.5211
 2597TIP3   OH229205   5.382   4.155   6.213  0.0506 -0.4408 -0.3821
 2597TIP3    H129206   5.380   4.112   6.128  1.0184 -0.3405 -0.4613
 2597TIP3    H229207   5.302   4.207   6.216  2.2359  3.2728 -3.1753
 2598TIP3   OH229208   6.767   3.414   2.159  0.9222 -0.1173 -0.2977
 2598TIP3    H129209   6.854   3.403   2.121  1.3674 -0.0411  0.6907
 2598TIP3    H229210   6.747   3.329   2.199  0.4904 -0.1749 -0.6363
 2599TIP3   OH229211   2.093   2.770   4.893  0.0189 -0.8110  0.2062
 2599TIP3    H129212   1.998   2.765   4.881 -0.2401  0.7416  1.3939
 2599TIP3    H229213   2.128   2.709   4.829 -1.7352 -0.4664 -1.1417
 2600TIP3   OH229214   5.967   4.861   0.042  0.2608 -0.2331 -0.0241
 2600TIP3    H129215   5.969   4.913  -0.038 -0.6459 -1.2658 -0.7287
 2600TIP3    H229216   5.966   4.926   0.113 -2.1859  0.7591 -0.9153
 2601TIP3   OH229217   0.583   1.610   1.360  0.5469  0.0986  0.5434
 2601TIP3    H129218   0.649   1.675   1.335  0.0921  0.3110 -0.1392
 2601TIP3    H229219   0.514   1.661   1.402 -0.0277  0.1255 -0.4210
 2602TIP3   OH229220   1.508   2.245   3.163 -0.8593 -0.0026  0.1233
 2602TIP3    H129221   1.570   2.299   3.114 -0.2812 -0.1133  0.7303
 2602TIP3    H229222   1.458   2.199   3.095 -0.6787  0.5316 -0.3773
 2603TIP3   OH229223   1.901   6.127   3.769  0.2512 -0.3537 -0.2219
 2603TIP3    H129224   1.975   6.175   3.731  0.6804  0.5296  1.6449
 2603TIP3    H229225   1.840   6.195   3.798 -1.3814 -1.0790 -1.8448
 2604TIP3   OH229226   3.577   6.491   0.578  0.8647  0.8585 -0.4687
 2604TIP3    H129227   3.669   6.473   0.592  0.3979 -1.8977 -0.6393
 2604TIP3    H229228   3.550   6.428   0.511 -1.6331  0.0803  1.2030
 2605TIP3   OH229229   2.036   4.444   4.813  0.0428  0.9949  0.3307
 2605TIP3    H129230   2.029   4.373   4.876 -1.2622  1.9123  1.2565
 2605TIP3    H229231   2.109   4.498   4.845  0.0688  0.8818  0.4585
 2606TIP3   OH229232   0.044   5.863   1.508  0.1128  0.3205 -0.1406
 2606TIP3    H129233  -0.012   5.788   1.528  0.1643  0.6834  1.4837
 2606TIP3    H229234  -0.016   5.938   1.505  0.2212  0.3898 -0.5687
 2607TIP3   OH229235   4.356   3.785  12.720 -0.5231  0.0964  0.1433
 2607TIP3    H129236   4.307   3.771  12.801  1.6931  0.4635  1.5972
 2607TIP3    H229237   4.381   3.877  12.723  0.7633 -0.2316 -0.2796
 2608TIP3   OH229238   4.425   3.469   6.443 -0.1346  0.5085 -0.1136
 2608TIP3    H129239   4.463   3.440   6.360  0.1799  1.9894 -0.4858
 2608TIP3    H229240   4.345   3.416   6.452  0.9882 -1.2700 -0.2405
 2609TIP3   OH229241   0.041   5.105   6.584 -0.1364  0.1608 -0.1510
 2609TIP3    H129242  -0.030   5.110   6.649 -2.1553  0.9527 -2.3294
 2609TIP3    H229243   0.037   5.015   6.551  0.9229 -0.2564  0.8403
 2610TIP3   OH229244   6.413   3.452  12.130  0.3614 -0.7304 -0.1542
 2610TIP3    H129245   6.480   3.427  12.066  0.6264  0.1540 -0.2301
 2610TIP3    H229246   6.331   3.420  12.092  0.6467 -1.1661 -0.4127
 2611TIP3   OH229247   1.941   1.894  11.477 -0.2893 -0.3807 -0.1196
 2611TIP3    H129248   1.860   1.940  11.501  2.5211  3.8352  1.9527
 2611TIP3    H229249   1.961   1.927  11.389 -0.0558 -0.2286 -0.0109
 2612TIP3   OH229250   6.372   0.010  14.064 -0.1480  0.3906 -0.0382
 2612TIP3    H129251   6.353  -0.029  13.979  0.5579 -0.7459  0.3169
 2612TIP3    H229252   6.365   0.104  14.049 -1.9178  0.1442 -0.8847
 2613TIP3   OH229253   4.413   2.842   2.338  0.3998 -0.3435  0.4268
 2613TIP3    H129254   4.397   2.921   2.286 -0.3840  0.8429  2.4228
 2613TIP3    H229255   4.420   2.873   2.428 -2.4078 -2.8294  1.5912
 2614TIP3   OH229256   4.597   3.806  15.757  0.4376 -0.0974 -0.1824
 2614TIP3    H129257   4.511   3.764  15.746  1.1424 -1.8487  0.7503
 2614TIP3    H229258   4.595   3.839  15.847  1.2687 -1.4767  0.3696
 2615TIP3   OH229259   2.319   5.234   5.220 -0.1562  0.5172  0.4194
 2615TIP3    H129260   2.302   5.167   5.154  1.0757  1.2568 -0.6663
 2615TIP3    H229261   2.393   5.283   5.186 -1.6301  3.0518  0.7247
 2616TIP3   OH229262   0.529   5.417  16.069 -0.1187  0.4190 -0.8950
 2616TIP3    H129263   0.547   5.435  16.162 -0.4113 -0.4805 -0.6652
 2616TIP3    H229264   0.614   5.392  16.034 -0.0574  0.5124 -0.8193
 2617TIP3   OH229265   3.497   2.236  12.948 -0.8171  0.4716 -0.3588
 2617TIP3    H129266   3.584   2.236  12.909 -1.1055  1.3817 -1.0222
 2617TIP3    H229267   3.462   2.149  12.930  0.1789 -0.1094  0.4505
 2618TIP3   OH229268   0.441   4.485   4.517  0.2600 -0.4703 -0.2968
 2618TIP3    H129269   0.516   4.544   4.520  1.2590 -1.5441 -2.7915
 2618TIP3    H229270   0.463   4.413   4.576  0.0936  0.4040  0.8576
 2619TIP3   OH229271   4.254   4.259  12.184  0.0061 -0.0284 -0.5399
 2619TIP3    H129272   4.271   4.183  12.240 -1.4413 -1.0973 -1.5063
 2619TIP3    H229273   4.200   4.317  12.238 -0.4731 -0.5632 -0.4357
 2620TIP3   OH229274   0.009   0.068   4.292 -0.6889 -0.0693 -0.1150
 2620TIP3    H129275   0.093   0.064   4.246 -0.6013 -0.3106  0.0700
 2620TIP3    H229276  -0.056   0.058   4.222 -0.6327  2.5355 -0.6008
 2621TIP3   OH229277   5.202   6.538   2.231  0.1437 -0.6708 -0.2159
 2621TIP3    H129278   5.114   6.524   2.198  0.3827 -0.4542 -0.9651
 2621TIP3    H229279   5.194   6.533   2.326 -1.0164  1.3530 -0.1865
 2622TIP3   OH229280   5.156   1.339   2.594 -0.3013 -0.2007 -0.3013
 2622TIP3    H129281   5.123   1.385   2.517 -0.6942  0.5917  0.3360
 2622TIP3    H229282   5.182   1.409   2.654 -1.1105 -0.8107  0.7723
 2623TIP3   OH229283   6.154   3.179   4.721  0.0433  0.5070  0.1772
 2623TIP3    H129284   6.060   3.160   4.723 -0.1818  1.6323  1.8361
 2623TIP3    H229285   6.187   3.131   4.645 -1.6682 -0.8451  0.2524
 2624TIP3   OH229286   5.195   0.764  14.454  0.0183 -0.4786 -0.3750
 2624TIP3    H129287   5.190   0.752  14.549  1.6329  0.4704 -0.1542
 2624TIP3    H229288   5.104   0.771  14.426 -0.4299  0.9067  1.3318
 2625TIP3   OH229289   4.141   6.022   5.105  0.2577  0.7072 -0.5451
 2625TIP3    H129290   4.120   5.943   5.056  0.8920  0.0136  0.2873
 2625TIP3    H229291   4.222   6.054   5.065  1.2287 -0.3184  0.5703
 2626TIP3   OH229292   4.449   1.043  14.895 -0.4904  0.0297 -0.3351
 2626TIP3    H129293   4.506   1.051  14.971  1.0740 -2.2534 -1.2181
 2626TIP3    H229294   4.503   1.071  14.821 -1.4378  0.5624 -0.8403
 2627TIP3   OH229295   2.919   3.467   3.818 -0.4890 -0.7002 -0.2858
 2627TIP3    H129296   2.823   3.464   3.824 -0.5788 -1.3588 -1.8016
 2627TIP3    H229297   2.943   3.549   3.862 -1.9227  0.5161 -1.6824
 2628TIP3   OH229298   1.267   6.598  16.237 -0.0881 -0.2308 -0.1353
 2628TIP3    H129299   1.319   6.541  16.181  1.6665  1.0278  0.1626
 2628TIP3    H229300   1.191   6.621  16.184 -0.8645 -2.8789 -0.2237
 2629TIP3   OH229301   6.674   2.494   2.266 -0.3168  0.0081  0.1713
 2629TIP3    H129302   6.686   2.462   2.177 -1.9212 -2.1528  0.6990
 2629TIP3    H229303   6.687   2.589   2.259 -0.9750 -0.0562 -2.4592
 2630TIP3   OH229304   5.159   1.190  11.670  0.1935 -0.6717  0.2816
 2630TIP3    H129305   5.120   1.241  11.740 -1.2638 -1.2830 -0.0677
 2630TIP3    H229306   5.176   1.253  11.600 -0.7470 -0.5062  0.2002
 2631TIP3   OH229307   0.766   3.558   3.040  0.4178 -0.0279  0.1864
 2631TIP3    H129308   0.781   3.652   3.031  1.1808 -0.1552  0.0833
 2631TIP3    H229309   0.802   3.520   2.960  1.0561 -0.5069  0.6943
 2632TIP3   OH229310   6.077   1.629   4.039  0.1068  0.5345  0.0087
 2632TIP3    H129311   6.101   1.639   3.947 -0.2934 -2.5924 -0.4986
 2632TIP3    H229312   6.011   1.560   4.039  1.6325 -1.0218  2.8210
 2633TIP3   OH229313   2.640   0.922  16.727 -0.1920  0.2503 -0.0351
 2633TIP3    H129314   2.561   0.902  16.777 -0.4537  1.8084  0.2131
 2633TIP3    H229315   2.689   0.982  16.783  0.8517 -0.1859 -0.4723
 2634TIP3   OH229316   5.017   3.632   2.972 -0.0313 -0.0701 -0.0342
 2634TIP3    H129317   5.071   3.652   2.896  0.6094  2.1563  0.9536
 2634TIP3    H229318   5.073   3.653   3.047 -0.9063 -1.5321  1.0418
 2635TIP3   OH229319   2.978   5.734   0.842 -0.3677 -0.3234  0.2842
 2635TIP3    H129320   3.021   5.800   0.789  0.2994  0.3006  1.5897
 2635TIP3    H229321   2.948   5.781   0.920 -0.4165 -1.4278  0.9458
 2636TIP3   OH229322   1.184   5.882   6.116  0.0478 -0.0325 -0.3423
 2636TIP3    H129323   1.156   5.792   6.135 -0.6490  0.1907 -0.2953
 2636TIP3    H229324   1.104   5.934   6.123  0.2651  0.4492 -1.3229
 2637TIP3   OH229325   6.185   0.703  10.557  0.0605  0.2808 -0.3293
 2637TIP3    H129326   6.175   0.608  10.547 -1.4483  0.5882 -2.1305
 2637TIP3    H229327   6.255   0.726  10.495  0.1544  0.3813 -0.1840
 2638TIP3   OH229328   0.971   4.031   3.634 -0.1726  0.2760  0.1876
 2638TIP3    H129329   1.040   4.097   3.623  0.2245  0.0415  1.2046
 2638TIP3    H229330   1.008   3.968   3.696 -1.2331  0.0503  0.6031
 2639TIP3   OH229331   1.827   6.615   0.789  0.2827  0.5806  0.0930
 2639TIP3    H129332   1.911   6.570   0.779  0.3360  0.3363  1.4944
 2639TIP3    H229333   1.767   6.547   0.819 -0.2398  0.9004 -0.2360
 2640TIP3   OH229334   6.399   4.309   5.240 -0.0574 -0.4265  0.3358
 2640TIP3    H129335   6.352   4.242   5.190 -0.9139  0.9821 -0.7785
 2640TIP3    H229336   6.491   4.281   5.237 -0.5541 -2.1851  0.9181
 2641TIP3   OH229337   5.359   0.393   5.874  0.1277 -0.6720 -0.3893
 2641TIP3    H129338   5.331   0.361   5.788  0.6072 -0.1963 -0.7259
 2641TIP3    H229339   5.300   0.465   5.893 -1.1687 -1.9509  0.5198
 2642TIP3   OH229340   3.994   3.454   0.234  0.2486  0.4239 -0.4956
 2642TIP3    H129341   4.002   3.389   0.163  0.7016  0.1292 -0.1757
 2642TIP3    H229342   3.985   3.538   0.188  0.1668  0.1933 -0.9095
 2643TIP3   OH229343   1.461   1.066  15.316 -0.1792  0.3650 -0.4003
 2643TIP3    H129344   1.403   1.003  15.273  0.0821  0.4367 -0.8670
 2643TIP3    H229345   1.497   1.018  15.391 -0.6256  0.2326 -0.2690
 2644TIP3   OH229346   3.805   0.874   2.534 -0.1349  0.1772 -0.3894
 2644TIP3    H129347   3.828   0.782   2.546 -0.5294  0.2629  1.2262
 2644TIP3    H229348   3.882   0.913   2.492  0.3843 -0.7155 -0.2762
 2645TIP3   OH229349   6.508   5.219   1.173  0.2319  0.1538  0.3294
 2645TIP3    H129350   6.474   5.251   1.089 -0.0263 -0.7354  0.0900
 2645TIP3    H229351   6.546   5.134   1.152 -0.3992 -0.3543  1.2385
 2646TIP3   OH229352   4.667   3.850  14.985  0.0424  0.8906  0.7009
 2646TIP3    H129353   4.720   3.821  15.059  0.4611 -0.3089 -0.0474
 2646TIP3    H229354   4.592   3.895  15.025 -0.6651 -1.2795  1.9264
 2647TIP3   OH229355   0.344   5.765  13.341 -0.1430  0.1252  0.2763
 2647TIP3    H129356   0.423   5.742  13.389  0.1644  0.1383 -0.2258
 2647TIP3    H229357   0.373   5.828  13.275 -0.5550  0.0598  0.0305
 2648TIP3   OH229358   0.482   6.781  13.160  0.2319  0.3701 -0.8243
 2648TIP3    H129359   0.490   6.875  13.143 -2.8027  0.7011 -0.7417
 2648TIP3    H229360   0.490   6.740  13.073  0.4028  0.7881 -1.0060
 2649TIP3   OH229361   3.823   4.040   5.340  0.1251 -0.2497 -0.1450
 2649TIP3    H129362   3.909   4.014   5.304  0.0909 -1.4291  0.6110
 2649TIP3    H229363   3.842   4.117   5.393  0.5374  0.1576 -0.8650
 2650TIP3   OH229364   1.015   6.289  13.670  0.3273 -0.3325 -0.0512
 2650TIP3    H129365   0.962   6.367  13.685  1.4129  0.3803  0.1018
 2650TIP3    H229366   1.036   6.256  13.757  0.5098 -0.3573 -0.1035
 2651TIP3   OH229367   0.252   3.873   2.603 -0.0252  0.0709  0.2035
 2651TIP3    H129368   0.346   3.857   2.598 -0.3343 -1.7301 -0.4301
 2651TIP3    H229369   0.235   3.888   2.696  1.1239  2.0854  0.1104
 2652TIP3   OH229370   0.144   2.248   0.494  0.2964  0.3141  0.1468
 2652TIP3    H129371   0.225   2.297   0.481 -0.9373  2.1827 -0.5422
 2652TIP3    H229372   0.077   2.314   0.512 -1.3901 -1.1013 -0.7467
 2653TIP3   OH229373   3.755   3.611   1.719  1.1596 -0.0098  0.4513
 2653TIP3    H129374   3.730   3.651   1.802 -2.3390 -0.8722 -0.1396
 2653TIP3    H229375   3.745   3.517   1.734  0.4208 -0.1624 -0.9923
 2654TIP3   OH229376   4.336   0.438   1.375 -0.2948 -0.0762  0.5589
 2654TIP3    H129377   4.317   0.344   1.380 -1.8322  0.2530  1.3106
 2654TIP3    H229378   4.420   0.443   1.330 -0.4225 -1.7896  0.0876
 2655TIP3   OH229379   6.421   2.080  16.474  0.2343  0.3377  0.1464
 2655TIP3    H129380   6.442   1.987  16.489  1.7837  0.5221 -0.7343
 2655TIP3    H229381   6.335   2.079  16.433  0.3241 -0.7398 -0.0326
 2656TIP3   OH229382   4.612   2.197  12.669  0.1060  0.2021 -0.0072
 2656TIP3    H129383   4.565   2.118  12.644  2.3831 -1.6003  1.2315
 2656TIP3    H229384   4.586   2.212  12.760  0.1193  0.5389 -0.0596
 2657TIP3   OH229385   5.434   3.935   0.935 -0.4594 -0.6629  0.1165
 2657TIP3    H129386   5.501   3.972   0.877  0.4777 -0.3152  1.3877
 2657TIP3    H229387   5.440   3.841   0.921 -2.1387 -0.4221 -2.3690
 2658TIP3   OH229388   4.108   1.486  14.825  0.3780  0.2065  0.4106
 2658TIP3    H129389   4.151   1.488  14.910 -0.5441 -4.4243  1.0946
 2658TIP3    H229390   4.016   1.499  14.844  0.1332 -1.1172  0.1935
 2659TIP3   OH229391   6.360   3.626  14.119  0.6331 -0.2974 -0.8254
 2659TIP3    H129392   6.308   3.704  14.098  0.8763 -0.6569 -2.8716
 2659TIP3    H229393   6.295   3.558  14.136  0.4004  0.5741  2.0266
 2660TIP3   OH229394   5.374   0.932   3.216  0.2336  0.4038 -0.6054
 2660TIP3    H129395   5.380   1.027   3.232 -1.7967  0.3264  0.7751
 2660TIP3    H229396   5.439   0.894   3.274 -2.0302  0.6680  2.2011
 2661TIP3   OH229397   6.085   5.545   1.144 -0.1627 -0.1840 -0.1740
 2661TIP3    H129398   6.008   5.502   1.107  0.0520  0.3542 -1.2522
 2661TIP3    H229399   6.085   5.633   1.106  1.3041 -0.3655 -0.6354
 2662TIP3   OH229400   3.785   3.570  13.063 -0.0198 -0.0278  0.3425
 2662TIP3    H129401   3.690   3.561  13.064 -0.3070  2.5423  3.1402
 2662TIP3    H229402   3.806   3.600  12.975 -1.6670 -1.7353 -0.6568
 2663TIP3   OH229403   1.607   5.852  11.974  0.5362 -0.0432  0.7166
 2663TIP3    H129404   1.628   5.934  12.018  1.5213  0.5343 -0.8107
 2663TIP3    H229405   1.678   5.839  11.911 -0.6663 -1.0313 -0.4677
 2664TIP3   OH229406   1.772   3.212   2.480 -0.2983 -0.3897 -0.6530
 2664TIP3    H129407   1.848   3.184   2.430  0.3554  0.0419  0.0762
 2664TIP3    H229408   1.809   3.250   2.560 -1.1995  1.5717 -1.1448
 2665TIP3   OH229409   6.703   1.745  11.996 -0.0876  0.1913  0.4314
 2665TIP3    H129410   6.675   1.836  12.009 -1.0877 -0.3230  2.0280
 2665TIP3    H229411   6.782   1.752  11.943 -0.7578  1.9353 -0.3805
 2666TIP3   OH229412   5.615   1.762   2.036 -0.0037  0.0028 -0.0592
 2666TIP3    H129413   5.640   1.790   2.124  2.2829 -0.9568 -0.3679
 2666TIP3    H229414   5.566   1.681   2.049 -1.5721  0.9996  0.4401
 2667TIP3   OH229415   1.840   2.245   4.542  0.0642  0.4101  1.0155
 2667TIP3    H129416   1.863   2.200   4.623  0.0336  0.2786  0.9508
 2667TIP3    H229417   1.924   2.257   4.497  0.0122 -0.0459  0.7914
 2668TIP3   OH229418   0.595   1.781   4.054 -0.2350  0.3125 -0.9670
 2668TIP3    H129419   0.660   1.775   3.984 -0.0064 -0.5559 -0.6803
 2668TIP3    H229420   0.638   1.834   4.121 -0.0946  0.3482 -1.0835
 2669TIP3   OH229421   5.282   1.643   3.341 -0.0412  0.0111 -0.5391
 2669TIP3    H129422   5.240   1.565   3.377  0.3212  0.5456  1.0555
 2669TIP3    H229423   5.210   1.696   3.306 -0.5747  0.3089  0.9915
 2670TIP3   OH229424   2.838   3.513  11.726  0.1399 -0.4057 -0.4092
 2670TIP3    H129425   2.800   3.588  11.771  0.8077  0.2760 -0.9560
 2670TIP3    H229426   2.930   3.537  11.714  0.0924 -0.8052 -1.6408
 2671TIP3   OH229427   6.404   6.339   3.038 -0.1737  0.1254  0.5149
 2671TIP3    H129428   6.322   6.389   3.034 -0.0024  0.3241 -0.8768
 2671TIP3    H229429   6.450   6.374   3.113 -1.4407 -0.0974  1.4080
 2672TIP3   OH229430   5.758   4.568  10.977  0.0480 -0.0266  0.0500
 2672TIP3    H129431   5.735   4.661  10.976 -1.1937 -0.3204  0.3916
 2672TIP3    H229432   5.853   4.567  10.962 -0.1133  1.2303 -1.1531
 2673TIP3   OH229433   5.069   5.519   1.089 -0.1467  0.2616 -0.0816
 2673TIP3    H129434   5.009   5.451   1.122 -0.3038 -0.3362 -1.5510
 2673TIP3    H229435   5.023   5.557   1.014  0.5202  1.0839 -0.0815
 2674TIP3   OH229436   5.449   1.814   0.739  0.1837 -0.2928  0.9473
 2674TIP3    H129437   5.444   1.864   0.821 -0.9151  4.3262 -1.7278
 2674TIP3    H229438   5.534   1.839   0.702 -1.1160  1.0338 -1.2352
 2675TIP3   OH229439   1.781   0.149  16.523  0.9114  0.2929  0.3629
 2675TIP3    H129440   1.740   0.072  16.483  3.5871 -0.6057 -0.7745
 2675TIP3    H229441   1.817   0.115  16.606  2.0201  0.3232 -0.1006
 2676TIP3   OH229442   2.026   4.844  15.040  0.1878  0.0659  0.4329
 2676TIP3    H129443   2.036   4.937  15.019 -0.7098  0.4182  1.5197
 2676TIP3    H229444   2.029   4.840  15.136  1.8742 -1.2259  0.3620
 2677TIP3   OH229445   3.980   0.257  11.939  0.3721  0.3362  0.0714
 2677TIP3    H129446   4.072   0.249  11.964  0.2245 -0.3747  0.3857
 2677TIP3    H229447   3.932   0.246  12.021 -0.0416 -0.3811 -0.2645
 2678TIP3   OH229448   6.510   6.591  16.951 -0.2103  0.1263  0.3005
 2678TIP3    H129449   6.598   6.608  16.916  0.5740 -3.2997  0.4519
 2678TIP3    H229450   6.451   6.634  16.889  1.4375 -0.6782 -1.9024
 2679TIP3   OH229451   4.266   4.666   4.432 -0.1781  0.0034 -0.2708
 2679TIP3    H129452   4.268   4.699   4.342  0.4512  0.4556 -0.0942
 2679TIP3    H229453   4.244   4.574   4.423 -0.4844  0.1296 -0.8693
 2680TIP3   OH229454   3.705   4.904  14.439  0.5805  0.2706 -0.2508
 2680TIP3    H129455   3.756   4.879  14.362 -0.3023  0.8850 -1.0501
 2680TIP3    H229456   3.622   4.936  14.403 -0.6416 -1.3823  1.0546
 2681TIP3   OH229457   4.320   5.469   1.979 -0.5270  0.6762  0.3325
 2681TIP3    H129458   4.305   5.392   1.925  1.5416 -0.3485  1.1534
 2681TIP3    H229459   4.414   5.486   1.970 -0.5709  1.8062  1.8580
 2682TIP3   OH229460   5.684   0.157  14.358  0.3019  0.1200 -0.7118
 2682TIP3    H129461   5.615   0.224  14.361  0.2920  0.2348 -2.7606
 2682TIP3    H229462   5.668   0.102  14.434 -1.9124  0.2969 -1.0275
 2683TIP3   OH229463   3.798   1.195  14.138 -0.5962  0.3669 -0.0061
 2683TIP3    H129464   3.704   1.206  14.154 -0.9994 -2.1199 -0.5751
 2683TIP3    H229465   3.837   1.191  14.225 -1.5760 -3.0169  0.3147
 2684TIP3   OH229466   5.450   5.227   2.308  0.1263  0.1558 -0.1854
 2684TIP3    H129467   5.509   5.169   2.261  0.9082  0.2320  0.6861
 2684TIP3    H229468   5.450   5.194   2.398 -2.6048 -0.9793 -0.5624
 2685TIP3   OH229469   1.191   3.759  13.478  0.2899  0.1768  0.0966
 2685TIP3    H129470   1.177   3.792  13.389  1.7538  0.8474  0.1022
 2685TIP3    H229471   1.128   3.806  13.531 -1.0313 -0.6855 -0.6722
 2686TIP3   OH229472   6.543   3.110  12.078  0.3145 -0.1170  0.1301
 2686TIP3    H129473   6.568   3.195  12.115 -0.5394  0.4283 -0.5118
 2686TIP3    H229474   6.553   3.122  11.983  0.6056 -0.8796  0.0575
 2687TIP3   OH229475   0.423   2.056  16.423 -0.0369  0.3735 -0.6920
 2687TIP3    H129476   0.463   2.045  16.509 -0.7100  0.9516 -0.2977
 2687TIP3    H229477   0.459   2.138  16.390  2.8866 -1.5267 -2.4679
 2688TIP3   OH229478   0.457   2.223  11.364 -0.0985 -0.1159 -0.2497
 2688TIP3    H129479   0.436   2.301  11.415  1.3114  0.2693 -0.2328
 2688TIP3    H229480   0.524   2.178  11.416  1.8625  0.6339 -2.0385
 2689TIP3   OH229481   1.592   3.658  15.824 -0.0730  0.5904 -0.3082
 2689TIP3    H129482   1.618   3.688  15.911 -3.0792 -0.2097  0.9306
 2689TIP3    H229483   1.654   3.589  15.802  1.6399  1.8389  0.5271
 2690TIP3   OH229484   1.345   0.908  14.163 -0.1263 -0.5313  0.0791
 2690TIP3    H129485   1.373   0.991  14.123 -1.1769  0.2526  0.9631
 2690TIP3    H229486   1.424   0.875  14.206 -0.1223  0.8859  1.2082
 2691TIP3   OH229487   2.051   1.462  13.599  0.5353 -0.0124  0.0521
 2691TIP3    H129488   2.096   1.514  13.666 -0.7277  0.6423  0.4164
 2691TIP3    H229489   1.983   1.520  13.566 -1.4945 -1.7341  1.0932
 2692TIP3   OH229490   3.413   3.684   5.423 -0.3761 -0.4751 -0.0731
 2692TIP3    H129491   3.375   3.629   5.355  0.1992 -2.6415  1.3280
 2692TIP3    H229492   3.494   3.640   5.447  0.2764  1.1890  0.8214
 2693TIP3   OH229493   1.019   1.334   5.104 -0.0986  0.0119 -0.2133
 2693TIP3    H129494   1.057   1.283   5.176 -0.3721 -1.1603 -0.8914
 2693TIP3    H229495   1.093   1.351   5.046  0.3573  1.9510  0.9010
 2694TIP3   OH229496   3.044   3.050   2.128 -0.1934  0.5876  0.8487
 2694TIP3    H129497   3.036   3.075   2.036  0.0147 -0.4299  0.5444
 2694TIP3    H229498   3.095   3.120   2.168  0.1480  0.7862  0.0800
 2695TIP3   OH229499   1.400   1.559  16.199 -0.1378 -0.8371 -0.3030
 2695TIP3    H129500   1.412   1.653  16.210 -0.6396 -0.7490 -0.4959
 2695TIP3    H229501   1.467   1.534  16.135 -1.0185 -0.3228 -1.4577
 2696TIP3   OH229502   3.556   3.538  16.334  0.3259  0.0048  0.1436
 2696TIP3    H129503   3.516   3.452  16.349 -1.8562  0.9000 -0.3411
 2696TIP3    H229504   3.500   3.580  16.269  2.7334  0.8852 -1.4592
 2697TIP3   OH229505   5.992   6.231  14.642  0.0130  0.0201  0.1457
 2697TIP3    H129506   5.912   6.261  14.685 -0.0868 -0.9606  0.6647
 2697TIP3    H229507   6.061   6.246  14.706  0.2861  1.1091 -0.4029
 2698TIP3   OH229508   1.608   4.229  12.237  0.0948  0.0447  0.0594
 2698TIP3    H129509   1.627   4.310  12.284  2.2358  0.2570 -1.1440
 2698TIP3    H229510   1.601   4.162  12.306 -0.8820  1.0850  0.9844
 2699TIP3   OH229511   2.630   6.199   6.994 -0.5902 -0.0479  0.2367
 2699TIP3    H129512   2.712   6.249   6.996 -0.1394 -0.7083 -1.3908
 2699TIP3    H229513   2.657   6.108   6.984 -1.5288 -0.2015 -1.0492
 2700TIP3   OH229514   5.428   6.764   5.465  0.6061 -0.4432  0.3608
 2700TIP3    H129515   5.335   6.746   5.452  0.3153  0.1130  1.6039
 2700TIP3    H229516   5.439   6.768   5.560  1.9876 -0.9475  0.2388
 2701TIP3   OH229517   0.044   5.378  13.945  0.1962  0.0492  0.0597
 2701TIP3    H129518   0.125   5.408  13.903 -0.3942  0.1483 -1.0284
 2701TIP3    H229519   0.009   5.312  13.885 -0.7267  0.2785  0.3347
 2702TIP3   OH229520   0.389   2.815   0.445  0.2106 -0.2984 -0.2706
 2702TIP3    H129521   0.436   2.886   0.489 -2.6773  1.7708 -0.3007
 2702TIP3    H229522   0.436   2.802   0.363  0.1334  2.4528 -0.7965
 2703TIP3   OH229523   0.848   2.730  16.966 -0.3925  0.0878  0.2595
 2703TIP3    H129524   0.864   2.672  16.892  1.5326 -0.6356  1.2049
 2703TIP3    H229525   0.897   2.809  16.946 -0.0030 -0.0459  0.6709
 2704TIP3   OH229526   2.408   1.895  10.913  0.2557  0.4840 -0.3881
 2704TIP3    H129527   2.348   1.970  10.919 -0.6118 -0.1697 -0.8631
 2704TIP3    H229528   2.377   1.845  10.838  1.1834 -0.0603 -0.4186
 2705TIP3   OH229529   5.644   4.079   6.324 -0.0703  0.1263 -0.6004
 2705TIP3    H129530   5.693   4.154   6.355 -0.2905  0.1950 -0.4188
 2705TIP3    H229531   5.562   4.116   6.291 -0.5220 -0.1204  0.2401
 2706TIP3   OH229532   5.937   0.615  10.726 -0.7191  0.8181  0.2999
 2706TIP3    H129533   5.899   0.541  10.679 -0.2446  1.9332 -1.8927
 2706TIP3    H229534   6.016   0.637  10.677 -1.0333  2.9782  0.7076
 2707TIP3   OH229535   4.363   4.439   4.938  0.1522 -0.0265  0.4199
 2707TIP3    H129536   4.274   4.438   4.902  0.3929  0.5230 -0.2061
 2707TIP3    H229537   4.350   4.444   5.033 -0.4855  0.3544  0.3199
 2708TIP3   OH229538   4.818   1.641  15.392  0.1688  0.6765  0.1218
 2708TIP3    H129539   4.810   1.726  15.349 -0.1154  0.5711 -0.0324
 2708TIP3    H229540   4.908   1.640  15.426  0.2233  0.9738 -0.0111
 2709TIP3   OH229541   5.968   3.995  14.274  0.2393  0.1331  0.3174
 2709TIP3    H129542   6.032   3.952  14.331 -1.3551 -0.2744  1.8267
 2709TIP3    H229543   5.898   4.024  14.333 -0.4211  1.6306 -1.1460
 2710TIP3   OH229544   5.373   2.228  14.769  0.3539 -0.2619  0.1039
 2710TIP3    H129545   5.421   2.266  14.843  0.3731  0.3998 -0.2468
 2710TIP3    H229546   5.400   2.281  14.693  0.1583 -0.7897 -0.3362
 2711TIP3   OH229547   0.353   5.765   3.211  0.0016 -0.6185 -0.2867
 2711TIP3    H129548   0.309   5.686   3.179 -1.3412  0.3574 -0.8986
 2711TIP3    H229549   0.313   5.783   3.296 -0.4933  0.0522 -0.6637
 2712TIP3   OH229550   3.614   2.492  12.531 -0.4240 -0.1196 -0.2582
 2712TIP3    H129551   3.706   2.506  12.511 -0.4689  1.0924  0.3068
 2712TIP3    H229552   3.612   2.470  12.624 -0.5226 -2.3123 -0.7552
 2713TIP3   OH229553   5.982   2.733  10.718 -0.1663 -0.2380 -0.1441
 2713TIP3    H129554   5.981   2.657  10.660  0.9686  0.0867 -0.6024
 2713TIP3    H229555   6.028   2.703  10.796 -0.7498 -0.3624  0.1500
 2714TIP3   OH229556   2.155   6.645  12.696 -0.1673 -0.6493  0.3007
 2714TIP3    H129557   2.152   6.682  12.784  0.3489 -1.1693  0.5363
 2714TIP3    H229558   2.238   6.676  12.660 -0.0655 -1.0003  0.2377
 2715TIP3   OH229559   1.646   0.590   5.664 -0.0012  0.0864 -0.1590
 2715TIP3    H129560   1.593   0.651   5.715 -0.3299 -0.7576  0.5241
 2715TIP3    H229561   1.701   0.646   5.609 -0.4964  0.9895  0.2545
 2716TIP3   OH229562   0.248   1.544  12.639  0.7241  0.3373  0.1075
 2716TIP3    H129563   0.225   1.569  12.550  2.0638  1.4487  0.0531
 2716TIP3    H229564   0.171   1.498  12.673 -0.2473  1.0148 -1.1896
 2717TIP3   OH229565   2.055   1.232  11.628  0.3313  0.0958  0.5390
 2717TIP3    H129566   1.974   1.189  11.656 -0.1915  0.4967 -0.3337
 2717TIP3    H229567   2.045   1.323  11.656 -0.3503  0.5825 -1.2320
 2718TIP3   OH229568   5.827   1.361   1.002 -0.5092  0.0563  0.5444
 2718TIP3    H129569   5.844   1.447   1.040  1.4144 -0.1692  0.2675
 2718TIP3    H229570   5.810   1.379   0.910 -0.7954  0.2121  0.6286
 2719TIP3   OH229571   3.554   2.825  11.282  0.2132 -0.3888  0.5521
 2719TIP3    H129572   3.545   2.770  11.360  0.1388  0.3022  1.0373
 2719TIP3    H229573   3.565   2.914  11.316 -0.1976 -0.0273 -0.2284
 2720TIP3   OH229574   4.168   2.711   3.244 -0.0351 -0.3340  0.4454
 2720TIP3    H129575   4.222   2.673   3.174  0.0498  0.5286  0.0367
 2720TIP3    H229576   4.109   2.771   3.198 -1.3627 -1.2823  0.8899
 2721TIP3   OH229577   1.133   1.111  11.787 -0.6407  0.3096  0.8740
 2721TIP3    H129578   1.114   1.029  11.740 -0.1193  1.4688 -1.4144
 2721TIP3    H229579   1.162   1.171  11.719  1.1692  1.7364  2.8701
 2722TIP3   OH229580   4.316   2.833   5.016  0.2421  0.1692  0.2574
 2722TIP3    H129581   4.367   2.873   4.946 -0.3521  0.3508 -0.0810
 2722TIP3    H229582   4.264   2.765   4.972 -1.2960  1.3186  0.2306
 2723TIP3   OH229583   0.142   6.570   2.278  0.0095  0.7529  0.0526
 2723TIP3    H129584   0.184   6.495   2.237 -1.1405  0.7339 -1.1202
 2723TIP3    H229585   0.197   6.644   2.255 -0.8237  0.7976 -1.8650
 2724TIP3   OH229586   0.198   2.936  14.184  0.1962  0.2830 -0.2509
 2724TIP3    H129587   0.247   2.854  14.192  3.0823  2.0167  0.5492
 2724TIP3    H229588   0.218   2.984  14.265 -0.0993  2.4739 -1.4416
 2725TIP3   OH229589   2.988   1.649  12.620  0.5398 -0.0337  0.4631
 2725TIP3    H129590   3.060   1.593  12.592  0.6804  0.2182  0.3310
 2725TIP3    H229591   2.964   1.699  12.542 -1.5847 -2.0718 -0.2712
 2726TIP3   OH229592   0.967   2.004  10.933 -0.3610  0.1648  0.0607
 2726TIP3    H129593   0.891   1.947  10.940  0.3969 -0.7935  0.8013
 2726TIP3    H229594   0.942   2.071  10.870 -0.5895 -2.0643 -2.2872
 2727TIP3   OH229595   2.792   6.214  13.750  0.0770 -0.6054 -0.2470
 2727TIP3    H129596   2.865   6.275  13.744  0.6559 -1.2832 -0.1702
 2727TIP3    H229597   2.714   6.267  13.730  0.5210  0.2442  0.2559
 2728TIP3   OH229598   6.135   4.922   3.402  0.4061 -0.4213 -0.4331
 2728TIP3    H129599   6.078   4.961   3.469  1.1398 -0.0119 -0.0365
 2728TIP3    H229600   6.201   4.989   3.386  1.4647 -1.3503 -0.0165
 2729TIP3   OH229601   2.772   5.675  14.013 -0.5004  0.5175 -0.2394
 2729TIP3    H129602   2.735   5.608  14.070 -0.9053  1.2169  0.3367
 2729TIP3    H229603   2.711   5.749  14.020 -0.7901  0.4546 -1.9236
 2730TIP3   OH229604   3.185   4.858   3.042  0.0509  0.4535  0.0626
 2730TIP3    H129605   3.193   4.855   2.946  0.4065  1.5960  0.0507
 2730TIP3    H229606   3.253   4.919   3.070  0.2677 -0.2381  1.0908
 2731TIP3   OH229607   3.457   4.261  16.961 -0.0274  0.7365 -0.4499
 2731TIP3    H129608   3.536   4.254  17.015 -1.3786 -0.3136  1.4450
 2731TIP3    H229609   3.467   4.345  16.916  1.3026  1.4907  1.1796
 2732TIP3   OH229610   4.650   6.023  11.762 -0.1610 -0.6435  0.0670
 2732TIP3    H129611   4.670   5.947  11.707  0.8937  0.2428 -0.7830
 2732TIP3    H229612   4.629   6.093  11.701  1.7528  0.5606  0.7230
 2733TIP3   OH229613   0.934   1.758  15.802 -0.1748 -0.3532  0.8594
 2733TIP3    H129614   0.846   1.776  15.770  0.3529 -1.0979 -1.0536
 2733TIP3    H229615   0.937   1.799  15.889 -1.4528  2.1820 -0.2435
 2734TIP3   OH229616   1.042   5.389   4.472 -0.2317 -0.0193 -0.5650
 2734TIP3    H129617   1.118   5.355   4.425 -1.2699 -1.1070 -1.4511
 2734TIP3    H229618   1.049   5.484   4.462  0.3810 -0.1688 -1.6323
 2735TIP3   OH229619   0.788   0.679   0.564 -0.2088  0.1799  0.1130
 2735TIP3    H129620   0.708   0.732   0.571 -1.1008 -1.1863  0.2962
 2735TIP3    H229621   0.783   0.618   0.637  1.1849  0.3005  0.3223
 2736TIP3   OH229622   5.015   1.086   6.078  0.5837  0.0021 -0.4911
 2736TIP3    H129623   5.068   1.140   6.020  0.7340  0.5042  0.1104
 2736TIP3    H229624   5.078   1.038   6.131  0.4299  0.6957  0.3131
 2737TIP3   OH229625   3.347   4.292   5.723  0.0380  0.0591  0.3084
 2737TIP3    H129626   3.295   4.340   5.658 -1.7348  0.4593  1.9695
 2737TIP3    H229627   3.373   4.358   5.787 -2.9398 -1.1500  2.9375
 2738TIP3   OH229628   6.109   3.124   1.191  0.2195  0.3850  0.3721
 2738TIP3    H129629   6.148   3.197   1.238  0.2144 -0.9178  2.4488
 2738TIP3    H229630   6.024   3.157   1.161  1.0323  1.8294 -0.4264
 2739TIP3   OH229631   1.107   3.072  17.037  0.7155  0.2683 -0.3100
 2739TIP3    H129632   1.101   3.005  16.970  0.6829 -0.5009  0.4509
 2739TIP3    H229633   1.185   3.048  17.088 -0.0572  0.0382  0.7803
 2740TIP3   OH229634   2.282   4.785  11.504  0.3197  0.3392 -0.3782
 2740TIP3    H129635   2.287   4.752  11.414  0.6486  3.0320 -1.3932
 2740TIP3    H229636   2.207   4.845  11.504 -0.2467 -0.3294  1.3920
 2741TIP3   OH229637   3.185   4.755  16.657 -0.1282 -0.9276  0.2127
 2741TIP3    H129638   3.230   4.839  16.651 -0.5330 -0.7581 -0.4392
 2741TIP3    H229639   3.196   4.715  16.571 -1.0960 -0.9499  0.0942
 2742TIP3   OH229640   0.280   0.814  14.887  0.0132  0.0222  0.1301
 2742TIP3    H129641   0.232   0.736  14.862 -0.1734  0.2530 -0.2338
 2742TIP3    H229642   0.213   0.878  14.911  0.1271  0.3837 -0.4958
 2743TIP3   OH229643   5.600   6.454  13.950  0.0772 -0.0899 -0.0817
 2743TIP3    H129644   5.516   6.475  13.907  0.3273  2.1201  0.4234
 2743TIP3    H229645   5.621   6.533  14.000  3.5780  0.2821 -1.9702
 2744TIP3   OH229646   0.117   3.533   3.643 -0.1969  0.1209 -0.6609
 2744TIP3    H129647   0.043   3.522   3.584  0.5157 -0.2577 -1.4907
 2744TIP3    H229648   0.160   3.612   3.613 -0.5439  0.6197  0.1347
 2745TIP3   OH229649   2.283   5.899  11.528 -0.4590 -0.1807 -0.0782
 2745TIP3    H129650   2.265   5.955  11.603  0.3144  1.4866 -1.0992
 2745TIP3    H229651   2.377   5.879  11.535  0.3928  2.6807 -2.3196
 2746TIP3   OH229652   5.759   5.915  14.051  0.2037 -0.0998 -0.0255
 2746TIP3    H129653   5.766   5.882  13.962 -0.7834 -0.6428  0.0979
 2746TIP3    H229654   5.678   5.966  14.052  0.6243  0.5707  0.3492
 2747TIP3   OH229655   2.962   5.647  13.398 -0.0934  0.8638 -0.2802
 2747TIP3    H129656   2.909   5.655  13.319  0.3579 -0.8568 -0.7711
 2747TIP3    H229657   2.914   5.696  13.464 -1.9592 -0.1236 -0.8755
 2748TIP3   OH229658   6.627   1.052   6.211 -0.4011  1.1954  0.7738
 2748TIP3    H129659   6.634   1.089   6.299  0.4178  0.5935  0.9651
 2748TIP3    H229660   6.716   1.027   6.189 -0.4900  1.9836 -0.5150
 2749TIP3   OH229661   3.159   0.993  16.837 -0.1409  0.4165 -0.4169
 2749TIP3    H129662   3.083   1.021  16.786  1.0749 -0.2073 -2.6414
 2749TIP3    H229663   3.124   0.928  16.898 -1.2698 -0.5137 -2.0088
 2750TIP3   OH229664   3.295   2.228  15.021 -0.4087  0.1653  0.6550
 2750TIP3    H129665   3.294   2.132  15.026  0.7546  0.1490  0.7844
 2750TIP3    H229666   3.206   2.252  14.994  0.3005 -1.1596 -3.1136
 2751TIP3   OH229667   5.001   6.345   5.647  0.4780  0.3762 -0.1022
 2751TIP3    H129668   5.024   6.278   5.583  0.3920 -0.7660  1.0498
 2751TIP3    H229669   4.942   6.301   5.708  0.2965  1.5385  0.5716
 2752TIP3   OH229670   4.110   6.680  16.990  0.1114 -0.5625 -0.5035
 2752TIP3    H129671   4.146   6.673  17.079 -2.7071  0.0499  0.7250
 2752TIP3    H229672   4.157   6.753  16.951  0.5132 -0.0510  0.9007
 2753TIP3   OH229673   5.983   0.142   1.121  0.2406  0.5002  0.1788
 2753TIP3    H129674   5.968   0.232   1.150 -0.7428 -0.0108  1.2904
 2753TIP3    H229675   6.042   0.105   1.186 -0.9637 -0.2617  0.8616
 2754TIP3   OH229676   4.451   2.272  13.415 -0.9255  0.2011 -0.1659
 2754TIP3    H129677   4.522   2.258  13.478  0.2116 -0.5170 -1.5894
 2754TIP3    H229678   4.395   2.338  13.457  0.9815  1.3555  0.6468
 2755TIP3   OH229679   2.898   5.391   2.582 -0.2340  0.0652 -0.3767
 2755TIP3    H129680   2.968   5.431   2.531 -0.3158  0.4838 -0.1615
 2755TIP3    H229681   2.820   5.441   2.558 -0.1926  0.5393  0.4851
 2756TIP3   OH229682   2.493   5.070  14.120 -0.5608  0.3466  0.3781
 2756TIP3    H129683   2.472   5.046  14.210 -1.6178 -3.2117 -0.7321
 2756TIP3    H229684   2.587   5.051  14.112  0.0639  2.8448  1.3232
 2757TIP3   OH229685   5.972   2.102   4.959 -0.4149 -0.1553 -0.3489
 2757TIP3    H129686   6.031   2.161   4.911  0.5820 -0.4843  0.4437
 2757TIP3    H229687   5.887   2.115   4.919  0.4328 -0.5846 -2.3737
 2758TIP3   OH229688   3.364   5.336   1.640 -0.1550  0.3509 -0.5225
 2758TIP3    H129689   3.389   5.251   1.603 -1.7112 -0.2679 -0.2318
 2758TIP3    H229690   3.297   5.314   1.706 -0.0409  1.7412  0.0683
 2759TIP3   OH229691   4.874   5.833  12.385 -0.0323 -0.6522 -0.7927
 2759TIP3    H129692   4.804   5.781  12.424 -0.8293 -2.2349 -4.1289
 2759TIP3    H229693   4.835   5.871  12.306  1.4562  2.5776 -0.0341
 2760TIP3   OH229694   0.725   5.547  13.167  0.0084  0.5627  0.1409
 2760TIP3    H129695   0.787   5.575  13.100  0.8698  1.9053  1.4763
 2760TIP3    H229696   0.780   5.515  13.238 -0.8283  1.5665  1.2597
 2761TIP3   OH229697   2.412   5.082  12.235 -0.2168  0.2928  0.1277
 2761TIP3    H129698   2.354   5.139  12.184 -1.9520 -0.4095  1.2775
 2761TIP3    H229699   2.358   5.050  12.307  1.1867 -1.5617  0.4040
 2762TIP3   OH229700   5.675   5.193  16.081  0.1053  0.1319 -0.1522
 2762TIP3    H129701   5.646   5.280  16.054  0.8584  0.1952 -0.7631
 2762TIP3    H229702   5.705   5.205  16.171 -1.3210  0.1572  0.3445
 2763TIP3   OH229703   1.080   0.189  11.457  0.1400  0.4053  0.0314
 2763TIP3    H129704   1.104   0.199  11.365  0.1464 -1.3797 -0.1877
 2763TIP3    H229705   1.064   0.278  11.488  1.2415  1.1187 -1.3889
 2764TIP3   OH229706   5.787   4.631   1.471  0.2786 -0.5066  0.0422
 2764TIP3    H129707   5.700   4.630   1.431 -0.1156 -3.4771  0.8339
 2764TIP3    H229708   5.832   4.704   1.428 -2.6961  1.3531 -0.1014
 2765TIP3   OH229709   6.686   4.726   5.830 -0.4256  0.1917 -0.1857
 2765TIP3    H129710   6.649   4.748   5.916  0.7765 -1.5498  0.8178
 2765TIP3    H229711   6.763   4.781   5.823 -1.3216  1.3967 -0.8157
 2766TIP3   OH229712   3.564   1.771   4.706  0.5265  0.1714  0.6841
 2766TIP3    H129713   3.573   1.808   4.794  0.7322  1.8250 -0.0113
 2766TIP3    H229714   3.527   1.842   4.654 -0.9787 -1.2588 -0.2551
 2767TIP3   OH229715   2.958   2.098  11.820 -0.2016  0.0470 -0.3131
 2767TIP3    H129716   2.882   2.156  11.825  0.0652  0.3058  1.0421
 2767TIP3    H229717   3.031   2.152  11.848  0.5332 -0.1449 -1.8202
 2768TIP3   OH229718   3.214   1.336   0.794 -0.2137  0.5600 -0.5578
 2768TIP3    H129719   3.249   1.247   0.806 -1.5549  0.1942  0.8601
 2768TIP3    H229720   3.150   1.327   0.723 -1.2385  0.1093  0.3988
 2769TIP3   OH229721   1.913   3.782  13.359 -0.4832  0.2477 -0.1973
 2769TIP3    H129722   1.921   3.810  13.268 -1.7852 -0.7694 -0.6361
 2769TIP3    H229723   1.944   3.691  13.359  1.5696  0.9107  0.7926
 2770TIP3   OH229724   2.805   4.365  12.444 -0.3150  0.3812 -0.3742
 2770TIP3    H129725   2.866   4.402  12.508  0.3173  1.1768 -1.4269
 2770TIP3    H229726   2.860   4.336  12.372 -1.0587 -0.1671 -0.7295
 2771TIP3   OH229727   2.603   1.954   5.309 -0.1702  0.1630 -0.7289
 2771TIP3    H129728   2.683   1.916   5.271  0.2842 -0.6813  1.0484
 2771TIP3    H229729   2.564   2.003   5.237  2.6269  1.6498 -1.3191
 2772TIP3   OH229730   3.645   2.306  10.488  0.0566 -0.2065 -0.2821
 2772TIP3    H129731   3.689   2.379  10.445  2.2104 -0.2422  1.7335
 2772TIP3    H229732   3.715   2.245  10.509 -1.2468 -1.2728  1.0954
 2773TIP3   OH229733   5.410   4.883   1.914 -0.7503  0.1406  0.2096
 2773TIP3    H129734   5.488   4.872   1.859 -0.3379 -1.2756  1.0737
 2773TIP3    H229735   5.435   4.950   1.978 -0.5551  0.3257 -0.0548
 2774TIP3   OH229736   3.544   5.576  13.797  0.0484 -0.2073  0.0295
 2774TIP3    H129737   3.458   5.535  13.797 -2.6462  5.0113 -0.5037
 2774TIP3    H229738   3.579   5.559  13.884 -2.8955  0.1769  1.3389
 2775TIP3   OH229739   5.709   4.926  15.077 -0.0398  0.2167 -0.0661
 2775TIP3    H129740   5.641   4.909  15.142 -0.3087  0.7857 -0.1880
 2775TIP3    H229741   5.791   4.917  15.125 -0.2636  2.2382  0.7756
 2776TIP3   OH229742   4.288   4.558  13.139 -0.2213  0.0148  0.0795
 2776TIP3    H129743   4.309   4.631  13.198  1.0964 -0.9145  0.7739
 2776TIP3    H229744   4.350   4.567  13.067  2.3314 -2.4265  1.8777
 2777TIP3   OH229745   5.442   1.038   2.775 -0.3598  0.2198 -0.3969
 2777TIP3    H129746   5.351   1.051   2.746  0.4097  2.0286 -2.1388
 2777TIP3    H229747   5.471   1.125   2.801  1.2310 -0.1237 -0.9697
 2778TIP3   OH229748   3.834   4.747  13.247 -0.1434 -0.3061 -0.2735
 2778TIP3    H129749   3.922   4.772  13.274 -1.0605  0.9067  1.6580
 2778TIP3    H229750   3.794   4.710  13.325 -0.9356 -2.0699 -1.4763
 2779TIP3   OH229751   3.125   0.876  13.393  0.8119  0.4847  0.6461
 2779TIP3    H129752   3.170   0.942  13.447 -0.7368  0.4767  2.0038
 2779TIP3    H229753   3.048   0.922  13.359  1.0634  0.0899 -0.4671
 2780TIP3   OH229754   2.573   3.213  13.885  0.0662 -0.0044  0.0521
 2780TIP3    H129755   2.634   3.284  13.905  0.1732 -0.3418  0.9673
 2780TIP3    H229756   2.573   3.207  13.790 -0.2232  1.4611 -0.0510
 2781TIP3   OH229757   2.825   2.628  11.371 -0.2674  0.2677 -0.6214
 2781TIP3    H129758   2.794   2.703  11.320 -1.2506 -0.2139 -0.7431
 2781TIP3    H229759   2.871   2.573  11.307  0.6261  0.8576 -0.4935
 2782TIP3   OH229760   5.582   0.329  11.349 -0.0038  0.1181 -0.3181
 2782TIP3    H129761   5.648   0.395  11.367  1.4480 -1.0064 -1.3623
 2782TIP3    H229762   5.599   0.302  11.258 -1.8016 -0.2881 -0.5577
 2783TIP3   OH229763   1.416   1.867   4.826  0.1170 -0.1971 -0.5427
 2783TIP3    H129764   1.489   1.808   4.848  0.4204  0.5276  0.4124
 2783TIP3    H229765   1.458   1.948   4.798 -0.2983  0.9252  1.9225
 2784TIP3   OH229766   5.414   4.665  15.029  0.1824  0.0935  0.7082
 2784TIP3    H129767   5.325   4.647  14.996  0.0116  2.2175 -0.1014
 2784TIP3    H229768   5.469   4.601  14.985 -0.5286  0.7849 -1.2546
 2785TIP3   OH229769   2.408   0.256  13.877 -0.0711  0.1019 -0.3262
 2785TIP3    H129770   2.439   0.185  13.822 -2.7440 -0.5979 -0.9843
 2785TIP3    H229771   2.330   0.289  13.833 -0.8064  1.2001  1.7196
 2786TIP3   OH229772   3.844   4.624   4.737  0.4079 -0.2521  0.0086
 2786TIP3    H129773   3.772   4.656   4.790  0.5695 -1.3495  0.8999
 2786TIP3    H229774   3.809   4.624   4.647 -0.4676 -0.1299  0.3427
 2787TIP3   OH229775   1.946   5.070  12.303  0.5027 -0.4539  0.4637
 2787TIP3    H129776   1.858   5.050  12.337  0.8666 -1.1844  0.9735
 2787TIP3    H229777   1.936   5.155  12.261 -0.3925 -0.4039  0.7658
 2788TIP3   OH229778   0.586   0.924   5.439 -0.0602  0.5265  0.3943
 2788TIP3    H129779   0.644   0.852   5.411 -0.3151 -0.3909  2.1600
 2788TIP3    H229780   0.572   0.908   5.532  0.3620  3.2364  0.9552
 2789TIP3   OH229781   1.350   5.577  12.250 -0.1264  0.2129  0.4737
 2789TIP3    H129782   1.379   5.596  12.339  0.4295  0.1698  0.3029
 2789TIP3    H229783   1.356   5.482  12.243  0.6626  0.2935  0.1002
 2790TIP3   OH229784   5.121   4.435  14.375  0.3929  0.7517 -0.0654
 2790TIP3    H129785   5.159   4.460  14.459  1.9962 -0.1373 -0.5032
 2790TIP3    H229786   5.120   4.516  14.324  2.8369  0.6042 -0.4456
 2791TIP3   OH229787   1.858   2.450   6.467  0.4144  0.4728 -0.2983
 2791TIP3    H129788   1.879   2.399   6.389  3.2905  0.2104  0.5905
 2791TIP3    H229789   1.879   2.540   6.443 -1.3971  0.8146 -0.7190
 2792TIP3   OH229790   4.215   1.360   1.745  0.3497 -0.1964 -0.4721
 2792TIP3    H129791   4.188   1.318   1.663 -1.9801  0.8546 -0.2833
 2792TIP3    H229792   4.193   1.297   1.813  2.6312 -1.2276 -0.6372
 2793TIP3   OH229793   1.126   1.069  12.497  0.4721 -0.1071  0.8737
 2793TIP3    H129794   1.133   1.044  12.405  0.6247 -0.4254  0.9717
 2793TIP3    H229795   1.036   1.050  12.521 -0.0434  1.5798  0.3229
 2794TIP3   OH229796   0.770   6.121   1.080  0.0336 -0.6044 -0.7924
 2794TIP3    H129797   0.735   6.096   0.994 -0.3157  0.4819 -0.9706
 2794TIP3    H229798   0.698   6.105   1.140 -0.4055  0.5576 -0.9980
 2795TIP3   OH229799   5.308   0.432  15.168 -0.2185  0.4599 -0.6784
 2795TIP3    H129800   5.244   0.405  15.233 -1.1654  2.3319 -0.7882
 2795TIP3    H229801   5.260   0.429  15.085 -0.1613  1.7846 -0.7702
 2796TIP3   OH229802   2.474   2.479   2.608  0.4550  0.7331  0.3979
 2796TIP3    H129803   2.501   2.387   2.610 -0.6455  0.4152  1.2488
 2796TIP3    H229804   2.420   2.490   2.686  1.8399  2.5188  1.1313
 2797TIP3   OH229805   4.622   0.219   2.711 -0.4256 -0.2098 -0.1666
 2797TIP3    H129806   4.659   0.135   2.684  0.4043  0.3417 -0.7534
 2797TIP3    H229807   4.609   0.268   2.629  1.5443  1.2397  0.3516
 2798TIP3   OH229808   4.064   1.437   3.037  0.1881  0.0264  0.5944
 2798TIP3    H129809   4.098   1.480   3.116 -0.7300 -0.2846  1.1743
 2798TIP3    H229810   4.011   1.504   2.993  1.6485  0.5482 -0.3738
 2799TIP3   OH229811   2.012   6.710   6.371  0.0896 -0.4328 -0.0388
 2799TIP3    H129812   2.047   6.635   6.419  0.0430 -1.2663 -1.2764
 2799TIP3    H229813   2.089   6.756   6.339  0.1146 -0.9581 -0.7704
 2800TIP3   OH229814   0.484   3.448   5.462 -0.3058 -0.4217 -0.4086
 2800TIP3    H129815   0.458   3.535   5.493  2.3485 -0.3624  1.8120
 2800TIP3    H229816   0.402   3.398   5.462 -1.7563  1.8362 -1.0455
 2801TIP3   OH229817   4.837   6.109   4.110  0.1279 -0.0133 -0.1867
 2801TIP3    H129818   4.889   6.058   4.048 -1.8069 -1.2600 -0.8126
 2801TIP3    H229819   4.861   6.200   4.091 -2.4208 -0.1239 -4.7405
 2802TIP3   OH229820   2.915   1.937   4.675 -0.0176 -0.4884 -0.1060
 2802TIP3    H129821   2.951   1.869   4.618  0.4610 -1.0672  0.8691
 2802TIP3    H229822   2.953   2.018   4.642  1.9481 -1.0536  0.7002
 2803TIP3   OH229823   6.113   3.362  15.119  0.1822 -0.0806 -0.2230
 2803TIP3    H129824   6.075   3.444  15.150  0.2078  0.2246 -1.0023
 2803TIP3    H229825   6.155   3.384  15.036 -0.3358 -1.0002 -0.7413
 2804TIP3   OH229826   0.357   5.687  15.252  0.3977  0.4141 -0.0797
 2804TIP3    H129827   0.422   5.655  15.189  0.2674 -1.6557  0.7835
 2804TIP3    H229828   0.277   5.700  15.200  0.0489 -2.1014 -0.2384
 2805TIP3   OH229829   6.770   4.745   3.552  0.2217  0.1013  0.3494
 2805TIP3    H129830   6.796   4.797   3.628  2.3024  0.9101 -0.8652
 2805TIP3    H229831   6.682   4.775   3.530  0.4769  1.4276  1.1159
 2806TIP3   OH229832   0.345   5.768   5.739 -0.2545 -0.4153 -0.1355
 2806TIP3    H129833   0.285   5.839   5.763  0.4208 -0.0884  0.6407
 2806TIP3    H229834   0.289   5.691   5.729 -0.8823  0.0287 -0.0744
 2807TIP3   OH229835   3.077   5.873   0.095  0.5411  0.5712 -0.4931
 2807TIP3    H129836   3.123   5.928   0.032  1.2512 -2.0913 -2.4182
 2807TIP3    H229837   2.998   5.844   0.048  1.3190 -1.8344 -0.4199
 2808TIP3   OH229838   2.718   0.190   0.561 -0.0448 -0.3391  0.0082
 2808TIP3    H129839   2.703   0.262   0.499  1.1064 -1.3104 -1.4672
 2808TIP3    H229840   2.766   0.230   0.633 -2.0426  0.9684  0.6453
 2809TIP3   OH229841   5.572   4.945   0.916  0.1531  0.4317 -0.2201
 2809TIP3    H129842   5.646   4.984   0.869 -0.2667  0.2370 -1.0494
 2809TIP3    H229843   5.498   4.953   0.856  0.1666 -2.0992 -0.6282
 2810TIP3   OH229844   3.895   5.126  16.461 -0.3498  0.0135  0.2305
 2810TIP3    H129845   3.953   5.052  16.475 -0.7862 -0.0406  1.7753
 2810TIP3    H229846   3.899   5.177  16.542 -0.0348  1.6988 -0.8021
 2811TIP3   OH229847   4.229   1.864  12.187 -0.1136  0.4867 -0.0612
 2811TIP3    H129848   4.135   1.858  12.204 -0.0878 -0.4557 -0.2446
 2811TIP3    H229849   4.259   1.933  12.246 -0.8202  0.3846  0.4261
 2812TIP3   OH229850   6.391   5.626   2.888 -0.0507 -0.7258  0.2108
 2812TIP3    H129851   6.326   5.620   2.817  0.3119  0.5718 -0.2307
 2812TIP3    H229852   6.475   5.636   2.844  0.2453 -0.4877  0.8170
 2813TIP3   OH229853   4.226   0.602  11.395 -0.4401  0.5038  0.3157
 2813TIP3    H129854   4.299   0.574  11.451  0.4063  0.3506 -0.8509
 2813TIP3    H229855   4.205   0.525  11.342 -3.1678 -0.2821  2.4145
 2814TIP3   OH229856   6.184   6.367  13.273  0.7149 -0.1828  0.2060
 2814TIP3    H129857   6.132   6.300  13.318 -1.1071  0.3993 -0.9433
 2814TIP3    H229858   6.120   6.436  13.252  1.8529  0.3523 -1.6571
 2815TIP3   OH229859   3.468   0.712   0.930 -0.0104 -0.2162 -0.2571
 2815TIP3    H129860   3.536   0.743   0.989 -0.6951  0.1630  0.3529
 2815TIP3    H229861   3.386   0.734   0.975 -0.5317 -0.5689 -1.0222
 2816TIP3   OH229862   1.228   3.365  11.528 -0.6182  0.0240  0.4658
 2816TIP3    H129863   1.198   3.314  11.452  1.6656  0.3080 -0.6881
 2816TIP3    H229864   1.295   3.424  11.492  0.5509  0.1146  2.7047
 2817TIP3   OH229865   6.778   2.256   0.840  0.2983  0.5487 -0.0496
 2817TIP3    H129866   6.801   2.299   0.758 -1.0191  2.5530  0.6019
 2817TIP3    H229867   6.788   2.162   0.822  2.4429  1.0622 -1.7310
 2818TIP3   OH229868   5.268   5.756  11.825  0.6881  0.4218  0.2970
 2818TIP3    H129869   5.303   5.703  11.897 -1.4933 -1.8197 -0.2125
 2818TIP3    H229870   5.223   5.828  11.868  0.8463  0.0269  1.1344
 2819TIP3   OH229871   3.910   5.246  14.028 -0.1765 -0.2086  0.2742
 2819TIP3    H129872   3.839   5.311  14.025 -1.0371 -1.2017 -1.8390
 2819TIP3    H229873   3.915   5.220  14.120 -2.7930 -0.3570  0.4227
 2820TIP3   OH229874   5.182   0.051   0.238  0.4688 -0.2182  0.0890
 2820TIP3    H129875   5.139  -0.027   0.202  0.4576 -1.1320  2.0045
 2820TIP3    H229876   5.260   0.017   0.281  0.2344  0.7861  1.3277
 2821TIP3   OH229877   4.705   5.868  14.155 -0.1066 -0.3248  0.2934
 2821TIP3    H129878   4.680   5.860  14.247  0.1492 -0.1133  0.3823
 2821TIP3    H229879   4.646   5.934  14.119  0.6169  0.5028  0.6141
 2822TIP3   OH229880   4.166   2.872  11.343  0.0022 -0.5512  0.2758
 2822TIP3    H129881   4.208   2.912  11.267  3.0968 -0.9561  1.6912
 2822TIP3    H229882   4.121   2.945  11.386 -0.9812 -0.1503 -1.4120
 2823TIP3   OH229883   5.794   0.162  13.392  0.1066 -0.3616  0.4438
 2823TIP3    H129884   5.744   0.148  13.472  0.0642 -1.4697  0.2353
 2823TIP3    H229885   5.885   0.157  13.420  0.1049  0.7961  0.6787
 2824TIP3   OH229886   0.075   5.743   3.015  0.1569  0.0312  0.0854
 2824TIP3    H129887  -0.004   5.753   2.962 -0.0550  0.1238  0.4175
 2824TIP3    H229888   0.131   5.685   2.964  0.7087  1.5771 -1.0769
 2825TIP3   OH229889   0.448   2.272   1.225 -0.3251 -0.1365  0.3928
 2825TIP3    H129890   0.391   2.227   1.287 -0.1867 -1.9778 -0.8016
 2825TIP3    H229891   0.435   2.226   1.142  2.6875 -0.4137  0.0350
 2826TIP3   OH229892   6.451   6.305  15.849  0.4995 -0.1579  0.1186
 2826TIP3    H129893   6.510   6.256  15.908  2.0435 -1.5050 -2.4349
 2826TIP3    H229894   6.508   6.333  15.778 -1.1478  2.2831 -0.2719
 2827TIP3   OH229895   2.747   6.484   3.303  0.3394 -0.0956  0.3551
 2827TIP3    H129896   2.786   6.532   3.230 -0.7610 -0.1281 -0.2529
 2827TIP3    H229897   2.687   6.422   3.262  1.1852 -1.4858  1.1689
 2828TIP3   OH229898   4.456   4.291  12.685 -0.0078  0.3566 -0.6724
 2828TIP3    H129899   4.530   4.351  12.695 -1.1786  1.4825  1.7703
 2828TIP3    H229900   4.412   4.321  12.606  2.3653 -0.6143 -2.4262
 2829TIP3   OH229901   4.195   0.578   4.199 -0.6189  0.0137 -0.1063
 2829TIP3    H129902   4.185   0.483   4.201 -1.3309  0.0884  1.9568
 2829TIP3    H229903   4.232   0.600   4.285  1.1202  1.4545 -1.1786
 2830TIP3   OH229904   5.263   1.614   1.044 -0.1709  0.2593  0.0028
 2830TIP3    H129905   5.338   1.623   1.103  1.0777  2.4379 -1.8510
 2830TIP3    H229906   5.286   1.540   0.988 -0.4783 -0.5571  0.9313
 2831TIP3   OH229907   4.217   5.413  14.844 -0.2630  0.1557 -0.1040
 2831TIP3    H129908   4.241   5.498  14.881 -0.1070  0.4398 -0.8456
 2831TIP3    H229909   4.124   5.421  14.824 -0.4643 -0.1788  0.7231
 2832TIP3   OH229910   5.061   5.759   0.745 -0.3829 -0.2523 -0.4524
 2832TIP3    H129911   5.155   5.740   0.744 -0.4092 -0.3778 -1.4695
 2832TIP3    H229912   5.028   5.710   0.820  0.3485 -0.2913 -0.1457
 2833TIP3   OH229913   4.368   3.791   0.564  0.2577  0.2436 -0.1912
 2833TIP3    H129914   4.317   3.853   0.512 -0.0564 -0.6475 -0.9584
 2833TIP3    H229915   4.337   3.804   0.653 -2.3684 -1.2739 -0.8253
 2834TIP3   OH229916   2.170   5.473  16.643  0.6631 -0.6389 -0.4166
 2834TIP3    H129917   2.236   5.519  16.695 -1.5386 -0.4648  2.3470
 2834TIP3    H229918   2.090   5.525  16.655  0.1293 -0.3835 -4.3628
 2835TIP3   OH229919   2.051   0.525   4.909  0.0058  0.1458  0.3357
 2835TIP3    H129920   2.012   0.594   4.855  3.4545  2.1177  0.2168
 2835TIP3    H229921   2.086   0.462   4.846 -0.1627 -0.0233  0.4073
 2836TIP3   OH229922   3.090   1.773  11.249  0.0036 -0.4819 -0.1394
 2836TIP3    H129923   3.093   1.868  11.261 -0.9058 -0.4047 -0.4422
 2836TIP3    H229924   3.058   1.761  11.159 -1.7695 -1.0726  0.5439
 2837TIP3   OH229925   3.583   5.400  14.046 -0.3910 -0.1883  0.2166
 2837TIP3    H129926   3.489   5.400  14.063 -0.6001 -2.0183 -0.7955
 2837TIP3    H229927   3.621   5.357  14.123 -0.5889 -1.2780 -0.2825
 2838TIP3   OH229928   2.361   4.499  13.963 -0.0299  0.2737 -0.3545
 2838TIP3    H129929   2.374   4.407  13.941 -0.7528 -0.2118  1.2176
 2838TIP3    H229930   2.448   4.538  13.956 -0.1631  0.1280 -3.8680
 2839TIP3   OH229931   6.766   0.570  15.311 -0.4497  1.3075 -0.2564
 2839TIP3    H129932   6.815   0.573  15.393  1.0373 -0.2542 -1.0592
 2839TIP3    H229933   6.701   0.501  15.325  1.2135 -0.4702 -1.1249
 2840TIP3   OH229934   2.124   4.124  14.046  0.1282 -0.6304 -0.6516
 2840TIP3    H129935   2.193   4.075  14.000 -1.0397 -0.5174 -2.6014
 2840TIP3    H229936   2.148   4.216  14.032 -0.1214 -0.5994 -0.8868
 2841TIP3   OH229937   0.009   2.714   2.397  0.1461  0.3017 -0.4826
 2841TIP3    H129938   0.102   2.712   2.420 -0.0380  1.4284  0.4162
 2841TIP3    H229939   0.001   2.787   2.336 -0.2151  0.4771 -0.2288
 2842TIP3   OH229940   4.687   5.197  17.221  0.3038 -0.1477 -0.6145
 2842TIP3    H129941   4.665   5.108  17.247  1.1152 -0.5390 -1.2328
 2842TIP3    H229942   4.647   5.252  17.288  0.5738 -1.0237  0.2800
 2843TIP3   OH229943   2.431   2.609   6.073  0.2416  0.4943  0.2664
 2843TIP3    H129944   2.509   2.618   6.018 -0.3030  0.5542 -0.5020
 2843TIP3    H229945   2.431   2.518   6.100 -0.6974 -0.1096 -1.6774
 2844TIP3   OH229946   1.957   0.479  14.025  0.1475 -0.1312 -0.5587
 2844TIP3    H129947   2.013   0.538  13.975  2.1341 -0.8984  0.7145
 2844TIP3    H229948   1.925   0.415  13.961  0.8813  0.1885 -1.2503
 2845TIP3   OH229949   2.433   2.076  14.712 -0.0247 -0.2006  0.3326
 2845TIP3    H129950   2.491   2.147  14.683 -1.1754  0.5365 -0.1743
 2845TIP3    H229951   2.434   2.013  14.640  2.7684 -1.8319  1.6826
 2846TIP3   OH229952   1.842   1.553  16.310 -0.1454  0.0206  0.3314
 2846TIP3    H129953   1.825   1.613  16.237 -2.5398 -0.2911  0.5808
 2846TIP3    H229954   1.891   1.606  16.373 -0.7998  1.2563 -0.1701
 2847TIP3   OH229955   3.291   0.725  10.694  0.8752  0.5812  0.2105
 2847TIP3    H129956   3.251   0.723  10.607 -1.4944 -2.7190  1.2819
 2847TIP3    H229957   3.290   0.818  10.718 -0.6317  1.2669 -2.2648
 2848TIP3   OH229958   3.601   1.735  12.853  0.1497  0.3727 -0.0113
 2848TIP3    H129959   3.665   1.724  12.784 -0.0086  0.1022 -0.1180
 2848TIP3    H229960   3.653   1.748  12.932  0.4352 -3.1534  0.4890
 2849TIP3   OH229961   6.241   1.274  10.868 -0.2290  0.1510  0.0722
 2849TIP3    H129962   6.314   1.255  10.809  0.8233  1.8268  0.8064
 2849TIP3    H229963   6.243   1.369  10.879 -0.9559 -0.0349  2.0994
 2850TIP3   OH229964   0.158   2.398   4.448  0.1649 -0.1313  0.4093
 2850TIP3    H129965   0.125   2.402   4.358 -1.3856 -0.9785  0.9236
 2850TIP3    H229966   0.212   2.318   4.450 -0.4585 -0.5519  0.4488
 2851TIP3   OH229967   4.032   5.058   3.187 -0.5100  0.3144 -0.5403
 2851TIP3    H129968   4.060   5.030   3.275 -0.2326  0.7977 -0.4735
 2851TIP3    H229969   3.941   5.030   3.181 -0.5090  0.2136 -0.1247
 2852TIP3   OH229970   2.258   0.664   4.497 -0.2720  0.6937  0.3559
 2852TIP3    H129971   2.206   0.698   4.425 -0.3404  0.7859  0.4481
 2852TIP3    H229972   2.300   0.585   4.462 -0.4925  0.6072  0.2902
 2853TIP3   OH229973   4.758   2.899  11.589  0.4520 -0.0966 -0.4575
 2853TIP3    H129974   4.676   2.900  11.639  1.3510  0.4315  1.0510
 2853TIP3    H229975   4.747   2.966  11.522 -0.5912 -0.4760 -0.6737
 2854TIP3   OH229976   2.606   1.195  12.057  0.3523  0.5271 -0.0047
 2854TIP3    H129977   2.561   1.123  12.014  0.3131  0.1067  0.7313
 2854TIP3    H229978   2.616   1.261  11.989 -3.2720  1.5082  0.2798
 2855TIP3   OH229979   6.480   2.587  14.760 -0.3976 -0.0336 -0.3587
 2855TIP3    H129980   6.502   2.503  14.719 -0.8589  0.4590 -1.6636
 2855TIP3    H229981   6.416   2.626  14.700  0.9535  1.9250 -0.5680
 2856TIP3   OH229982   0.443   6.354  13.612  0.1033 -0.8606  0.4943
 2856TIP3    H129983   0.486   6.277  13.576  2.2845 -0.2752  1.7541
 2856TIP3    H229984   0.408   6.325  13.696 -2.0687 -1.3350 -0.5220
 2857TIP3   OH229985   4.846   4.141  11.011  0.2019 -0.0139  0.1011
 2857TIP3    H129986   4.802   4.191  10.943 -3.0285 -0.4981  1.7583
 2857TIP3    H229987   4.834   4.050  10.986  0.8658 -0.1435  0.2290
 2858TIP3   OH229988   4.895   1.335  14.858  0.2115  0.1839 -0.5225
 2858TIP3    H129989   4.848   1.257  14.829 -1.1654  1.2323 -1.1405
 2858TIP3    H229990   4.987   1.316  14.840 -0.3308 -0.3814 -2.7698
 2859TIP3   OH229991   3.208   3.227   3.226  0.1618  0.4775 -0.1919
 2859TIP3    H129992   3.171   3.195   3.144 -1.6416  1.4075  0.2391
 2859TIP3    H229993   3.135   3.269   3.271  1.4354  1.1560  1.2988
 2860TIP3   OH229994   3.171   6.614  15.046  0.7036 -0.0393  0.2610
 2860TIP3    H129995   3.101   6.679  15.053 -0.5427 -1.4111  0.7723
 2860TIP3    H229996   3.245   6.653  15.092 -0.3723  0.5705  1.5004
 2861TIP3   OH229997   1.020   3.532  14.710 -0.2561  0.0209 -0.0713
 2861TIP3    H129998   1.075   3.598  14.667  0.8506 -0.2545  0.9095
 2861TIP3    H229999   1.062   3.449  14.691 -0.2486 -0.1792  0.8061
 2862TIP3   OH230000   2.319   2.029  12.630  0.6060  0.4904 -0.5141
 2862TIP3    H130001   2.352   1.975  12.702 -1.2090 -0.4161 -0.3297
 2862TIP3    H230002   2.258   2.090  12.672 -0.9036 -0.4180 -1.3130
 2863TIP3   OH230003   1.895   0.150   4.910 -0.1155  0.1182 -0.4260
 2863TIP3    H130004   1.951   0.085   4.954  0.7227  1.0328 -0.1344
 2863TIP3    H230005   1.814   0.149   4.961  0.3016  0.0932  0.2509
 2864TIP3   OH230006   0.674   1.385   2.660 -0.5108  0.2700 -0.2156
 2864TIP3    H130007   0.657   1.410   2.751  0.8654 -0.8021  0.3547
 2864TIP3    H230008   0.686   1.290   2.664  0.0838  0.2955 -1.4346
 2865TIP3   OH230009   4.563   3.188  13.922  0.0614  0.4542  0.2760
 2865TIP3    H130010   4.612   3.188  13.840  1.2877 -0.0953  0.9971
 2865TIP3    H230011   4.479   3.228  13.899  0.4725  0.5260 -1.1907
 2866TIP3   OH230012   4.592   2.170  11.899 -0.7743 -0.3051 -0.2170
 2866TIP3    H130013   4.591   2.189  11.993 -2.3713 -0.1789 -0.2464
 2866TIP3    H230014   4.586   2.255  11.857  3.3269 -0.0724 -0.5173
 2867TIP3   OH230015   4.884   1.557   3.937  0.3714  0.8647 -0.2712
 2867TIP3    H130016   4.832   1.635   3.952  0.9514  0.6933  3.0522
 2867TIP3    H230017   4.822   1.484   3.948  0.4770  0.7821 -0.2100
 2868TIP3   OH230018   1.092   4.926  11.376 -0.0100 -0.5514  0.3504
 2868TIP3    H130019   1.127   4.873  11.304  1.8834 -1.2166  1.7485
 2868TIP3    H230020   1.045   4.997  11.331 -1.0351 -2.3432 -1.5376
 2869TIP3   OH230021   1.872   4.283  15.313 -0.2280  0.7365 -0.6687
 2869TIP3    H130022   1.878   4.191  15.338  1.3641  0.5810 -1.5561
 2869TIP3    H230023   1.824   4.282  15.230  0.1518  0.6619 -0.8900
 2870TIP3   OH230024   0.048   6.026   5.988 -0.3567  0.1137 -0.1886
 2870TIP3    H130025  -0.030   6.045   6.041  0.3705  1.4359  0.4311
 2870TIP3    H230026   0.119   6.022   6.052  0.2512 -0.0440 -0.8731
 2871TIP3   OH230027   6.271   0.172  14.493 -0.0429  0.1921 -0.1161
 2871TIP3    H130028   6.312   0.130  14.568  0.0612  1.5852  0.6150
 2871TIP3    H230029   6.341   0.223  14.453  0.0633 -1.0270 -1.5426
 2872TIP3   OH230030   2.038   3.637  15.331  0.1414  0.1541 -0.2708
 2872TIP3    H130031   2.078   3.583  15.263 -0.0649 -0.7910  0.3462
 2872TIP3    H230032   2.086   3.615  15.411 -0.1344  0.6727  0.0398
 2873TIP3   OH230033   2.073   3.797  12.263  0.0438 -0.4836  0.1215
 2873TIP3    H130034   2.072   3.805  12.167 -2.0315 -0.0598  0.1628
 2873TIP3    H230035   2.140   3.860  12.291 -0.6361  0.7559 -0.9577
 2874TIP3   OH230036   3.444   6.274   2.861  0.7118 -0.2281 -0.4756
 2874TIP3    H130037   3.496   6.252   2.783 -0.1709  1.7221 -1.6599
 2874TIP3    H230038   3.503   6.323   2.916  0.8735 -0.2099 -0.6646
 2875TIP3   OH230039   2.770   5.967  12.707 -0.6396 -0.1424 -0.0147
 2875TIP3    H130040   2.776   5.994  12.615  0.2945 -2.4224 -0.6818
 2875TIP3    H230041   2.714   5.889  12.705 -0.2437 -0.4714  1.2707
 2876TIP3   OH230042   5.453   3.845   2.702 -0.1656 -0.7127  0.0271
 2876TIP3    H130043   5.414   3.860   2.616 -0.1226 -1.0769 -0.0583
 2876TIP3    H230044   5.530   3.791   2.684  1.2889  1.3276  0.0294
 2877TIP3   OH230045   0.646   3.274  15.799  0.2882  0.5545 -0.8131
 2877TIP3    H130046   0.643   3.321  15.882  1.8237  0.3428 -0.6243
 2877TIP3    H230047   0.555   3.270  15.770 -0.2521  0.6343  0.8510
 2878TIP3   OH230048   2.302   2.945   4.874  0.0101  0.3526  0.2495
 2878TIP3    H130049   2.290   3.000   4.952 -0.7437  0.7598 -0.1534
 2878TIP3    H230050   2.218   2.903   4.860  0.2028  0.1222 -0.2311
 2879TIP3   OH230051   5.363   2.896   2.143  0.2007  0.1390 -0.3088
 2879TIP3    H130052   5.331   2.956   2.210  1.6563  0.6602 -0.0800
 2879TIP3    H230053   5.334   2.809   2.173 -0.5270  0.5385  0.1616
 2880TIP3   OH230054   1.752   0.091   1.448  0.2820  0.1645 -0.0472
 2880TIP3    H130055   1.753  -0.003   1.430  0.8597  0.4136 -1.3877
 2880TIP3    H230056   1.839   0.109   1.484  0.2470  0.2264  0.0063
 2881TIP3   OH230057   5.294   2.875  11.381 -0.4252 -0.6101  0.2285
 2881TIP3    H130058   5.342   2.883  11.299  0.0075 -0.7469  0.4659
 2881TIP3    H230059   5.353   2.828  11.439 -1.2772 -1.7454  0.1891
 2882TIP3   OH230060   5.927   2.679   2.275  0.3783  0.0931 -0.2145
 2882TIP3    H130061   5.873   2.600   2.279  1.0821 -0.4154 -0.5662
 2882TIP3    H230062   5.944   2.692   2.182 -1.3363  1.7785 -0.3282
 2883TIP3   OH230063   0.370   4.267  15.634  0.2356  0.0885 -0.3752
 2883TIP3    H130064   0.342   4.263  15.725  0.0564  1.1100 -0.3803
 2883TIP3    H230065   0.294   4.234  15.585  0.1001  0.1304 -0.1958
 2884TIP3   OH230066   5.352   6.203  14.845  0.3319  0.1800  0.3128
 2884TIP3    H130067   5.345   6.298  14.857 -2.0485  0.0657  0.0918
 2884TIP3    H230068   5.344   6.166  14.933 -0.9954  0.0914  0.1627
 2885TIP3   OH230069   0.236   3.438   1.837  0.2325  0.5446 -0.6067
 2885TIP3    H130070   0.282   3.516   1.868 -0.2708  0.4923  0.2727
 2885TIP3    H230071   0.164   3.472   1.784  1.3165  0.6271 -2.0689
 2886TIP3   OH230072   3.334   4.949  16.566  0.0080 -0.4352 -0.3964
 2886TIP3    H130073   3.425   4.975  16.581 -0.6127  1.9082 -0.5264
 2886TIP3    H230074   3.321   4.962  16.472 -0.9753  0.9592 -0.0745
 2887TIP3   OH230075   1.736   0.742  13.797  0.0528  0.2411  0.1838
 2887TIP3    H130076   1.749   0.834  13.771 -1.0761  0.3396 -0.0846
 2887TIP3    H230077   1.707   0.747  13.888  1.2425  0.0651  0.5790
 2888TIP3   OH230078   1.827   2.092   2.947 -0.2115 -0.1061 -0.2582
 2888TIP3    H130079   1.862   2.083   2.858  1.2650  0.6518  0.2314
 2888TIP3    H230080   1.737   2.060   2.940 -0.1957  0.1760 -2.0804
 2889TIP3   OH230081   2.217   2.483  17.225  0.7412 -0.2852  0.3194
 2889TIP3    H130082   2.202   2.417  17.158 -1.2883 -0.1852  0.6319
 2889TIP3    H230083   2.265   2.438  17.294 -1.0882 -1.6022  0.7640
 2890TIP3   OH230084   4.581   0.102  14.897  0.1735  0.0996  0.0717
 2890TIP3    H130085   4.647   0.050  14.943 -0.0858 -3.3084 -3.1800
 2890TIP3    H230086   4.628   0.142  14.825 -0.3979  1.5121  0.4646
 2891TIP3   OH230087   5.220   3.877  10.916 -0.1269  1.0990  0.5494
 2891TIP3    H130088   5.243   3.807  10.977 -1.4511  2.6355  2.9364
 2891TIP3    H230089   5.141   3.846  10.872 -0.8851  1.1888  1.8185
 2892TIP3   OH230090   2.460   1.897  13.097 -0.4239 -0.0917 -0.2809
 2892TIP3    H130091   2.466   1.866  13.187  0.0080  0.7924 -0.0041
 2892TIP3    H230092   2.376   1.943  13.093  0.1012  0.8917 -0.0118
 2893TIP3   OH230093   2.968   2.014  12.551  0.1737  0.7044  0.7813
 2893TIP3    H130094   2.986   1.922  12.529 -1.0419  0.3703  1.1162
 2893TIP3    H230095   2.975   2.059  12.467  0.4052  0.2415  0.5451
 2894TIP3   OH230096   3.518   4.079   4.230  0.3888  0.0041 -0.4943
 2894TIP3    H130097   3.517   4.128   4.313  0.0954 -1.3980  0.3449
 2894TIP3    H230098   3.523   3.988   4.257 -0.8472 -0.5242 -2.0125
 2895TIP3   OH230099   4.142   2.599   4.374  0.6600  0.0706 -0.0286
 2895TIP3    H130100   4.224   2.636   4.407  0.9718 -1.0681  0.4772
 2895TIP3    H230101   4.099   2.561   4.451 -0.3737  0.7091 -0.2801
 2896TIP3   OH230102   4.307   4.783   0.135 -0.7437 -0.2346 -0.0564
 2896TIP3    H130103   4.386   4.835   0.122 -0.9166  0.2656  0.7944
 2896TIP3    H230104   4.282   4.755   0.048  0.9878 -1.3186 -0.2214
 2897TIP3   OH230105   4.786   2.174  17.033 -0.2793 -0.2994 -0.1161
 2897TIP3    H130106   4.842   2.096  17.027  2.2211  1.3892  0.6239
 2897TIP3    H230107   4.730   2.157  17.109  0.7475 -1.0851  0.4826
 2898TIP3   OH230108   1.089   6.393  13.275  0.2297 -0.0254  0.4832
 2898TIP3    H130109   1.056   6.453  13.341 -0.6909 -0.5431  0.5130
 2898TIP3    H230110   1.181   6.416  13.264  0.0686  0.8865  1.0315
 2899TIP3   OH230111   3.280   1.230  16.281 -0.4292 -0.7620 -0.7551
 2899TIP3    H130112   3.261   1.158  16.341  0.1506 -0.2366  0.0562
 2899TIP3    H230113   3.253   1.197  16.195 -0.3432 -1.8691 -0.3578
 2900TIP3   OH230114   6.158   5.781  12.687  0.3338 -0.1135 -0.3758
 2900TIP3    H130115   6.068   5.747  12.681 -0.1346  0.6676  1.8848
 2900TIP3    H230116   6.206   5.733  12.619 -1.4410 -1.6311 -0.6047
 2901TIP3   OH230117   0.258   5.509  14.507  0.0626 -0.9374 -0.2083
 2901TIP3    H130118   0.217   5.536  14.590 -0.4536 -0.6100 -0.5679
 2901TIP3    H230119   0.271   5.415  14.516  2.4869 -0.5045  1.3255
 2902TIP3   OH230120   2.964   4.512   0.614 -0.1695 -0.2254 -0.1177
 2902TIP3    H130121   2.897   4.465   0.564  0.4862 -1.4138  0.1043
 2902TIP3    H230122   3.037   4.522   0.553  0.1557 -0.5710  0.2139
 2903TIP3   OH230123   1.083   4.573  10.844 -0.3672 -0.6635 -0.3872
 2903TIP3    H130124   1.000   4.581  10.891  0.4084  1.0705  0.7752
 2903TIP3    H230125   1.093   4.657  10.799  1.6237 -0.0792  1.0475
 2904TIP3   OH230126   2.573   2.626   1.279 -0.3603  0.0608 -0.3972
 2904TIP3    H130127   2.549   2.717   1.259  2.5967  0.9475 -0.2347
 2904TIP3    H230128   2.501   2.592   1.331 -1.0966  2.6251  0.3181
 2905TIP3   OH230129   3.613   3.158  15.297 -0.0972 -0.2567 -0.0321
 2905TIP3    H130130   3.674   3.229  15.315 -0.9049  0.7906 -1.3307
 2905TIP3    H230131   3.635   3.129  15.208  0.8911 -2.3327  0.8471
 2906TIP3   OH230132   3.888   0.625  13.748 -0.9208  0.3379 -0.4175
 2906TIP3    H130133   3.917   0.708  13.709 -0.1915  0.0535 -0.4983
 2906TIP3    H230134   3.916   0.558  13.685 -2.6947  0.1161 -1.0077
 2907TIP3   OH230135   2.847   0.984  16.419 -0.2732  0.4189 -0.3275
 2907TIP3    H130136   2.878   1.059  16.369  1.1460  0.1971  0.1891
 2907TIP3    H230137   2.782   0.942  16.362  1.6858 -0.1366 -2.2407
 2908TIP3   OH230138   2.666   2.704  14.017 -0.1861  0.2570  0.0200
 2908TIP3    H130139   2.617   2.784  13.997 -2.3105 -0.5374  1.7795
 2908TIP3    H230140   2.704   2.720  14.104 -0.4978 -0.5667  0.3147
 2909TIP3   OH230141   3.450   1.850  13.662  0.1952 -0.1577 -0.3797
 2909TIP3    H130142   3.533   1.849  13.709  0.9776  0.2847 -1.7374
 2909TIP3    H230143   3.411   1.935  13.685  0.1588 -0.3201  0.1694
 2910TIP3   OH230144   5.971   1.418  11.876 -0.6579  0.1762 -0.1426
 2910TIP3    H130145   5.910   1.373  11.818 -1.4490  0.1702  0.6893
 2910TIP3    H230146   6.057   1.400  11.839 -1.1380 -0.0318 -1.1704
 2911TIP3   OH230147   0.368   4.615   5.636  0.3887  0.7414  0.3615
 2911TIP3    H130148   0.353   4.615   5.731 -0.6490  1.4109  0.2083
 2911TIP3    H230149   0.340   4.528   5.607 -1.0479  1.1644  0.4203
 2912TIP3   OH230150   4.311   5.652   4.132 -0.2325  0.2540  0.2810
 2912TIP3    H130151   4.307   5.708   4.055 -0.6003 -1.8816 -1.2845
 2912TIP3    H230152   4.226   5.609   4.136  0.1901 -0.5334  1.2120
 2913TIP3   OH230153   0.793   3.066   5.566 -0.6576  0.4647  0.4528
 2913TIP3    H130154   0.762   3.059   5.475  1.4720  2.1405 -0.4282
 2913TIP3    H230155   0.771   3.155   5.592 -1.5238 -0.1003  1.7197
 2914TIP3   OH230156   0.021   5.523   5.381  0.0489 -0.0113 -0.1929
 2914TIP3    H130157   0.003   5.558   5.468  3.4634 -1.2741  1.0810
 2914TIP3    H230158  -0.053   5.464   5.363 -0.3661 -0.2190  2.1106
 2915TIP3   OH230159   4.897   0.982   5.165 -0.2616 -0.1766  0.3127
 2915TIP3    H130160   4.953   0.911   5.135  0.0452  0.2563 -0.1528
 2915TIP3    H230161   4.818   0.975   5.110 -1.5819 -2.0623  2.3542
 2916TIP3   OH230162   0.145   1.199  11.605 -0.5870  0.0306  0.4443
 2916TIP3    H130163   0.225   1.172  11.560 -0.5798 -0.0163  0.4852
 2916TIP3    H230164   0.123   1.284  11.567  0.3149  0.7458  1.5059
 2917TIP3   OH230165   4.846   2.600   5.627 -0.2027 -0.3173 -0.6291
 2917TIP3    H130166   4.812   2.665   5.689  1.4392 -0.6737  0.6743
 2917TIP3    H230167   4.773   2.539   5.614 -1.0022  0.5161 -0.0873
 2918TIP3   OH230168   2.092   3.269  13.637  0.2271  0.2942 -0.2502
 2918TIP3    H130169   2.164   3.252  13.698 -0.9349 -2.5218  0.3825
 2918TIP3    H230170   2.132   3.260  13.551  0.7659 -0.6460  0.0897
 2919TIP3   OH230171   3.577   0.181   1.250 -0.3981 -0.6193 -0.3102
 2919TIP3    H130172   3.655   0.176   1.195 -1.4904 -2.1282 -1.7867
 2919TIP3    H230173   3.559   0.090   1.274 -1.2318 -0.1941  0.6918
 2920TIP3   OH230174   5.215   1.102  12.342 -0.3091  0.1031 -0.3912
 2920TIP3    H130175   5.222   1.193  12.372  2.4050 -0.2802  0.2063
 2920TIP3    H230176   5.255   1.102  12.255 -0.7248 -0.4349 -0.5824
 2921TIP3   OH230177   4.375   4.533   6.092 -0.3974  0.0014 -0.2928
 2921TIP3    H130178   4.416   4.471   6.032 -2.2554 -1.0407 -0.5112
 2921TIP3    H230179   4.330   4.595   6.035 -2.1581 -0.9806 -0.0080
 2922TIP3   OH230180   1.992   5.711  14.590 -0.1744 -0.1199  0.2924
 2922TIP3    H130181   1.919   5.671  14.543  0.1183  0.1727 -0.4266
 2922TIP3    H230182   1.965   5.711  14.681 -2.7803  3.4833 -0.3628
 2923TIP3   OH230183   0.685   1.830  11.394 -0.8249 -0.5855 -0.5348
 2923TIP3    H130184   0.765   1.836  11.446  0.3533  0.8136 -2.4329
 2923TIP3    H230185   0.715   1.796  11.309 -2.1493  0.5760 -1.4753
 2924TIP3   OH230186   0.339   4.852  13.698  0.3361 -0.1378  0.3449
 2924TIP3    H130187   0.263   4.866  13.754 -1.0256 -1.6168 -1.0854
 2924TIP3    H230188   0.410   4.898  13.742 -1.0952  0.1936  2.3707
 2925TIP3   OH230189   4.128   4.271  14.259 -0.4344  0.2770 -0.2378
 2925TIP3    H130190   4.084   4.340  14.309  1.7616 -0.1459  2.3633
 2925TIP3    H230191   4.177   4.318  14.192  0.3731  1.1974  0.9819
 2926TIP3   OH230192   5.212   5.333   5.226  0.1832  0.5634 -0.0685
 2926TIP3    H130193   5.119   5.344   5.206  0.0281 -1.1756 -0.3217
 2926TIP3    H230194   5.257   5.355   5.145 -0.0357  0.7931 -0.1292
 2927TIP3   OH230195   0.560   0.770  14.658 -0.2724 -0.4090  0.3968
 2927TIP3    H130196   0.553   0.828  14.734 -0.2004 -0.2523  0.2840
 2927TIP3    H230197   0.479   0.783  14.610  0.2960  0.5467 -0.3039
 2928TIP3   OH230198   3.472   3.235   1.855 -0.2568  0.4096 -0.5988
 2928TIP3    H130199   3.529   3.293   1.803  0.7739 -2.2746 -2.5600
 2928TIP3    H230200   3.521   3.219   1.935  0.7811 -0.0616 -1.3090
 2929TIP3   OH230201   6.571   5.604   2.271  0.6467 -0.2806  0.0615
 2929TIP3    H130202   6.547   5.526   2.322  2.3319  0.9619  2.8881
 2929TIP3    H230203   6.632   5.571   2.205  2.5961 -1.1682  2.2355
 2930TIP3   OH230204   5.196   3.871  13.423  0.3743  0.1112  0.1768
 2930TIP3    H130205   5.196   3.831  13.509  0.6602 -1.5408 -0.5795
 2930TIP3    H230206   5.257   3.819  13.371  0.0067  0.9110 -1.1065
 2931TIP3   OH230207   3.308   5.119   6.002 -0.3070 -0.6069 -0.2252
 2931TIP3    H130208   3.308   5.206   5.963  0.6976 -0.1370  0.7900
 2931TIP3    H230209   3.344   5.132   6.090 -2.0118 -1.7263  0.6681
 2932TIP3   OH230210   5.614   2.905  17.065 -0.1909 -0.2179 -0.1347
 2932TIP3    H130211   5.635   2.865  16.981 -1.5962 -0.2735 -0.4748
 2932TIP3    H230212   5.694   2.949  17.091  0.8609 -1.8026 -0.5809
 2933TIP3   OH230213   4.493   6.456   4.631  0.1328  0.2007  0.1590
 2933TIP3    H130214   4.577   6.446   4.676 -1.0226 -1.8454  1.9601
 2933TIP3    H230215   4.461   6.542   4.659  0.8144  0.2346  0.8622
 2934TIP3   OH230216   4.046   1.292   4.518  0.0129 -0.0024  0.4528
 2934TIP3    H130217   3.962   1.322   4.484  0.4206  1.3837  0.6401
 2934TIP3    H230218   4.072   1.222   4.459 -1.7682 -1.1671  1.0107
 2935TIP3   OH230219   5.862   4.157   4.608  0.4898  0.4171  0.4770
 2935TIP3    H130220   5.869   4.208   4.528 -1.3501 -0.4928 -0.2969
 2935TIP3    H230221   5.931   4.091   4.602 -0.0035 -0.0055 -0.6325
 2936TIP3   OH230222   5.159   1.642  15.444 -0.0654  0.1637  0.1429
 2936TIP3    H130223   5.114   1.610  15.523 -0.1688  1.1420  0.4862
 2936TIP3    H230224   5.221   1.706  15.477 -0.7879  1.3007 -0.6662
 2937TIP3   OH230225   6.301   1.345   2.590 -0.6730 -0.1806  0.0158
 2937TIP3    H130226   6.276   1.293   2.666  0.9102 -1.2805 -0.1915
 2937TIP3    H230227   6.369   1.404   2.622  1.2539 -1.8400 -0.8900
 2938TIP3   OH230228   1.535   3.943   3.302  0.1519 -0.3896  0.2930
 2938TIP3    H130229   1.520   4.015   3.242  3.8796  0.3141  0.0911
 2938TIP3    H230230   1.544   3.866   3.246 -0.7446 -0.4866  0.2803
 2939TIP3   OH230231   0.820   5.221   3.212  0.5830  0.4574 -0.3044
 2939TIP3    H130232   0.816   5.154   3.281 -0.8822 -0.2354 -1.0593
 2939TIP3    H230233   0.742   5.207   3.160  2.5393 -0.1745 -3.1804
 2940TIP3   OH230234   1.274   0.702  15.690 -0.6969  0.1638 -0.0917
 2940TIP3    H130235   1.227   0.700  15.607 -1.7827 -1.9814  0.5517
 2940TIP3    H230236   1.237   0.630  15.741 -0.5157  1.8499  2.5282
 2941TIP3   OH230237   0.710   0.271   1.709  0.0400 -0.1616  0.7024
 2941TIP3    H130238   0.798   0.270   1.745  0.2481 -2.0600  0.1787
 2941TIP3    H230239   0.654   0.295   1.783  0.8775  0.1161  1.2526
 2942TIP3   OH230240   3.067   4.359  16.484 -0.6659 -0.8909 -0.0084
 2942TIP3    H130241   3.120   4.305  16.425 -0.3401  0.3388 -0.8588
 2942TIP3    H230242   3.075   4.448  16.449 -1.4449 -0.3346  1.1962
 2943TIP3   OH230243   4.051   3.090  10.293  0.5815  0.1682  0.1131
 2943TIP3    H130244   4.049   3.140  10.375 -0.2925 -1.3642  1.0563
 2943TIP3    H230245   3.979   3.126  10.241 -0.0767 -0.1364  0.8070
 2944TIP3   OH230246   3.109   0.419   0.519 -0.3114 -0.1365 -0.0703
 2944TIP3    H130247   3.015   0.426   0.532 -0.7989 -2.9987 -1.5156
 2944TIP3    H230248   3.126   0.324   0.520  2.2590  0.2521 -1.5878
 2945TIP3   OH230249   3.766   1.600   2.348  0.6093  0.0602  0.6237
 2945TIP3    H130250   3.754   1.684   2.392  0.7391 -0.2612  1.2759
 2945TIP3    H230251   3.856   1.576   2.366  1.0196  0.4855 -0.8070
 2946TIP3   OH230252   4.089   4.145  15.724 -0.4586 -0.5790  0.2458
 2946TIP3    H130253   4.027   4.175  15.791 -1.5432 -0.3810 -0.8216
 2946TIP3    H230254   4.079   4.208  15.653  1.8094  0.1003  0.5010
 2947TIP3   OH230255   6.535   3.536  16.941  0.1063  0.2943  0.0112
 2947TIP3    H130256   6.488   3.463  16.899  0.2997 -0.8253  1.7317
 2947TIP3    H230257   6.627   3.518  16.925  0.1176  0.7319 -0.4552
 2948TIP3   OH230258   4.848   3.420   5.948 -0.3365 -0.0958  0.0061
 2948TIP3    H130259   4.799   3.502   5.958 -2.3227 -1.0437 -1.7065
 2948TIP3    H230260   4.931   3.447   5.908  0.7718  1.5529  3.2203
 2949TIP3   OH230261   1.057   5.630  13.881 -0.3757 -0.5277  0.0169
 2949TIP3    H130262   1.152   5.624  13.875 -0.4782 -1.2836 -0.9237
 2949TIP3    H230263   1.039   5.636  13.975  0.6398  0.4256  0.1650
 2950TIP3   OH230264   2.787   0.044  11.313 -0.3329 -0.2444 -0.2627
 2950TIP3    H130265   2.797   0.137  11.332  1.7212 -0.0536 -2.0513
 2950TIP3    H230266   2.854   0.001  11.368 -1.5225 -0.7244  0.8414
 2951TIP3   OH230267   3.793   6.000   2.053  0.2827  0.3403  0.5437
 2951TIP3    H130268   3.734   6.046   1.993  1.4490 -1.9222 -2.5156
 2951TIP3    H230269   3.880   6.035   2.033  1.2488 -3.2158 -2.1216
 2952TIP3   OH230270   4.386   5.306  15.173  0.3212 -0.5018  0.7207
 2952TIP3    H130271   4.397   5.401  15.171  0.5368 -0.5360  0.3682
 2952TIP3    H230272   4.353   5.288  15.262 -0.4912 -0.0125  0.5262
 2953TIP3   OH230273   0.722   3.804  16.478 -1.0152  0.5831  0.1374
 2953TIP3    H130274   0.705   3.868  16.547 -0.7622  1.4596 -0.6008
 2953TIP3    H230275   0.650   3.741  16.485 -2.4775  2.1385 -0.5033
 2954TIP3   OH230276   4.883   5.581   0.869 -0.2939 -0.3092  0.6724
 2954TIP3    H130277   4.802   5.625   0.845  0.9701  1.2738 -0.8316
 2954TIP3    H230278   4.906   5.529   0.792  1.1703  0.8834  0.2636
 2955TIP3   OH230279   3.964   0.355  10.505  0.3160 -0.2497  0.6283
 2955TIP3    H130280   3.923   0.343  10.419 -0.2443  2.1175  0.5089
 2955TIP3    H230281   3.897   0.399  10.557  0.8768 -1.1099  2.0984
 2956TIP3   OH230282   2.520   0.358   5.277  0.4172  0.2578  0.0377
 2956TIP3    H130283   2.521   0.395   5.366  0.4823 -0.9886  0.5619
 2956TIP3    H230284   2.490   0.268   5.289  1.7518 -0.3474 -1.0530
 2957TIP3   OH230285   4.484   1.502   3.535 -0.0440 -0.0185  0.3158
 2957TIP3    H130286   4.434   1.431   3.576 -0.0409  0.3184  0.9086
 2957TIP3    H230287   4.549   1.527   3.601 -1.3605  1.9091  0.9192
 2958TIP3   OH230288   4.783   5.087   4.030 -0.0323 -0.1859  0.0626
 2958TIP3    H130289   4.805   5.171   4.072 -1.6469 -0.1672  0.9455
 2958TIP3    H230290   4.827   5.021   4.084  0.2483  0.0314  0.0980
 2959TIP3   OH230291   0.407   3.854  16.334  0.0588 -0.2099  0.2064
 2959TIP3    H130292   0.444   3.766  16.333 -0.0578 -0.2576  0.0979
 2959TIP3    H230293   0.398   3.875  16.427  1.5155  0.2949  0.2463
 2960TIP3   OH230294   0.071   1.257  17.012  0.1230  0.1092  0.5522
 2960TIP3    H130295   0.122   1.180  16.989  0.2318  0.7828 -1.5283
 2960TIP3    H230296  -0.020   1.230  17.001  0.1988  0.8337 -2.1081
 2961TIP3   OH230297   4.144   3.940   3.994  0.0803 -0.4158 -0.3351
 2961TIP3    H130298   4.166   4.021   3.949 -1.0583 -0.6153 -1.2416
 2961TIP3    H230299   4.049   3.939   3.997  0.1227 -0.6796  1.5807
 2962TIP3   OH230300   6.427   4.137   2.140  0.2418 -0.1650  0.0010
 2962TIP3    H130301   6.443   4.044   2.158  1.4168 -0.1116 -0.6992
 2962TIP3    H230302   6.403   4.139   2.048 -0.3143  0.1646  0.1551
 2963TIP3   OH230303   6.654   6.766   3.765 -0.6966  0.0450 -0.2615
 2963TIP3    H130304   6.561   6.766   3.784 -0.6066 -0.5863  0.2029
 2963TIP3    H230305   6.696   6.747   3.849 -0.1802 -0.2237 -0.5722
 2964TIP3   OH230306   1.014   6.538  13.495 -0.2956 -0.2387 -0.2199
 2964TIP3    H130307   0.920   6.554  13.485 -0.4796  0.2886  2.2046
 2964TIP3    H230308   1.021   6.473  13.564  1.2369  2.0987  1.8869
 2965TIP3   OH230309   4.050   0.845  11.189  0.5461  0.2727  0.0629
 2965TIP3    H130310   4.132   0.795  11.189  0.8081  0.6574  1.4341
 2965TIP3    H230311   4.074   0.930  11.151  0.7832  0.3624  0.4051
 2966TIP3   OH230312   6.329   2.834   4.016 -0.1057 -0.4660 -0.4133
 2966TIP3    H130313   6.394   2.850   4.084  1.2865  1.7740 -2.1991
 2966TIP3    H230314   6.256   2.792   4.062  1.2470 -0.0360  2.2238
 2967TIP3   OH230315   1.820   1.780  15.616  0.1838  0.2627  0.6519
 2967TIP3    H130316   1.728   1.780  15.643  0.0560  0.3337  0.2091
 2967TIP3    H230317   1.864   1.834  15.682  0.1860 -1.1438  1.8415
 2968TIP3   OH230318   4.801   6.556   2.586  0.7433  0.2887 -0.2800
 2968TIP3    H130319   4.732   6.614   2.556 -2.1072 -1.9878  1.5903
 2968TIP3    H230320   4.815   6.580   2.678  0.0403 -1.4565  0.3013
 2969TIP3   OH230321   6.555   4.341  12.696 -0.5310 -0.0356 -0.0213
 2969TIP3    H130322   6.587   4.376  12.613  1.5899 -0.5832  0.5428
 2969TIP3    H230323   6.514   4.257  12.673  1.3349 -0.8795 -0.3487
 2970TIP3   OH230324   4.519   4.235  16.983 -0.8545 -0.5088  0.0368
 2970TIP3    H130325   4.500   4.208  16.893 -1.0872 -1.0688  0.2549
 2970TIP3    H230326   4.595   4.183  17.009 -1.5689 -1.2764  0.6037
 2971TIP3   OH230327   5.004   4.640   0.040  0.2341 -0.3983  0.0182
 2971TIP3    H130328   5.048   4.556   0.033  0.5677 -0.3223  1.1940
 2971TIP3    H230329   4.914   4.622   0.013  0.4840 -0.9669 -0.4473
 2972TIP3   OH230330   4.386   0.377   0.339  0.4460 -0.5973  0.1822
 2972TIP3    H130331   4.438   0.445   0.295 -0.4245  0.1443  0.2811
 2972TIP3    H230332   4.358   0.319   0.269  2.4758 -1.7458  0.2815
 2973TIP3   OH230333   2.307   5.305  15.538 -0.0331 -0.2808  0.3224
 2973TIP3    H130334   2.229   5.354  15.565  0.5114  1.0443 -0.4548
 2973TIP3    H230335   2.279   5.258  15.459  0.1042  0.6539 -0.2926
 2974TIP3   OH230336   5.541   3.256   5.779  0.2137  0.3107  0.1749
 2974TIP3    H130337   5.514   3.276   5.689  1.5064  1.9875  0.1373
 2974TIP3    H230338   5.490   3.178   5.802 -2.1366  1.4024 -1.0555
 2975TIP3   OH230339   2.573   1.558   5.895  0.4672  0.1100  0.3120
 2975TIP3    H130340   2.608   1.630   5.844 -0.6791  0.5898  0.1936
 2975TIP3    H230341   2.522   1.599   5.965  0.9593 -0.5595  1.0822
 2976TIP3   OH230342   4.136   2.028   5.866  0.6291  0.5042 -0.0216
 2976TIP3    H130343   4.117   2.047   5.775 -1.0868 -2.2293 -0.3198
 2976TIP3    H230344   4.122   1.933   5.874  0.7880  0.6724  3.0503
 2977TIP3   OH230345   5.565   5.606  14.082  0.0815  0.2724  0.2003
 2977TIP3    H130346   5.471   5.621  14.070 -0.0764 -1.1101 -0.4367
 2977TIP3    H230347   5.602   5.617  13.995  0.4322  0.3057  0.3547
 2978TIP3   OH230348   1.018   2.201  12.423 -0.4224 -1.2154 -0.0607
 2978TIP3    H130349   0.962   2.279  12.418 -0.1475 -1.1008 -1.4700
 2978TIP3    H230350   1.107   2.234  12.407 -0.0672 -1.5578  1.1189
 2979TIP3   OH230351   3.826   4.993   1.253  0.7642 -0.1008  0.0573
 2979TIP3    H130352   3.860   5.013   1.165 -0.6238  1.0185 -0.2322
 2979TIP3    H230353   3.843   4.899   1.264  1.9103 -0.0281 -0.9764
 2980TIP3   OH230354   6.553   5.075  12.407 -0.0561  0.0387 -0.0598
 2980TIP3    H130355   6.500   5.052  12.484 -0.5193  0.6592 -0.1875
 2980TIP3    H230356   6.528   5.165  12.387 -0.1014 -0.1908 -1.0721
 2981TIP3   OH230357   3.984   3.619   4.595 -0.4547 -0.2506 -0.2553
 2981TIP3    H130358   4.059   3.569   4.564  0.3302  0.2070  0.8674
 2981TIP3    H230359   3.929   3.555   4.641 -1.5740 -0.9092 -2.4657
 2982TIP3   OH230360   2.522   0.002   4.464  0.5990  0.4808 -0.2235
 2982TIP3    H130361   2.575   0.076   4.491 -0.1917  0.1861  2.3075
 2982TIP3    H230362   2.563  -0.074   4.506 -1.3188  0.1505  1.1652
 2983TIP3   OH230363   4.461   5.279  14.777 -0.6012 -0.0211  0.5784
 2983TIP3    H130364   4.487   5.364  14.742 -0.2515 -0.9511 -1.4533
 2983TIP3    H230365   4.369   5.291  14.803 -0.7420  0.7797 -0.2670
 2984TIP3   OH230366   5.974   2.183  12.497 -0.2120  0.1375  0.0858
 2984TIP3    H130367   6.023   2.132  12.562 -1.6730 -1.8910 -0.3796
 2984TIP3    H230368   5.893   2.207  12.542  0.8250  2.9276  0.6213
 2985TIP3   OH230369   2.741   5.812   4.241  0.4668 -0.0620 -0.0084
 2985TIP3    H130370   2.752   5.729   4.287  0.3425 -0.7452 -1.2039
 2985TIP3    H230371   2.759   5.878   4.308  0.0608 -1.0323  1.0837
 2986TIP3   OH230372   6.174   0.266   5.576  0.2923 -0.2613  0.3976
 2986TIP3    H130373   6.153   0.347   5.529 -3.1962  0.4205  2.9064
 2986TIP3    H230374   6.255   0.286   5.622  0.3444  1.2504 -0.2930
 2987TIP3   OH230375   2.044   6.568  17.212  0.0496 -0.3612  0.3799
 2987TIP3    H130376   2.089   6.483  17.208  0.6644 -0.0225 -0.0286
 2987TIP3    H230377   2.107   6.630  17.175 -0.8617  0.0869 -0.4355
 2988TIP3   OH230378   3.345   4.242  15.276  0.2394 -0.3244  0.2585
 2988TIP3    H130379   3.388   4.221  15.358 -1.5434 -0.1668  1.2522
 2988TIP3    H230380   3.333   4.337  15.278  0.0613 -0.3353 -0.1228
 2989TIP3   OH230381   3.651   1.478   3.340 -0.0395  0.0219 -0.3342
 2989TIP3    H130382   3.744   1.456   3.334  0.4300  1.4109  1.6292
 2989TIP3    H230383   3.606   1.394   3.325  1.5267 -0.7732 -0.7024
 2990TIP3   OH230384   4.358   2.910  10.725 -0.2555  0.0055  0.2710
 2990TIP3    H130385   4.290   2.884  10.787 -0.6090  1.7343  0.6411
 2990TIP3    H230386   4.311   2.936  10.646  0.1711 -1.7302 -0.5990
 2991TIP3   OH230387   4.031   1.615  14.007 -0.2328 -0.4631 -0.2957
 2991TIP3    H130388   3.996   1.648  14.090 -2.0616  0.3503 -1.3448
 2991TIP3    H230389   4.063   1.694  13.962  0.4122 -0.8472 -0.5075
 2992TIP3   OH230390   1.081   6.541  13.824  0.1364 -0.3387  0.8344
 2992TIP3    H130391   0.988   6.530  13.841  0.5010 -2.5078  1.5324
 2992TIP3    H230392   1.118   6.565  13.910  0.2602  0.2827  0.6105
 2993TIP3   OH230393   0.809   2.509   3.718  0.9849 -0.0961 -0.5245
 2993TIP3    H130394   0.895   2.505   3.674  0.9600  4.1597 -1.1855
 2993TIP3    H230395   0.828   2.549   3.803 -0.2782  0.6751 -0.5954
 2994TIP3   OH230396   3.880   1.534  14.958 -0.1091 -0.0699 -0.0569
 2994TIP3    H130397   3.829   1.494  15.029  0.3830 -0.5151  0.0520
 2994TIP3    H230398   3.884   1.627  14.981 -0.3223 -0.1387  0.2664
 2995TIP3   OH230399   1.593   0.048   6.821  0.5745 -0.0369  0.8629
 2995TIP3    H130400   1.647  -0.012   6.770  0.2380  0.0128  0.4507
 2995TIP3    H230401   1.627   0.135   6.801 -0.6488  0.1201 -0.5915
 2996TIP3   OH230402   1.812   1.132   0.422  0.1590  0.2664 -0.0112
 2996TIP3    H130403   1.739   1.133   0.361  0.8143  0.4138 -0.8058
 2996TIP3    H230404   1.818   1.041   0.451  0.5504 -0.0286 -1.0286
 2997TIP3   OH230405   1.440   5.820  16.091  0.1287 -0.4353 -0.3943
 2997TIP3    H130406   1.514   5.876  16.113  0.8259 -1.2105 -0.7491
 2997TIP3    H230407   1.455   5.739  16.140 -1.7372  0.2704  1.4406
 2998TIP3   OH230408   1.032   0.917   3.667  0.0119  0.7706 -0.4334
 2998TIP3    H130409   1.070   0.977   3.731 -0.3006  0.0771  0.3993
 2998TIP3    H230410   1.107   0.886   3.617  0.1804  1.8474 -0.8716
 2999TIP3   OH230411   1.252   2.286   4.014 -0.5504  0.4866  0.2030
 2999TIP3    H130412   1.219   2.224   4.080  0.3145 -0.5307 -0.3019
 2999TIP3    H230413   1.190   2.359   4.017 -0.8106  0.2300  1.7849
 3000TIP3   OH230414   5.398   0.309  15.728 -0.0524  0.4210 -0.0577
 3000TIP3    H130415   5.335   0.379  15.744  1.0867  1.6162 -0.7242
 3000TIP3    H230416   5.479   0.340  15.769  0.4916 -0.4509 -0.4731
 3001TIP3   OH230417   2.105   4.945   3.775 -0.0569 -0.8143 -0.0499
 3001TIP3    H130418   2.070   4.923   3.861  2.1579 -0.7608  0.8883
 3001TIP3    H230419   2.130   5.038   3.783  2.4919 -1.4720  0.0963
 3002TIP3   OH230420   0.537   4.285   1.676 -0.1465  0.3288 -0.1276
 3002TIP3    H130421   0.611   4.225   1.688 -0.8710 -0.6169 -0.3628
 3002TIP3    H230422   0.569   4.369   1.710  2.2612  0.8304 -3.2927
 3003TIP3   OH230423   3.676   1.923  15.917  0.3506  0.0793 -0.0868
 3003TIP3    H130424   3.654   1.928  16.010  0.8339 -1.5384  0.1397
 3003TIP3    H230425   3.762   1.967  15.911  1.2643 -1.5682  0.5931
 3004TIP3   OH230426   0.713   4.068   1.882 -0.0376 -0.3623  0.0126
 3004TIP3    H130427   0.782   4.121   1.841 -1.9118  0.1107 -2.6652
 3004TIP3    H230428   0.690   4.116   1.962  1.7689  0.1858  0.2179
 3005TIP3   OH230429   6.352   5.583  11.856  0.1788 -0.2338 -0.0136
 3005TIP3    H130430   6.321   5.627  11.777 -1.0129 -0.7610  0.1538
 3005TIP3    H230431   6.317   5.494  11.850  0.6528 -0.4811  0.7635
 3006TIP3   OH230432   1.881   2.846  14.060  0.0953 -0.4030  0.2079
 3006TIP3    H130433   1.863   2.899  13.982 -0.2000 -0.1414  0.4528
 3006TIP3    H230434   1.852   2.758  14.036 -0.2823 -0.2568  0.1344
 3007TIP3   OH230435   5.669   1.720  13.804  0.7796  0.2932  0.1585
 3007TIP3    H130436   5.710   1.715  13.890  0.1729 -0.1716  0.4196
 3007TIP3    H230437   5.698   1.641  13.758 -0.2508 -0.3045  0.5332
 3008TIP3   OH230438   5.060   6.131  10.527  0.1782  0.0863  0.5172
 3008TIP3    H130439   5.102   6.140  10.613 -0.5265 -0.3271  0.9093
 3008TIP3    H230440   4.974   6.171  10.538 -0.4389 -1.2088  0.3919
 3009TIP3   OH230441   2.086   4.776   5.467 -0.2571  0.0403  0.3619
 3009TIP3    H130442   2.061   4.684   5.476 -0.0927  0.1439  1.9904
 3009TIP3    H230443   2.002   4.823   5.460 -0.4374 -0.0344  1.7256
 3010TIP3   OH230444   0.253   3.869  13.110  0.7717 -0.1327 -0.0951
 3010TIP3    H130445   0.336   3.882  13.155  0.8230 -0.2966 -0.1402
 3010TIP3    H230446   0.267   3.905  13.022  1.1717 -1.2217 -0.4840
 3011TIP3   OH230447   3.662   0.688   1.414 -0.6552 -0.0224 -0.1537
 3011TIP3    H130448   3.646   0.614   1.355  0.2620  0.6725 -1.2832
 3011TIP3    H230449   3.752   0.675   1.444 -0.6306  0.4129 -0.0385
 3012TIP3   OH230450   4.544   1.351  11.872 -0.0537  0.0212  0.0588
 3012TIP3    H130451   4.635   1.328  11.854 -0.2688 -1.1052  0.3251
 3012TIP3    H230452   4.527   1.316  11.960 -0.5348  0.8504  0.3042
 3013TIP3   OH230453   5.172   5.126  12.933  0.5533 -0.8368 -0.0678
 3013TIP3    H130454   5.128   5.061  12.879 -0.4828  0.2179 -0.5110
 3013TIP3    H230455   5.172   5.088  13.021 -2.1660 -0.4230  0.1572
 3014TIP3   OH230456   5.730   0.616  12.838  0.3192  0.0221  0.1201
 3014TIP3    H130457   5.792   0.682  12.870  0.1049 -0.1830  0.9715
 3014TIP3    H230458   5.683   0.587  12.917 -0.1068 -0.6040 -0.3613
 3015TIP3   OH230459   4.349   0.871  11.669  0.8254 -0.0707 -0.1443
 3015TIP3    H130460   4.281   0.823  11.622  0.9338  0.7438 -1.1589
 3015TIP3    H230461   4.432   0.837  11.633  0.9118  0.5091 -0.4870
 3016TIP3   OH230462   3.126   5.307   0.131 -0.7170 -0.4863  0.2188
 3016TIP3    H130463   3.136   5.398   0.104  0.6526 -0.5826  0.3933
 3016TIP3    H230464   3.055   5.309   0.195  0.6631  0.7679  1.7446
 3017TIP3   OH230465   4.495   1.668  13.571 -0.2443  0.7697  0.5912
 3017TIP3    H130466   4.424   1.605  13.560 -0.3703  1.0682 -0.3893
 3017TIP3    H230467   4.483   1.702  13.659 -1.7479  1.3095  0.2083
 3018TIP3   OH230468   5.658   5.718   5.783  0.2799 -0.6909 -0.5796
 3018TIP3    H130469   5.645   5.778   5.856  0.3765 -0.1926 -0.9656
 3018TIP3    H230470   5.678   5.633   5.824  2.1245 -0.0178 -0.0422
 3019TIP3   OH230471   2.227   4.505   2.521 -0.3397 -0.0829 -0.1593
 3019TIP3    H130472   2.172   4.520   2.444 -0.2372  0.1398 -0.1881
 3019TIP3    H230473   2.275   4.425   2.501 -0.3075 -0.0212 -0.3288
 3020TIP3   OH230474   3.524   3.750   1.559 -0.1977  0.2980  0.1572
 3020TIP3    H130475   3.538   3.671   1.507 -0.2501 -0.8569  1.8884
 3020TIP3    H230476   3.599   3.806   1.537 -0.2910 -0.1069 -1.2646
 3021TIP3   OH230477   4.913   0.311   1.082 -0.3504  0.2880 -0.3327
 3021TIP3    H130478   4.894   0.382   1.143 -0.1751  0.4783 -0.4958
 3021TIP3    H230479   4.893   0.348   0.996 -0.0113  0.2255 -0.4381
 3022TIP3   OH230480   4.206   2.162  15.389  0.3204  0.2869  0.2921
 3022TIP3    H130481   4.136   2.142  15.327  0.0494  1.5504  0.1837
 3022TIP3    H230482   4.285   2.169  15.335  0.1334  1.1075  0.1164
 3023TIP3   OH230483   2.072   6.751  14.271 -0.4231  0.2764  0.0612
 3023TIP3    H130484   2.011   6.825  14.274  0.9155  1.4699 -1.0570
 3023TIP3    H230485   2.020   6.678  14.237 -1.2173  1.2904 -0.9306
 3024TIP3   OH230486   3.305   5.496   2.036  0.2492  0.0633 -0.7108
 3024TIP3    H130487   3.253   5.426   2.075 -0.7244  1.2539  0.1454
 3024TIP3    H230488   3.396   5.469   2.051 -0.0573  0.7475  2.9774
 3025TIP3   OH230489   5.760   3.465   5.261 -0.1630  0.3383 -0.2229
 3025TIP3    H130490   5.744   3.378   5.223  1.1463 -0.5416  1.1915
 3025TIP3    H230491   5.851   3.462   5.290  0.6018  2.9887 -2.2050
 3026TIP3   OH230492   2.783   4.017  10.823  0.5579 -0.3628  0.0467
 3026TIP3    H130493   2.776   3.947  10.888 -2.1051 -1.7211 -1.6300
 3026TIP3    H230494   2.707   4.004  10.765  0.3257  3.5401 -0.6530
 3027TIP3   OH230495   1.176   0.776   0.435 -0.4901 -0.2147 -0.2467
 3027TIP3    H130496   1.192   0.849   0.375  0.0172  1.2565  1.6609
 3027TIP3    H230497   1.106   0.806   0.493  1.0732 -0.4507  1.8303
 3028TIP3   OH230498   3.012   0.680   0.454 -0.1048 -0.4516 -0.4268
 3028TIP3    H130499   2.956   0.607   0.480 -1.1031 -0.0143 -1.3218
 3028TIP3    H230500   3.069   0.644   0.385 -1.0785 -0.2093 -1.3696
 3029TIP3   OH230501   1.780   2.128  15.191 -0.2428  0.2236  0.5964
 3029TIP3    H130502   1.714   2.102  15.255  0.2260 -0.0399  0.9811
 3029TIP3    H230503   1.850   2.063  15.202  0.3274  0.8388  0.5926
 3030TIP3   OH230504   3.306   3.682  15.125  0.4084  0.2867 -0.1887
 3030TIP3    H130505   3.392   3.659  15.160  0.4112  0.2773 -0.2014
 3030TIP3    H230506   3.284   3.765  15.167  0.9416  0.8852 -1.0481
 3031TIP3   OH230507   3.475   2.210  16.224  0.0584 -0.2329 -0.2363
 3031TIP3    H130508   3.426   2.223  16.144  0.2659 -3.0527 -0.8764
 3031TIP3    H230509   3.411   2.223  16.294 -0.5770  0.3256 -0.9128
 3032TIP3   OH230510   4.539   5.481   0.921  0.4544  0.0053 -0.4263
 3032TIP3    H130511   4.627   5.451   0.944  0.6012  0.7009 -0.0695
 3032TIP3    H230512   4.485   5.402   0.923  0.4576  0.0248  2.3129
 3033TIP3   OH230513   4.511   5.605   5.399  0.1137 -0.1157 -0.2868
 3033TIP3    H130514   4.479   5.661   5.470  1.6888 -0.1622  0.4883
 3033TIP3    H230515   4.491   5.516   5.428  2.2068 -0.2382  0.8953
 3034TIP3   OH230516   0.514   4.838  12.100 -0.3383  0.2429 -0.9067
 3034TIP3    H130517   0.519   4.911  12.038 -1.9976  0.3406 -0.9563
 3034TIP3    H230518   0.498   4.880  12.185  1.5265  0.0864 -0.4557
 3035TIP3   OH230519   5.013   2.447   3.865  0.0536 -1.0629 -0.0480
 3035TIP3    H130520   5.003   2.354   3.845 -1.2452 -0.8768 -0.3010
 3035TIP3    H230521   4.924   2.478   3.880  0.5730 -0.1326  1.2849
 3036TIP3   OH230522   5.877   3.305  12.260 -0.1365 -0.4828 -0.0783
 3036TIP3    H130523   5.957   3.332  12.305  0.6933  0.1082 -1.8316
 3036TIP3    H230524   5.849   3.226  12.306  1.6776 -0.9316  0.3296
 3037TIP3   OH230525   3.497   0.143  16.945 -0.3471 -0.1012 -0.5331
 3037TIP3    H130526   3.493   0.211  17.012  0.5988 -0.2529 -0.3118
 3037TIP3    H230527   3.468   0.186  16.865  2.2279  1.1517 -0.8479
 3038TIP3   OH230528   5.151   2.933  13.666 -0.2748  0.2054  0.3906
 3038TIP3    H130529   5.077   2.875  13.682 -0.1858 -0.1111 -0.3173
 3038TIP3    H230530   5.166   2.927  13.572  1.1117 -0.2960  0.6299
 3039TIP3   OH230531   4.726   0.311   5.297 -0.3869  0.2578  0.1286
 3039TIP3    H130532   4.797   0.348   5.245  0.5616 -0.7269  0.6917
 3039TIP3    H230533   4.684   0.386   5.339 -1.4705  1.1122 -2.4233
 3040TIP3   OH230534   2.615   3.185   2.595  0.1775  0.0983  0.1664
 3040TIP3    H130535   2.582   3.160   2.681  4.7180  0.6070  2.1705
 3040TIP3    H230536   2.610   3.104   2.543 -0.4507 -0.7907  1.5732
 3041TIP3   OH230537   1.926   2.532  13.446  0.8555 -0.1471 -0.5975
 3041TIP3    H130538   1.923   2.603  13.381  0.6576  0.0446 -0.3831
 3041TIP3    H230539   1.839   2.493  13.441  0.6580  0.2202 -0.0595
 3042TIP3   OH230540   6.701   2.108  12.796  0.8888  0.3546 -0.3565
 3042TIP3    H130541   6.623   2.131  12.845  0.5307 -1.1832 -0.1767
 3042TIP3    H230542   6.766   2.174  12.821  0.3230  0.3348  1.1725
 3043TIP3   OH230543   5.220   2.544   1.510  0.0842 -0.2914  0.5941
 3043TIP3    H130544   5.257   2.597   1.439 -1.3428  2.1378  1.5990
 3043TIP3    H230545   5.285   2.551   1.580  0.0937 -0.2588  0.5821
 3044TIP3   OH230546   6.091   1.329   1.147 -0.8040 -0.6788  0.1210
 3044TIP3    H130547   6.112   1.410   1.193 -1.3393 -0.5280  0.0974
 3044TIP3    H230548   6.003   1.342   1.113  0.1943 -0.1141 -2.3682
 3045TIP3   OH230549   5.878   2.570  13.560 -0.9222 -0.2720 -0.0364
 3045TIP3    H130550   5.920   2.503  13.614  0.6184  1.5418  1.0863
 3045TIP3    H230551   5.796   2.590  13.606 -0.2937  0.2475  0.8701
 3046TIP3   OH230552   5.016   0.191  11.595  0.2416  0.0128 -0.2155
 3046TIP3    H130553   5.018   0.098  11.572  1.0494  0.1090 -0.5567
 3046TIP3    H230554   5.076   0.232  11.533 -0.3621  0.8138 -0.2804
 3047TIP3   OH230555   1.464   1.923  14.154 -0.2144  0.2680 -0.4482
 3047TIP3    H130556   1.537   1.865  14.135 -0.3631  0.7483 -2.5335
 3047TIP3    H230557   1.390   1.864  14.170  0.5837 -0.2202  1.6842
 3048TIP3   OH230558   2.156   3.281   5.913 -0.1938  0.5809  0.2348
 3048TIP3    H130559   2.209   3.359   5.927  0.8479 -0.2084  0.7760
 3048TIP3    H230560   2.102   3.274   5.991  0.1870  0.4101  0.4900
 3049TIP3   OH230561   5.333   3.244   5.073 -0.2715  0.8296 -0.0221
 3049TIP3    H130562   5.327   3.279   4.984 -0.6978 -0.1179 -0.3750
 3049TIP3    H230563   5.374   3.314   5.124  1.2359  0.8668 -1.2514
 3050TIP3   OH230564   5.582   0.706  13.738  0.4101 -0.2224 -0.4152
 3050TIP3    H130565   5.533   0.787  13.752 -1.3441 -1.0764 -1.5418
 3050TIP3    H230566   5.638   0.699  13.816 -1.3524  0.6966  0.9741
 3051TIP3   OH230567   6.532   6.458   2.523  0.0950  0.2088  0.2046
 3051TIP3    H130568   6.567   6.546   2.534 -1.6235  0.9462 -0.2173
 3051TIP3    H230569   6.533   6.421   2.612 -0.5423  1.1592  0.6117
 3052TIP3   OH230570   3.359   5.549   0.372  0.0890 -0.1331 -0.1384
 3052TIP3    H130571   3.433   5.513   0.419  0.4695 -0.5563 -1.0476
 3052TIP3    H230572   3.300   5.581   0.440  1.3542  0.7117  0.5736
 3053TIP3   OH230573   3.794   6.739   3.613  0.1366  0.2076 -0.6438
 3053TIP3    H130574   3.826   6.670   3.670 -0.7375  0.8884  0.6803
 3053TIP3    H230575   3.866   6.756   3.552  1.4865  0.2649  0.9664
 3054TIP3   OH230576   1.961   5.161   2.714  0.4648  0.2889  0.2482
 3054TIP3    H130577   1.947   5.101   2.641 -0.5873 -1.5826  1.9430
 3054TIP3    H230578   2.035   5.215   2.686 -0.4013  0.1386 -2.5002
 3055TIP3   OH230579   0.055   1.213  14.764  0.4051  0.5162 -0.6653
 3055TIP3    H130580  -0.030   1.245  14.794  1.3973  1.4160  1.2282
 3055TIP3    H230581   0.102   1.291  14.734  1.5682  0.4311  0.8545
 3056TIP3   OH230582   0.338   2.571  12.231  0.5731  0.0131  0.2531
 3056TIP3    H130583   0.285   2.578  12.311  2.0158  1.5053  1.1281
 3056TIP3    H230584   0.406   2.638  12.242  0.4143  0.6824 -2.5365
 3057TIP3   OH230585   0.933   5.470  16.570  0.0518  0.4007 -0.6652
 3057TIP3    H130586   0.861   5.430  16.522  0.1614  1.5495 -1.8515
 3057TIP3    H230587   0.929   5.563  16.545  1.2447  0.6744  0.1253
 3058TIP3   OH230588   2.960   0.219  16.443  0.1908 -0.6690  0.0789
 3058TIP3    H130589   3.006   0.219  16.527  1.9881  1.6268 -0.8599
 3058TIP3    H230590   3.029   0.235  16.378 -1.2847 -1.6756 -1.7786
 3059TIP3   OH230591   0.098   2.069   4.181 -0.6933  0.6305  0.2134
 3059TIP3    H130592   0.116   2.141   4.242 -1.6401  1.4271 -0.4286
 3059TIP3    H230593   0.025   2.101   4.128 -0.5960 -0.4967 -0.6064
 3060TIP3   OH230594   5.217   5.535  15.574 -0.5777  0.0927 -0.4876
 3060TIP3    H130595   5.278   5.467  15.604 -0.7648  0.1800  0.0763
 3060TIP3    H230596   5.265   5.580  15.504  0.8247  1.5202  1.3427
 3061TIP3   OH230597   2.368   1.792   4.651 -0.3289  0.5092  0.2059
 3061TIP3    H130598   2.363   1.788   4.747 -0.9563  2.5575  0.2870
 3061TIP3    H230599   2.459   1.815   4.633 -0.4663  1.1597  0.3492
 3062TIP3   OH230600   2.560   3.816  10.225  0.1221  0.0289  0.3374
 3062TIP3    H130601   2.554   3.754  10.298 -2.1016 -0.4447 -0.1938
 3062TIP3    H230602   2.471   3.818  10.189  0.4652  2.5782 -0.4524
 3063TIP3   OH230603   1.911   6.240  13.119 -0.2844 -0.1592  0.0565
 3063TIP3    H130604   1.903   6.182  13.195  2.8065 -0.2022  0.4140
 3063TIP3    H230605   1.888   6.327  13.153 -1.8928 -0.6364  0.2614
 3064TIP3   OH230606   0.821   3.003  11.992 -0.2025 -0.6728  0.2214
 3064TIP3    H130607   0.763   3.074  12.016  0.2337 -0.8941  2.0278
 3064TIP3    H230608   0.861   3.030  11.910 -2.1317 -0.1050 -0.5478
 3065TIP3   OH230609   2.062   1.788  12.008  0.1848 -0.3355  0.1166
 3065TIP3    H130610   2.132   1.849  11.983  0.7207 -0.1730  1.9205
 3065TIP3    H230611   2.104   1.702  12.009  0.3205 -0.2707  0.9422
 3066TIP3   OH230612   0.558   5.255   0.589  0.4875 -0.3242  0.3713
 3066TIP3    H130613   0.490   5.322   0.588 -1.3799 -2.1989 -0.8038
 3066TIP3    H230614   0.523   5.183   0.537  3.2657 -1.4511 -0.0596
 3067TIP3   OH230615   3.799   5.351  16.938  1.1116 -0.0338  0.3189
 3067TIP3    H130616   3.769   5.298  17.012 -1.4855 -1.3881 -1.6356
 3067TIP3    H230617   3.777   5.441  16.962 -1.0735 -0.6163  0.5683
 3068TIP3   OH230618   6.540   6.588  13.823 -0.2171 -0.2475  0.6701
 3068TIP3    H130619   6.475   6.657  13.818  0.7298  0.7004  1.2440
 3068TIP3    H230620   6.492   6.512  13.855 -1.3720 -0.0105 -0.4367
 3069TIP3   OH230621   3.066   0.079   6.165 -0.7069 -0.1611 -0.1591
 3069TIP3    H130622   3.029   0.024   6.096  2.2014 -0.0692 -1.8505
 3069TIP3    H230623   3.033   0.167   6.145 -1.3962 -0.4520 -0.3229
 3070TIP3   OH230624   1.177   6.389   4.137  0.7770 -0.4944  0.9571
 3070TIP3    H130625   1.139   6.463   4.183 -2.3639 -1.4771  0.0870
 3070TIP3    H230626   1.271   6.407   4.135  0.1246  3.2985  0.9964
 3071TIP3   OH230627   2.195   1.849   2.296  0.0342 -0.5258 -0.5021
 3071TIP3    H130628   2.136   1.795   2.244  0.4855 -0.7230 -0.8153
 3071TIP3    H230629   2.218   1.795   2.371 -2.0215  0.4203  0.8336
 3072TIP3   OH230630   3.099   0.402   3.586  0.1051  0.7967  0.0798
 3072TIP3    H130631   3.086   0.392   3.492 -0.3613 -0.4367  0.2572
 3072TIP3    H230632   3.158   0.330   3.610 -1.8861 -0.5618  1.1425
 3073TIP3   OH230633   2.699   0.211   1.976 -0.2169  0.2522  0.3146
 3073TIP3    H130634   2.613   0.169   1.970  0.3999 -0.8966 -0.8747
 3073TIP3    H230635   2.716   0.218   2.070 -1.4256  0.1122  0.5507
 3074TIP3   OH230636   0.962   6.136   1.862 -0.0572  0.2215  0.2866
 3074TIP3    H130637   1.002   6.049   1.856  0.7109  0.6841 -1.8599
 3074TIP3    H230638   0.911   6.144   1.782 -1.4105  1.1405  1.2206
 3075TIP3   OH230639   2.471   1.332   6.676 -0.0385 -0.8715 -0.8183
 3075TIP3    H130640   2.422   1.250   6.670  0.2114 -1.0874  0.0738
 3075TIP3    H230641   2.490   1.342   6.770  2.4405 -1.2578 -1.2655
 3076TIP3   OH230642   5.064   6.396  12.058 -0.0133 -0.4227 -0.1895
 3076TIP3    H130643   5.023   6.311  12.045 -2.2869  0.2144  2.2143
 3076TIP3    H230644   5.001   6.459  12.023  1.0583  0.3649 -0.7525
 3077TIP3   OH230645   5.086   1.686  14.696  0.0550 -0.3476 -0.4820
 3077TIP3    H130646   5.114   1.718  14.781  1.6414 -0.9688 -0.7513
 3077TIP3    H230647   5.028   1.754  14.662 -1.5038 -0.6319  1.5727
 3078TIP3   OH230648   0.195   4.665   4.563  0.2485  0.0173 -0.3424
 3078TIP3    H130649   0.249   4.657   4.642  1.0732  1.0911 -0.7729
 3078TIP3    H230650   0.150   4.581   4.556  1.8486 -0.8940  0.0539
 3079TIP3   OH230651   0.412   6.334   4.785 -0.2338  0.7603  0.4225
 3079TIP3    H130652   0.500   6.313   4.751  0.3291  0.7659  1.8505
 3079TIP3    H230653   0.361   6.354   4.707  1.3825  2.0381 -0.3319
 3080TIP3   OH230654   2.084   0.525  15.851  0.4107  0.3925  0.5826
 3080TIP3    H130655   2.022   0.498  15.919  0.0154  0.8877  0.4136
 3080TIP3    H230656   2.080   0.455  15.786  0.0229  0.4313  0.5650
 3081TIP3   OH230657   5.853   0.563   1.733 -0.3891 -0.3875 -0.5047
 3081TIP3    H130658   5.819   0.479   1.763  2.2514 -0.9815  1.0023
 3081TIP3    H230659   5.903   0.542   1.654 -0.2123 -0.1498 -0.4592
 3082TIP3   OH230660   6.672   2.928  16.893  0.0136 -0.2217 -0.2063
 3082TIP3    H130661   6.675   3.012  16.848 -0.5085 -0.2137 -0.2282
 3082TIP3    H230662   6.694   2.948  16.984  1.1783 -0.2525 -0.4618
 3083TIP3   OH230663   5.940   3.324  11.983 -0.1935 -0.0465 -0.0846
 3083TIP3    H130664   5.900   3.326  12.070 -0.9729  0.2526 -0.4486
 3083TIP3    H230665   5.870   3.294  11.925  0.5140 -0.8769 -0.5120
 3084TIP3   OH230666   2.761   5.090   0.441  0.1757 -0.1715 -0.3944
 3084TIP3    H130667   2.835   5.095   0.502  0.7874  0.3729 -1.1736
 3084TIP3    H230668   2.727   5.002   0.452 -1.5413  0.8173  2.8717
 3085TIP3   OH230669   0.212   0.647  12.284 -0.6092  0.2329 -0.1961
 3085TIP3    H130670   0.158   0.613  12.212  0.6270 -0.9274 -0.6148
 3085TIP3    H230671   0.230   0.569  12.338  1.0951  0.4922 -0.3782
 3086TIP3   OH230672   1.738   1.961  16.747  0.2288 -0.5511  0.6225
 3086TIP3    H130673   1.734   1.905  16.669 -0.6373 -1.4344  1.2867
 3086TIP3    H230674   1.689   1.913  16.813  0.8363  0.2595  1.6800
 3087TIP3   OH230675   1.744   6.154   0.992 -0.2345 -0.2922 -0.0313
 3087TIP3    H130676   1.752   6.246   0.965  2.3353 -0.6455 -0.6371
 3087TIP3    H230677   1.716   6.108   0.912 -3.0752  0.1514  0.6655
 3088TIP3   OH230678   0.933   1.927   2.393  0.2753 -0.8448  0.1709
 3088TIP3    H130679   0.901   1.877   2.468 -1.6946  0.7167  0.4119
 3088TIP3    H230680   0.854   1.963   2.353  1.6912  3.0619  0.6948
 3089TIP3   OH230681   0.896   3.784  13.677  0.4342 -0.7118 -0.8993
 3089TIP3    H130682   0.895   3.769  13.772 -1.8795  1.3266 -0.5573
 3089TIP3    H230683   0.977   3.832  13.661 -0.1062  0.6624  0.3722
 3090TIP3   OH230684   3.232   2.383   3.124  0.3311 -0.2941 -0.2001
 3090TIP3    H130685   3.166   2.431   3.175 -0.5077  0.4780 -1.9874
 3090TIP3    H230686   3.315   2.424   3.149 -0.0148 -0.1723  0.8138
 3091TIP3   OH230687   0.373   1.645  12.306  0.3561  0.1749  0.2688
 3091TIP3    H130688   0.298   1.700  12.328 -1.1502 -1.0942 -1.5541
 3091TIP3    H230689   0.404   1.678  12.222  0.8989 -0.2732  0.2855
 3092TIP3   OH230690   2.296   1.679   0.183 -0.2698 -0.1213 -0.2636
 3092TIP3    H130691   2.317   1.598   0.229 -1.5563 -0.0915  0.3959
 3092TIP3    H230692   2.300   1.747   0.251  0.8817  0.3925 -0.8243
 3093TIP3   OH230693   6.740   3.695  12.419 -0.4216  0.9911  0.2442
 3093TIP3    H130694   6.673   3.627  12.405 -1.8826  2.1064  1.5785
 3093TIP3    H230695   6.715   3.736  12.501  3.7116 -0.5719  2.4023
 3094TIP3   OH230696   0.853   3.808   6.278 -0.5029  0.0627  0.1830
 3094TIP3    H130697   0.793   3.754   6.328 -0.4763  0.4592  0.6488
 3094TIP3    H230698   0.815   3.896   6.280  0.3387  0.4275  0.9182
 3095TIP3   OH230699   5.664   1.423   1.686  0.0256  0.5026  0.3202
 3095TIP3    H130700   5.733   1.360   1.664  0.5419  1.3437 -0.4791
 3095TIP3    H230701   5.599   1.412   1.617  0.6576  1.6502 -0.4715
 3096TIP3   OH230702   3.322   0.751   0.083 -0.1253  0.1127  0.2875
 3096TIP3    H130703   3.290   0.682   0.026  0.1773  1.8542 -2.0563
 3096TIP3    H230704   3.414   0.729   0.098 -0.4313 -0.8201  0.8412
 3097TIP3   OH230705   6.434   4.747  14.689 -0.4564  0.0267  0.2459
 3097TIP3    H130706   6.523   4.767  14.717 -0.0562  0.8072 -1.5361
 3097TIP3    H230707   6.442   4.667  14.637 -1.1468 -1.2191  2.0031
 3098TIP3   OH230708   6.662   6.579  15.732 -0.0176 -0.3106 -0.3282
 3098TIP3    H130709   6.691   6.549  15.819 -0.1470 -0.8748 -0.4809
 3098TIP3    H230710   6.567   6.580  15.737 -0.0340 -0.7401 -0.6032
 3099TIP3   OH230711   2.490   5.826   1.365 -0.0261 -0.0128 -0.1255
 3099TIP3    H130712   2.517   5.902   1.415  1.6153 -0.6055 -0.1057
 3099TIP3    H230713   2.396   5.839   1.350  0.8523  3.7620 -3.1425
 3100TIP3   OH230714   1.695   4.968  11.821  0.3167 -0.6878 -0.2949
 3100TIP3    H130715   1.728   5.055  11.843 -2.2326 -0.4887  2.9936
 3100TIP3    H230716   1.626   4.985  11.756  0.3966 -0.3635 -0.2982
 3101TIP3   OH230717   1.363   3.584  11.412 -0.2114 -0.4618  0.2271
 3101TIP3    H130718   1.281   3.632  11.422 -0.0482 -0.1097 -0.1016
 3101TIP3    H230719   1.401   3.582  11.500 -0.6365 -0.7422  0.4030
 3102TIP3   OH230720   1.049   2.881  14.404  0.1552  0.3055 -0.4428
 3102TIP3    H130721   0.999   2.959  14.381  0.6868  1.5433  2.3750
 3102TIP3    H230722   1.006   2.847  14.482 -1.4097 -3.5763 -2.8261
 3103TIP3   OH230723   5.127   3.945   3.471 -0.0307  0.0739  0.3801
 3103TIP3    H130724   5.185   4.020   3.481  1.4276 -1.0804  0.7499
 3103TIP3    H230725   5.051   3.966   3.525  1.3299  0.3449  2.2365
 3104TIP3   OH230726   3.432   4.658  14.046  0.2242 -0.4591  0.1108
 3104TIP3    H130727   3.463   4.572  14.017  0.2831 -0.0074 -1.1931
 3104TIP3    H230728   3.434   4.712  13.967  1.1794  1.0278  1.1309
 3105TIP3   OH230729   1.278   0.196   5.467  0.5411  0.3448  0.0356
 3105TIP3    H130730   1.244   0.239   5.388 -0.2297 -1.9462 -0.9267
 3105TIP3    H230731   1.250   0.105   5.458 -0.1334  0.1925  3.2957
 3106TIP3   OH230732   1.575   4.203   0.359  0.4269  0.3850 -0.3289
 3106TIP3    H130733   1.542   4.123   0.398 -0.4041  0.6467 -0.5004
 3106TIP3    H230734   1.615   4.175   0.277  0.2801  0.1260 -0.3130
 3107TIP3   OH230735   2.048   6.262  11.850  0.3944 -0.6734  0.3126
 3107TIP3    H130736   1.987   6.335  11.839 -1.6165 -2.1593  1.2914
 3107TIP3    H230737   2.083   6.272  11.938  1.5401  0.1357 -0.2212
 3108TIP3   OH230738   1.012   0.028  16.351 -0.5296  0.0104 -0.7848
 3108TIP3    H130739   0.929   0.021  16.305 -1.2629  1.4224  0.2987
 3108TIP3    H230740   1.031  -0.061  16.380 -1.8218 -0.2650 -0.7604
 3109TIP3   OH230741   6.063   3.505  16.544  0.4524  0.4248  0.3252
 3109TIP3    H130742   6.027   3.487  16.458 -0.6312  1.7369  0.4759
 3109TIP3    H230743   6.116   3.428  16.565  0.0429 -0.2772 -1.1335
 3110TIP3   OH230744   5.521   3.289   0.848  0.5954  0.3838 -0.2697
 3110TIP3    H130745   5.457   3.218   0.838  0.8378  0.2383 -0.8083
 3110TIP3    H230746   5.599   3.257   0.803  0.3246  1.4906 -1.5456
 3111TIP3   OH230747   2.977   5.680  16.638  0.2424  0.0680  0.5612
 3111TIP3    H130748   2.916   5.608  16.624 -0.0985  0.4987 -0.1473
 3111TIP3    H230749   3.059   5.637  16.663  0.0995 -0.5733 -0.0590
 3112TIP3   OH230750   3.469   6.292  14.329 -0.9323  0.3735  0.1756
 3112TIP3    H130751   3.503   6.369  14.373 -0.7191  2.0334 -2.7567
 3112TIP3    H230752   3.381   6.318  14.300 -1.4083 -0.9767  0.3845
 3113TIP3   OH230753   2.254   4.238  14.633  0.0735 -0.1187 -0.0378
 3113TIP3    H130754   2.212   4.255  14.718  0.0793  0.9250 -0.2298
 3113TIP3    H230755   2.215   4.303  14.574  0.4427 -0.5050 -0.7086
 3114TIP3   OH230756   0.714   3.170  17.010  0.0116 -0.4482  0.1450
 3114TIP3    H130757   0.759   3.138  16.932 -0.9665 -1.8762  0.1329
 3114TIP3    H230758   0.660   3.243  16.979 -0.2754 -0.9302 -0.4974
 3115TIP3   OH230759   3.542   3.346   3.115  0.6351 -0.0712 -0.2093
 3115TIP3    H130760   3.638   3.349   3.113  0.6979  0.2072  1.7687
 3115TIP3    H230761   3.520   3.254   3.100  1.2289 -0.1498 -0.5838
 3116TIP3   OH230762   1.636   0.930   4.601  0.2624 -0.0980 -0.1077
 3116TIP3    H130763   1.636   0.842   4.638 -0.0506 -0.2885 -0.5522
 3116TIP3    H230764   1.652   0.988   4.675  0.3900 -0.5265  0.1976
 3117TIP3   OH230765   4.198   5.845   0.090 -0.3040  0.0650 -0.0543
 3117TIP3    H130766   4.273   5.895   0.125 -1.6904  1.3155  1.1856
 3117TIP3    H230767   4.183   5.776   0.154  0.3666 -0.7738 -0.7836
 3118TIP3   OH230768   0.134   0.215   2.582 -0.3628  0.6845 -0.1596
 3118TIP3    H130769   0.219   0.260   2.594  0.0395 -0.1946  0.2814
 3118TIP3    H230770   0.146   0.130   2.624 -2.1430  1.3169  1.7054
 3119TIP3   OH230771   5.407   2.298   5.651 -0.1739  0.1351  0.0622
 3119TIP3    H130772   5.333   2.242   5.627 -0.1853  0.6948 -1.2208
 3119TIP3    H230773   5.405   2.370   5.587  1.4517  0.1796  0.0504
 3120TIP3   OH230774   0.802   0.798  11.410 -0.3288 -0.1555  0.8107
 3120TIP3    H130775   0.742   0.861  11.371 -2.5486 -2.7364 -0.1152
 3120TIP3    H230776   0.753   0.715  11.411  2.5370 -1.9310  1.7924
 3121TIP3   OH230777   4.242   2.326   0.721 -0.3586  0.0381 -0.1679
 3121TIP3    H130778   4.163   2.275   0.737  0.7191 -2.1586 -1.6614
 3121TIP3    H230779   4.241   2.394   0.788 -1.6902 -2.1105  2.0520
 3122TIP3   OH230780   5.695   1.798  13.249  0.3239 -0.4363  0.4784
 3122TIP3    H130781   5.754   1.750  13.191  0.5483  0.0292  0.3120
 3122TIP3    H230782   5.610   1.757  13.237  0.3623 -0.3087 -0.2224
 3123TIP3   OH230783   0.733   5.247   1.184  0.0140  0.5026  0.2042
 3123TIP3    H130784   0.664   5.213   1.241 -1.6246  2.8720 -0.2983
 3123TIP3    H230785   0.695   5.246   1.097  0.0742  3.0903  0.1007
 3124TIP3   OH230786   2.658   6.643   0.102 -0.3166 -0.4916  0.3349
 3124TIP3    H130787   2.683   6.556   0.133 -1.5301 -1.2384 -0.7691
 3124TIP3    H230788   2.741   6.690   0.094  0.5373 -2.1504 -0.8568
 3125TIP3   OH230789   0.366   3.482  16.700  0.3765 -0.3091  0.0556
 3125TIP3    H130790   0.305   3.440  16.639 -0.6538  1.9708 -0.5084
 3125TIP3    H230791   0.384   3.414  16.765 -2.4776 -1.1525  0.0371
 3126TIP3   OH230792   1.238   3.198  12.384  0.3291 -0.1132 -0.2618
 3126TIP3    H130793   1.212   3.149  12.462  0.8385  0.4571  0.2779
 3126TIP3    H230794   1.321   3.160  12.358  0.7447  0.4796  0.1818
 3127TIP3   OH230795   6.550   3.398   2.948  0.1003  0.0949 -0.6571
 3127TIP3    H130796   6.457   3.385   2.964 -0.3384  1.4514 -2.0017
 3127TIP3    H230797   6.566   3.357   2.863  1.2619 -2.2438  0.6243
 3128TIP3   OH230798   3.746   2.711   3.869  0.1904  0.8350  0.2593
 3128TIP3    H130799   3.719   2.799   3.845  2.2790  1.8146  1.4195
 3128TIP3    H230800   3.723   2.702   3.961 -0.8423 -0.1771 -0.0780
 3129TIP3   OH230801   1.094   2.244   1.787  0.6611  0.6846 -0.3603
 3129TIP3    H130802   1.076   2.192   1.865  0.5971  0.1523 -0.7331
 3129TIP3    H230803   1.098   2.334   1.819  0.1142  0.5227  0.1741
 3130TIP3   OH230804   0.015   3.573  14.172  0.3491 -0.2347  0.5990
 3130TIP3    H130805   0.057   3.497  14.212  2.2993  0.5268  0.0827
 3130TIP3    H230806  -0.068   3.540  14.137  1.8034 -2.4405 -0.8617
 3131TIP3   OH230807   5.075   2.805  16.097 -0.1374  0.5028 -0.0012
 3131TIP3    H130808   5.014   2.843  16.161 -1.2786  0.0146 -0.7667
 3131TIP3    H230809   5.029   2.814  16.013 -0.3024 -2.2654 -0.2460
 3132TIP3   OH230810   1.977   0.239  13.100  0.3289 -0.2003  0.2046
 3132TIP3    H130811   2.026   0.297  13.159 -1.0486 -1.0320  2.2266
 3132TIP3    H230812   1.886   0.264  13.113 -0.4033 -3.5158  1.9494
 3133TIP3   OH230813   3.841   6.687  15.516 -0.2534  0.0273 -0.8483
 3133TIP3    H130814   3.906   6.655  15.454 -0.0197  0.8355 -1.0133
 3133TIP3    H230815   3.762   6.701  15.462 -0.4836 -0.6665 -0.6993
 3134TIP3   OH230816   6.684   1.532   3.473 -0.3914 -0.0751  0.4584
 3134TIP3    H130817   6.664   1.578   3.554  0.2984 -1.0604  1.2131
 3134TIP3    H230818   6.612   1.469   3.463  0.2954 -0.9976  1.1404
 3135TIP3   OH230819   6.215   0.721  11.272  0.4268  0.4340 -0.1287
 3135TIP3    H130820   6.216   0.626  11.268  0.2673  0.4509 -0.5423
 3135TIP3    H230821   6.226   0.741  11.365 -2.3248 -0.0320  0.3242
 3136TIP3   OH230822   2.349   0.701   5.112  0.2011  0.6722 -0.2817
 3136TIP3    H130823   2.403   0.755   5.054  0.6997  0.8327  0.3322
 3136TIP3    H230824   2.373   0.729   5.200 -1.2075  1.0616 -0.0039
 3137TIP3   OH230825   2.112   4.784   0.033  0.4859  0.0624 -0.1853
 3137TIP3    H130826   2.036   4.744   0.075  1.7881  0.8561  3.1726
 3137TIP3    H230827   2.119   4.741  -0.052 -1.5956 -2.5682  0.8958
 3138TIP3   OH230828   4.536   1.524  10.830 -0.3509  0.1036  0.1656
 3138TIP3    H130829   4.536   1.592  10.763  0.5481 -0.1891 -0.1452
 3138TIP3    H230830   4.627   1.519  10.859 -0.6619 -0.0596  1.1182
 3139TIP3   OH230831   3.207   4.312   1.898  0.6859  0.3202  0.4248
 3139TIP3    H130832   3.124   4.360   1.894  1.1995  1.0537 -1.7862
 3139TIP3    H230833   3.271   4.370   1.855  2.5707  0.1597  2.8747
 3140TIP3   OH230834   4.055   2.600   1.111 -0.5264 -0.1486  0.6457
 3140TIP3    H130835   3.994   2.653   1.059 -0.3665  0.1308  0.7394
 3140TIP3    H230836   4.107   2.664   1.160  0.6733 -0.3293 -0.3593
 3141TIP3   OH230837   0.233   3.772   3.581  0.5278  0.0180 -0.3733
 3141TIP3    H130838   0.144   3.800   3.562  0.6098 -0.2629 -1.2072
 3141TIP3    H230839   0.286   3.816   3.515  1.0186  0.2624  0.1826
 3142TIP3   OH230840   5.853   6.117  16.571  0.1943  0.3123  0.5852
 3142TIP3    H130841   5.830   6.025  16.557 -0.3403  0.5358 -0.0314
 3142TIP3    H230842   5.948   6.120  16.563  0.2543 -0.2690  1.0701
 3143TIP3   OH230843   4.775   5.320  14.697 -0.5659  0.0413  0.5125
 3143TIP3    H130844   4.849   5.326  14.636  2.2429 -0.7930  3.6923
 3143TIP3    H230845   4.752   5.227  14.698  0.4633 -0.2122  1.8892
 3144TIP3   OH230846   0.467   2.500  12.710 -0.1161 -0.3098 -0.1721
 3144TIP3    H130847   0.422   2.415  12.718 -0.6041  0.0397  0.8560
 3144TIP3    H230848   0.509   2.512  12.795  1.0207 -0.1203 -0.7665
 3145TIP3   OH230849   2.999   0.728   4.065  0.6000  0.7246  0.2959
 3145TIP3    H130850   3.087   0.739   4.030 -0.3414  0.8925 -2.1377
 3145TIP3    H230851   2.974   0.639   4.039 -0.3316  1.0444  0.0799
 3146TIP3   OH230852   4.029   2.141  14.688 -0.0190  0.7465 -0.7677
 3146TIP3    H130853   4.017   2.172  14.778  1.0020 -1.9734  0.3554
 3146TIP3    H230854   4.114   2.177  14.662 -0.1521  1.2508 -0.5114
 3147TIP3   OH230855   3.873   0.113   3.412 -0.4363  0.1409 -0.4468
 3147TIP3    H130856   3.951   0.155   3.448  0.2269 -0.5624 -1.0484
 3147TIP3    H230857   3.874   0.136   3.319 -0.9841  0.1814 -0.4449
 3148TIP3   OH230858   2.421   2.235   0.906 -0.1151 -0.2043 -0.5617
 3148TIP3    H130859   2.439   2.303   0.971 -0.1381  1.2774 -2.0688
 3148TIP3    H230860   2.368   2.279   0.840  0.0082 -1.6603 -1.6411
 3149TIP3   OH230861   4.877   4.491  15.098  0.3302  1.1056 -0.4923
 3149TIP3    H130862   4.897   4.423  15.033  1.0709  1.1322 -0.2953
 3149TIP3    H230863   4.893   4.448  15.183  0.3921  1.3970 -0.3562
 3150TIP3   OH230864   6.039   0.407  10.935 -0.6797 -0.2382 -0.1639
 3150TIP3    H130865   6.113   0.386  10.879  0.1111  1.0601  0.3802
 3150TIP3    H230866   6.011   0.494  10.907  0.8570  1.2200  2.5792
 3151TIP3   OH230867   2.752   4.478   0.391 -0.3048 -0.5643  0.3807
 3151TIP3    H130868   2.684   4.510   0.332  0.0083  0.5307  0.6082
 3151TIP3    H230869   2.834   4.495   0.345 -0.1687 -1.6557  0.2155
 3152TIP3   OH230870   3.059   1.417  12.424 -0.1061  0.0204  0.5175
 3152TIP3    H130871   3.096   1.347  12.371  1.1003  1.0461 -0.0207
 3152TIP3    H230872   3.131   1.446  12.480 -1.0101 -0.1716  1.7842
 3153TIP3   OH230873   3.146   4.093  15.094  0.5965  0.1463  0.2771
 3153TIP3    H130874   3.211   4.066  15.029 -0.7978 -1.5450 -0.4554
 3153TIP3    H230875   3.133   4.187  15.079  0.3371 -0.2188 -1.8512
 3154TIP3   OH230876   6.786   6.760  13.207 -0.5404  0.0349  0.4788
 3154TIP3    H130877   6.826   6.673  13.202  1.3724  0.9087 -0.1062
 3154TIP3    H230878   6.699   6.748  13.170 -0.0376 -1.4881 -0.2789
 3155TIP3   OH230879   5.376   3.160  15.429 -0.0791  0.2477 -0.4150
 3155TIP3    H130880   5.323   3.131  15.504 -0.5823 -0.0849 -0.8955
 3155TIP3    H230881   5.341   3.246  15.406  0.5235  0.6477  0.1572
 3156TIP3   OH230882   1.430   3.284   2.013  0.8168  0.1112  0.2630
 3156TIP3    H130883   1.384   3.261   1.932 -1.3897  1.6794  1.0249
 3156TIP3    H230884   1.432   3.202   2.063  0.5912 -0.4377 -0.6103
 3157TIP3   OH230885   3.529   1.846   2.554  0.4419  0.5931 -0.2610
 3157TIP3    H130886   3.623   1.863   2.546  1.0169 -2.5879 -0.8133
 3157TIP3    H230887   3.500   1.828   2.464 -0.0972 -1.2337  0.2646
 3158TIP3   OH230888   3.501   3.422   2.146 -0.4631 -0.0865  0.6685
 3158TIP3    H130889   3.553   3.496   2.114 -1.1592 -0.0473 -0.4122
 3158TIP3    H230890   3.564   3.352   2.160 -0.3414 -0.7194 -2.6809
 3159TIP3   OH230891   1.408   2.260  16.104  0.1793  0.0272 -0.3510
 3159TIP3    H130892   1.350   2.201  16.056  0.1985 -0.7337  0.5456
 3159TIP3    H230893   1.369   2.268  16.191  1.5105 -0.6532  0.3246
 3160TIP3   OH230894   2.385   2.399  13.331 -0.1923  0.0093 -0.1303
 3160TIP3    H130895   2.453   2.360  13.386 -0.0623 -0.6147 -0.7211
 3160TIP3    H230896   2.330   2.449  13.391 -0.1920 -0.8589  0.5937
 3161TIP3   OH230897   4.765   6.066  14.888  0.0385 -0.1083  0.5872
 3161TIP3    H130898   4.707   6.132  14.850  0.3065  0.1862  0.6899
 3161TIP3    H230899   4.844   6.070  14.835  0.0015 -0.4491  0.5038
 3162TIP3   OH230900   1.581   6.668  16.680  0.1267  0.2166  0.1790
 3162TIP3    H130901   1.652   6.716  16.636  0.8639 -0.9019  0.1209
 3162TIP3    H230902   1.503   6.686  16.627  0.9299 -0.7957 -1.3881
 3163TIP3   OH230903   2.412   0.520  16.279  0.1298  0.7466  0.1446
 3163TIP3    H130904   2.368   0.557  16.202  3.2144  3.0038 -0.6045
 3163TIP3    H230905   2.481   0.464  16.243 -0.0430 -0.2274  1.3001
 3164TIP3   OH230906   0.197   0.319  16.052 -0.0278 -0.5303 -0.4786
 3164TIP3    H130907   0.158   0.262  15.986 -0.3752 -0.7305 -0.0988
 3164TIP3    H230908   0.280   0.347  16.013  0.5458 -1.9798 -0.2960
 3165TIP3   OH230909   1.733   5.321  14.432 -0.5063  0.6588  0.6409
 3165TIP3    H130910   1.814   5.273  14.451 -0.4650  0.3226 -0.3406
 3165TIP3    H230911   1.668   5.281  14.490 -0.3853 -0.3647  0.0990
 3166TIP3   OH230912   6.670   0.505  12.311  0.2281 -0.5098  0.2358
 3166TIP3    H130913   6.698   0.438  12.248 -0.4976 -0.1073 -0.5292
 3166TIP3    H230914   6.723   0.582  12.290 -0.8459  0.0000 -0.6861
 3167TIP3   OH230915   6.341   0.763  16.950  0.4174 -0.2578  0.1689
 3167TIP3    H130916   6.309   0.806  16.870 -0.1616 -0.9489  0.0236
 3167TIP3    H230917   6.293   0.680  16.953  0.0488 -0.0039  1.5231
 3168TIP3   OH230918   5.072   3.538  11.536 -0.5684 -0.1037  0.2035
 3168TIP3    H130919   5.091   3.458  11.584 -1.5060  0.1939  1.0928
 3168TIP3    H230920   5.064   3.510  11.445  3.3581 -0.3254 -0.1377
 3169TIP3   OH230921   5.209   6.596  13.298  0.3618  0.4553  0.5174
 3169TIP3    H130922   5.300   6.620  13.281  0.4854  0.1175  0.7059
 3169TIP3    H230923   5.162   6.679  13.296  0.6742  0.6318  0.4259
 3170TIP3   OH230924   4.418   1.915   2.201 -0.2143  0.7029  0.6595
 3170TIP3    H130925   4.362   1.986   2.172 -2.3426 -0.8515  0.8369
 3170TIP3    H230926   4.477   1.899   2.128 -1.4059  0.9827 -0.3818
 3171TIP3   OH230927   6.078   4.937  13.970  0.0891  0.3259 -0.0560
 3171TIP3    H130928   6.070   4.854  14.016 -0.4535  0.8861  0.8912
 3171TIP3    H230929   6.110   4.914  13.883  1.2453 -0.7538  0.6357
 3172TIP3   OH230930   4.456   2.682   2.110  0.0301 -0.1605 -0.2714
 3172TIP3    H130931   4.439   2.751   2.173  1.1290  0.8785 -1.0898
 3172TIP3    H230932   4.537   2.640   2.142  0.0374 -0.2769 -0.4403
 3173TIP3   OH230933   6.167   0.459   0.410  0.0536  0.0904  0.0898
 3173TIP3    H130934   6.215   0.404   0.473 -0.5254  1.6693  1.9567
 3173TIP3    H230935   6.101   0.400   0.373 -0.6569 -0.4605  2.1594
 3174TIP3   OH230936   1.549   6.017  13.822  0.0493  0.6569 -0.6037
 3174TIP3    H130937   1.482   5.949  13.809 -1.4397  1.7708  0.9513
 3174TIP3    H230938   1.534   6.080  13.751  0.0217  0.4635 -0.7696
 3175TIP3   OH230939   4.158   3.272  10.944  0.1920 -0.6629 -0.2030
 3175TIP3    H130940   4.135   3.180  10.951 -1.7153 -0.0619  2.1718
 3175TIP3    H230941   4.232   3.283  11.004  0.6906 -0.7244 -0.8010
 3176TIP3   OH230942   0.722   4.200  16.477  0.4818  0.1980  0.2961
 3176TIP3    H130943   0.758   4.231  16.394  0.6817  2.8990  1.3260
 3176TIP3    H230944   0.648   4.144  16.451  1.0639  0.3018 -1.7006
 3177TIP3   OH230945   2.432   0.992  11.964  0.5869 -0.4104  0.1364
 3177TIP3    H130946   2.405   0.918  11.911  1.6653 -1.8094  1.4942
 3177TIP3    H230947   2.452   0.954  12.050  2.4530  1.2385  0.4647
 3178TIP3   OH230948   0.133   3.217   2.789  0.0015 -0.4171  0.3091
 3178TIP3    H130949   0.172   3.249   2.870 -2.1911  1.5910  0.6326
 3178TIP3    H230950   0.136   3.122   2.797  1.0237 -0.2490  2.1569
 3179TIP3   OH230951   2.626   0.963  13.205 -0.0082  0.0842  0.7296
 3179TIP3    H130952   2.630   0.882  13.256  1.9116 -0.7193 -0.6172
 3179TIP3    H230953   2.673   1.027  13.257  0.0614 -0.1585  0.9648
 3180TIP3   OH230954   4.194   6.411   5.314  0.1099 -0.1914  0.1228
 3180TIP3    H130955   4.241   6.329   5.329  0.7402 -0.0634 -1.1066
 3180TIP3    H230956   4.262   6.474   5.291 -0.2186  1.0104  2.2890
 3181TIP3   OH230957   1.885   6.058  16.704 -0.7023  0.3781 -0.0686
 3181TIP3    H130958   1.811   6.102  16.746 -0.4963  0.9983 -0.3468
 3181TIP3    H230959   1.954   6.124  16.703 -0.1496 -0.2035  0.1863
 3182TIP3   OH230960   4.657   5.958  13.564 -0.4132  0.0322 -0.6706
 3182TIP3    H130961   4.607   5.997  13.636  0.1074 -0.1768 -0.1812
 3182TIP3    H230962   4.749   5.975  13.588 -0.2476  0.1953 -1.4241
 3183TIP3   OH230963   5.551   4.513   2.471  0.4035 -0.3391 -0.6154
 3183TIP3    H130964   5.506   4.434   2.442 -0.9902  0.0859  0.3491
 3183TIP3    H230965   5.639   4.483   2.495  0.1394 -1.4529 -1.0266
 3184TIP3   OH230966   3.994   1.944   5.380 -0.3124  0.2802 -0.2240
 3184TIP3    H130967   3.954   2.016   5.333 -1.3733 -0.8248 -1.0463
 3184TIP3    H230968   4.042   1.895   5.313 -0.9783 -0.7227  0.0210
 3185TIP3   OH230969   6.254   4.710   6.657  0.0176 -0.4028 -0.0957
 3185TIP3    H130970   6.184   4.646   6.664 -0.5017  0.1485 -0.1581
 3185TIP3    H230971   6.225   4.770   6.588  0.0300  0.4622  0.6362
 3186TIP3   OH230972   3.680   5.291  15.258 -0.2586  1.0598  0.2545
 3186TIP3    H130973   3.682   5.387  15.258  0.5018  1.0550 -0.7462
 3186TIP3    H230974   3.607   5.268  15.316 -0.7442  2.2489  0.1229
 3187TIP3   OH230975   4.818   3.367  14.796 -0.5821 -0.2895  0.3612
 3187TIP3    H130976   4.814   3.318  14.714  0.3866 -1.6554  1.1099
 3187TIP3    H230977   4.844   3.455  14.770  2.4524 -1.3940 -0.5869
 3188TIP3   OH230978   3.792   1.919   3.941 -0.4394  0.2568 -0.2420
 3188TIP3    H130979   3.735   1.957   3.874 -1.9048 -0.7116  0.4271
 3188TIP3    H230980   3.817   1.993   3.996  0.4312  0.9908 -1.5808
 3189TIP3   OH230981   2.768   4.453  11.106 -0.4493  0.3928 -0.0400
 3189TIP3    H130982   2.792   4.362  11.090  2.0760  0.5561  2.6043
 3189TIP3    H230983   2.828   4.504  11.051 -0.4423  0.5329  0.0943
 3190TIP3   OH230984   5.566   4.378  11.016  0.0294 -0.0921 -0.1596
 3190TIP3    H130985   5.592   4.465  10.985  1.4157 -0.4133  0.0832
 3190TIP3    H230986   5.508   4.395  11.090 -1.9565  0.6635 -1.8208
 3191TIP3   OH230987   3.413   3.143  11.660  0.3536 -0.7071  0.0120
 3191TIP3    H130988   3.413   3.127  11.566 -0.4564 -0.9822  0.0521
 3191TIP3    H230989   3.505   3.160  11.682  0.5386 -0.5908 -0.8320
 3192TIP3   OH230990   6.770   6.548   1.643  0.5796  1.1353  0.1279
 3192TIP3    H130991   6.860   6.524   1.623  0.1926  0.7678 -1.1789
 3192TIP3    H230992   6.766   6.642   1.627  0.6561  1.1020 -0.0823
 3193TIP3   OH230993   0.648   5.516  12.351  0.3979  0.2478 -0.4637
 3193TIP3    H130994   0.576   5.533  12.291 -0.3799 -0.7862  0.1698
 3193TIP3    H230995   0.648   5.592  12.410  0.6278  0.8521 -1.2335
 3194TIP3   OH230996   2.059   5.267  13.247  0.0543  0.3056 -0.2817
 3194TIP3    H130997   2.145   5.243  13.214  0.6418  0.2248  1.2319
 3194TIP3    H230998   2.013   5.304  13.172  1.3037  0.0896 -1.1680
 3195TIP3   OH230999   1.487   5.054   5.963 -0.1795 -0.2805 -0.1632
 3195TIP3    H131000   1.578   5.026   5.950  0.8411  2.9883 -0.5425
 3195TIP3    H231001   1.478   5.063   6.058  0.5769  1.3782 -0.2240
 3196TIP3   OH231002   1.237   3.217  13.831 -0.3443 -0.5795  0.0713
 3196TIP3    H131003   1.221   3.122  13.835  1.7694 -0.9018  1.9697
 3196TIP3    H231004   1.303   3.227  13.763  0.4650 -0.6445  0.8369
 3197TIP3   OH231005   5.638   1.722  14.860  0.0777  0.0643  1.0932
 3197TIP3    H131006   5.649   1.767  14.944 -2.9835  2.2298  0.4293
 3197TIP3    H231007   5.725   1.723  14.821  0.9827  1.5283  3.0402
 3198TIP3   OH231008   0.714   0.268  12.546 -0.0449 -0.0198  0.2553
 3198TIP3    H131009   0.647   0.312  12.494 -0.6514 -0.7487  0.4007
 3198TIP3    H231010   0.771   0.226  12.481  0.6255  1.0946  0.1140
 3199TIP3   OH231011   3.344   0.572   2.926  0.0942  0.0058  0.2049
 3199TIP3    H131012   3.269   0.626   2.950 -0.7695 -0.9401 -0.3595
 3199TIP3    H231013   3.310   0.483   2.923  1.5939 -0.6545  1.5578
 3200TIP3   OH231014   1.552   0.162  14.906 -0.0294 -0.0666 -0.1077
 3200TIP3    H131015   1.529   0.124  14.821 -2.8988  1.2359  0.0584
 3200TIP3    H231016   1.585   0.087  14.956 -1.3723 -1.5042 -1.2882
 3201TIP3   OH231017   5.501   3.518  16.025 -0.3449  0.0034  0.3019
 3201TIP3    H131018   5.426   3.495  16.079 -0.5590  1.8021  0.8339
 3201TIP3    H231019   5.465   3.571  15.954  0.1928 -0.6165 -0.4341
 3202TIP3   OH231020   5.730   1.291   0.226  0.3722  0.1672  0.5921
 3202TIP3    H131021   5.676   1.307   0.304 -1.0486 -2.2064  0.1445
 3202TIP3    H231022   5.774   1.375   0.210 -2.7907  2.0553  1.2898
 3203TIP3   OH231023   6.513   2.534  17.034  0.0220  0.3840  0.5693
 3203TIP3    H131024   6.522   2.610  17.092 -0.1467  1.3966 -0.7021
 3203TIP3    H231025   6.434   2.552  16.984  0.6521 -0.0573 -0.5957
 3204TIP3   OH231026   0.174   0.970  16.257  0.2477 -0.6742  0.6623
 3204TIP3    H131027   0.078   0.974  16.248  0.1820 -0.9149  1.2894
 3204TIP3    H231028   0.196   1.048  16.307  0.3346 -0.8776  0.9379
 3205TIP3   OH231029   6.447   4.337   3.465 -0.0638 -0.0894  0.6814
 3205TIP3    H131030   6.471   4.323   3.374 -0.5516  0.6118  0.4394
 3205TIP3    H231031   6.417   4.251   3.496 -0.9074 -0.0943 -0.1253
 3206TIP3   OH231032   1.511   3.448   2.951 -0.6792 -0.4544  0.5864
 3206TIP3    H131033   1.452   3.374   2.958 -0.1417 -1.3307 -2.9389
 3206TIP3    H231034   1.498   3.481   2.862  3.7786 -0.4588 -0.2044
 3207TIP3   OH231035   4.815   3.890  10.919  0.1576 -0.0465  0.5961
 3207TIP3    H131036   4.854   3.803  10.927 -0.8616 -0.6111 -0.4246
 3207TIP3    H231037   4.721   3.876  10.928  0.0168  1.0202  0.9213
 3208TIP3   OH231038   4.023   0.948  15.031  1.0421  0.8598 -0.8251
 3208TIP3    H131039   4.111   0.918  15.009  0.6693  0.1328 -1.3788
 3208TIP3    H231040   3.986   0.877  15.084  0.7994  1.1728 -0.5739
 3209TIP3   OH231041   6.471   2.708   3.824  0.1091  0.0001 -0.0372
 3209TIP3    H131042   6.403   2.719   3.891  0.6602 -2.5140  1.0238
 3209TIP3    H231043   6.427   2.724   3.741 -1.7477 -1.3658  0.6519
 3210TIP3   OH231044   2.972   3.233  14.312  0.1738 -0.0550 -0.0555
 3210TIP3    H131045   3.015   3.318  14.324  0.7842 -0.5830  1.6563
 3210TIP3    H231046   2.900   3.233  14.375 -0.9256 -0.1239 -1.2741
 3211TIP3   OH231047   5.279   5.851   0.041 -0.2871  0.0499 -0.0137
 3211TIP3    H131048   5.207   5.789   0.059 -0.8956  0.6037 -0.5158
 3211TIP3    H231049   5.292   5.845  -0.053 -0.5473  0.9017 -0.1057
 3212TIP3   OH231050   4.560   0.326  13.437 -0.5059  0.3997  0.1268
 3212TIP3    H131051   4.512   0.408  13.433 -0.6112  0.4000  1.2429
 3212TIP3    H231052   4.576   0.303  13.345  1.4264  2.7523 -0.1748
 3213TIP3   OH231053   4.183   4.700   0.545 -0.4930 -0.4648 -1.0891
 3213TIP3    H131054   4.129   4.654   0.480 -1.7979  0.5605 -0.7503
 3213TIP3    H231055   4.191   4.789   0.510  1.3958 -0.7330 -1.3775
 3214TIP3   OH231056   2.095   4.394  15.683 -0.1113  0.0064 -0.0679
 3214TIP3    H131057   2.076   4.300  15.687 -0.8125  0.0641 -1.7817
 3214TIP3    H231058   2.177   4.403  15.732  0.5286 -1.6644 -0.7687
 3215TIP3   OH231059   2.477   1.830   5.032  0.1211 -0.0570  0.0513
 3215TIP3    H131060   2.392   1.863   5.059  1.0420  1.2139  1.4788
 3215TIP3    H231061   2.523   1.907   4.999  0.9381 -0.6189 -0.1403
 3216TIP3   OH231062   2.346   1.495  15.421  0.1052 -0.1815 -0.0724
 3216TIP3    H131063   2.333   1.544  15.340 -1.7391 -0.4266  0.0400
 3216TIP3    H231064   2.436   1.464  15.417  0.8445  2.0200 -0.7874
 3217TIP3   OH231065   2.415   5.187   6.621  1.1158 -0.0293 -0.1629
 3217TIP3    H131066   2.398   5.233   6.703  1.0905  0.1629 -0.2754
 3217TIP3    H231067   2.504   5.214   6.596  0.4325  1.3672 -1.1513
 3218TIP3   OH231068   2.792   1.891   1.486 -0.0645 -0.0852 -0.2108
 3218TIP3    H131069   2.791   1.865   1.394  1.8971 -0.3144 -0.1814
 3218TIP3    H231070   2.730   1.830   1.528  0.2719 -1.0613 -1.1016
 3219TIP3   OH231071   5.485   3.988   4.187 -0.1050 -0.0015  0.1830
 3219TIP3    H131072   5.407   3.950   4.146  0.7215 -0.7854 -0.7055
 3219TIP3    H231073   5.540   3.912   4.207 -0.8590  0.2848  3.5557
 3220TIP3   OH231074   1.317   2.100   0.566 -0.2223  0.5828 -0.4115
 3220TIP3    H131075   1.409   2.106   0.592  0.2407  0.6774 -2.0123
 3220TIP3    H231076   1.273   2.063   0.643  1.6865 -2.6607 -0.7607
 3221TIP3   OH231077   6.192   6.471   5.740  0.5744  0.4317  0.2165
 3221TIP3    H131078   6.178   6.493   5.832 -0.2690 -0.9684  0.4449
 3221TIP3    H231079   6.189   6.555   5.694 -0.1035  1.0364  1.3412
 3222TIP3   OH231080   1.528   2.639   3.520  0.1540 -0.4799  0.2242
 3222TIP3    H131081   1.544   2.728   3.490 -0.0838 -0.6364 -0.3814
 3222TIP3    H231082   1.442   2.643   3.563  0.1794 -0.4031  0.2685
 3223TIP3   OH231083   1.101   6.663   3.302 -0.4608 -0.2468  0.1647
 3223TIP3    H131084   1.107   6.748   3.346 -0.8444 -0.2735  0.2705
 3223TIP3    H231085   1.167   6.609   3.345 -1.3816 -0.5198  1.2767
 3224TIP3   OH231086   0.687   4.489  16.876 -0.1532 -0.0786  0.3404
 3224TIP3    H131087   0.731   4.468  16.794  0.1196  0.4431  0.3484
 3224TIP3    H231088   0.627   4.560  16.854  0.8732  0.9674  0.8539
 3225TIP3   OH231089   5.595   4.210   1.988 -0.8960 -0.0996 -0.2173
 3225TIP3    H131090   5.670   4.269   1.993 -0.4353 -0.7784  1.0453
 3225TIP3    H231091   5.544   4.242   1.914 -0.3797  1.5662  0.1373
 3226TIP3   OH231092   4.149   2.303   2.505 -0.1673 -0.1856  0.2252
 3226TIP3    H131093   4.081   2.263   2.559 -0.5052 -0.9026 -0.7139
 3226TIP3    H231094   4.206   2.349   2.567 -1.8582  0.9503  0.9656
 3227TIP3   OH231095   3.959   4.032  12.262 -0.6396 -0.3880 -0.0662
 3227TIP3    H131096   3.917   4.015  12.178 -1.1654 -0.8337  0.2860
 3227TIP3    H231097   3.964   3.946  12.305 -0.4123 -0.1591  0.3715
 3228TIP3   OH231098   1.168   3.508  13.281 -0.7587 -0.0271  0.2470
 3228TIP3    H131099   1.187   3.583  13.337 -0.1936  0.3190 -0.3975
 3228TIP3    H231100   1.074   3.510  13.268 -1.0138 -0.6283  1.9067
 3229TIP3   OH231101   2.763   5.277  14.136  0.7099  0.0439 -0.0649
 3229TIP3    H131102   2.689   5.329  14.104 -0.9629 -1.4018  1.3675
 3229TIP3    H231103   2.778   5.309  14.225 -1.3226 -2.8578  1.4041
 3230TIP3   OH231104   1.183   3.518   1.310  0.2369  0.0506 -0.3492
 3230TIP3    H131105   1.129   3.519   1.389  0.4910  1.2272 -0.1860
 3230TIP3    H231106   1.124   3.489   1.240 -0.0944 -0.5715  0.1854
 3231TIP3   OH231107   4.188   5.236   6.707  0.1079 -0.1957  0.1770
 3231TIP3    H131108   4.248   5.173   6.668  0.0771 -0.2711  0.2486
 3231TIP3    H231109   4.242   5.313   6.725 -0.2768  0.5121 -1.6809
 3232TIP3   OH231110   6.000   1.143   2.758  0.2342  0.2366 -0.4126
 3232TIP3    H131111   6.021   1.131   2.665  0.7606  1.2012 -0.4232
 3232TIP3    H231112   6.085   1.158   2.799  0.1135 -1.2247  0.3943
 3233TIP3   OH231113   4.292   6.399   1.493 -0.6055 -0.4755  0.3971
 3233TIP3    H131114   4.366   6.443   1.534 -0.2673 -1.1815  0.5620
 3233TIP3    H231115   4.330   6.349   1.421 -0.6804 -2.0482  1.4082
 3234TIP3   OH231116   5.450   1.509  12.168  0.0201 -0.3371  0.0280
 3234TIP3    H131117   5.538   1.479  12.192  1.1203  1.5607 -1.5029
 3234TIP3    H231118   5.424   1.452  12.095  1.7567  1.7718 -2.3150
 3235TIP3   OH231119   6.633   1.664   4.945 -0.0317 -0.6717  0.2378
 3235TIP3    H131120   6.676   1.723   5.006  0.5865 -1.4174  0.5256
 3235TIP3    H231121   6.599   1.593   4.999  2.2915 -2.3828 -0.4977
 3236TIP3   OH231122   3.491   4.465   3.522  0.2425 -0.5094  0.5793
 3236TIP3    H131123   3.501   4.377   3.558  0.4870  0.0652  1.9102
 3236TIP3    H231124   3.516   4.524   3.592 -1.5590  0.6901  0.2738
 3237TIP3   OH231125   5.057   4.563   3.024  0.2120 -0.2412 -0.1316
 3237TIP3    H131126   4.995   4.589   2.956 -0.1061 -3.2197 -1.0452
 3237TIP3    H231127   5.017   4.593   3.106 -1.2579 -0.0254 -0.9138
 3238TIP3   OH231128   3.982   2.074  16.468  0.3367  0.6695 -0.0651
 3238TIP3    H131129   3.893   2.075  16.433 -0.4902  0.3792  1.9374
 3238TIP3    H231130   3.997   2.165  16.495  0.3688  0.5626  0.2711
 3239TIP3   OH231131   3.249   2.686  13.798  0.3660  0.3539 -0.0241
 3239TIP3    H131132   3.278   2.757  13.857  0.2292  2.2004 -2.1067
 3239TIP3    H231133   3.329   2.656  13.756  0.4201 -0.7663  0.8442
 3240TIP3   OH231134   0.938   3.277  17.119  0.2342  0.0486 -0.2816
 3240TIP3    H131135   0.989   3.199  17.096  0.5104 -0.4963  1.9615
 3240TIP3    H231136   0.848   3.254  17.095  0.5440 -0.3542 -1.0678
 3241TIP3   OH231137   1.513   0.604  13.679  0.4643  0.8293  0.0937
 3241TIP3    H131138   1.440   0.659  13.649 -0.1060  0.6080  1.0752
 3241TIP3    H231139   1.586   0.665  13.688  0.1891  1.1954 -0.1059
 3242TIP3   OH231140   5.261   2.135   4.577  0.1996 -0.1797  0.9386
 3242TIP3    H131141   5.180   2.135   4.628 -1.0887 -0.2496 -1.0468
 3242TIP3    H231142   5.233   2.155   4.488  2.3106 -0.7723  0.1101
 3243TIP3   OH231143   6.704   0.889   0.131 -0.3055 -0.6213  0.0861
 3243TIP3    H131144   6.798   0.873   0.125  0.2614  2.6771 -0.9630
 3243TIP3    H231145   6.670   0.864   0.045 -0.2063 -0.8065  0.1010
 3244TIP3   OH231146   0.657   0.047   3.515  0.0295 -0.8640  0.1107
 3244TIP3    H131147   0.685  -0.020   3.453 -0.4057 -0.1221 -0.9139
 3244TIP3    H231148   0.562   0.037   3.522 -0.2195  0.4993 -1.1013
 3245TIP3   OH231149   1.416   4.257   4.205  0.2133 -0.3550  0.0280
 3245TIP3    H131150   1.484   4.189   4.208  0.6697  0.0807 -0.3747
 3245TIP3    H231151   1.354   4.225   4.139  0.6787 -0.1484 -0.5113
 3246TIP3   OH231152   5.071   2.522   1.261 -0.3138  0.5745  0.3248
 3246TIP3    H131153   5.062   2.450   1.198  0.3227  0.8275 -0.0498
 3246TIP3    H231154   5.031   2.488   1.342 -0.4382 -0.0250  0.0115
 3247TIP3   OH231155   5.344   4.168  16.248  0.0014 -0.2966  0.2874
 3247TIP3    H131156   5.426   4.156  16.296  0.8269  0.9840 -0.7299
 3247TIP3    H231157   5.339   4.263  16.234  0.1972 -0.6952 -2.7932
 3248TIP3   OH231158   3.166   3.539   6.231 -0.1212  0.3945  0.1380
 3248TIP3    H131159   3.216   3.575   6.304 -2.5971 -1.2037  2.6917
 3248TIP3    H231160   3.221   3.467   6.198  1.0790  1.2344  0.2778
 3249TIP3   OH231161   1.921   0.573   3.757 -0.0291 -1.2080 -0.2333
 3249TIP3    H131162   1.842   0.553   3.706 -0.9060 -0.5488  0.8293
 3249TIP3    H231163   1.901   0.541   3.845  0.3619  0.1374  0.3529
 3250TIP3   OH231164   5.314   4.311  15.393  0.1383 -0.4294  0.3376
 3250TIP3    H131165   5.315   4.396  15.349 -1.3076 -0.4034  0.3437
 3250TIP3    H231166   5.379   4.259  15.346  1.7712  0.9888  0.9846
 3251TIP3   OH231167   6.369   1.922   4.004  0.0639  0.3826  0.0408
 3251TIP3    H131168   6.319   1.881   4.075 -0.6916  0.5655 -0.3844
 3251TIP3    H231169   6.308   1.985   3.965  0.3723  0.0449 -0.9826
 3252TIP3   OH231170   5.375   0.643  14.096  0.2020  0.5039  0.2435
 3252TIP3    H131171   5.365   0.736  14.114  2.9431  0.7529  0.6749
 3252TIP3    H231172   5.313   0.625  14.025 -1.8856  2.1577  1.5919
 3253TIP3   OH231173   3.232   3.459   1.300 -0.3795  0.6410  0.3779
 3253TIP3    H131174   3.219   3.422   1.213  2.5615  1.1267 -0.3217
 3253TIP3    H231175   3.223   3.553   1.288 -0.1508  0.6977  0.6328
 3254TIP3   OH231176   5.605   3.821  12.300  0.1411 -0.0477  0.1699
 3254TIP3    H131177   5.544   3.889  12.270  0.0073 -0.2149  0.0598
 3254TIP3    H231178   5.615   3.764  12.224  0.4335 -0.0229  0.1913
 3255TIP3   OH231179   1.540   2.175  12.215  0.7217 -0.3543  0.1001
 3255TIP3    H131180   1.493   2.235  12.273 -1.8071 -2.6260  0.4493
 3255TIP3    H231181   1.534   2.090  12.257  0.4371 -1.7168 -2.5758
 3256TIP3   OH231182   1.369   0.889   1.657 -0.0861  0.6340  1.0566
 3256TIP3    H131183   1.305   0.930   1.599  0.6368  0.9480  0.4600
 3256TIP3    H231184   1.446   0.946   1.652  1.1917 -1.1330 -0.3361
 3257TIP3   OH231185   2.684   1.956  12.270 -0.0419 -0.0519  0.4723
 3257TIP3    H131186   2.637   2.010  12.207  0.3180  0.9354  1.0324
 3257TIP3    H231187   2.640   1.871  12.267  1.1812 -0.6175 -2.4975
 3258TIP3   OH231188   3.571   5.440   5.854  0.2878  0.2109 -0.4975
 3258TIP3    H131189   3.641   5.462   5.915  0.1042 -0.5747  0.0077
 3258TIP3    H231190   3.563   5.345   5.860  1.6745 -0.1171 -3.3006
 3259TIP3   OH231191   3.419   0.396   0.737  0.5520  0.1914 -0.0760
 3259TIP3    H131192   3.489   0.375   0.798  1.2892  1.7079 -0.3745
 3259TIP3    H231193   3.448   0.360   0.653  0.8743  0.6471 -0.1571
 3260TIP3   OH231194   4.910   1.942   5.583 -0.0082  0.2123  0.1806
 3260TIP3    H131195   4.885   1.943   5.675 -0.0044 -0.7050  0.1946
 3260TIP3    H231196   4.829   1.921   5.536 -0.0286  0.7612 -0.0367
 3261TIP3   OH231197   0.990   3.813   1.835  0.5658 -0.3198  0.4257
 3261TIP3    H131198   1.059   3.857   1.785 -1.4133  0.5930 -1.5984
 3261TIP3    H231199   0.978   3.868   1.912  0.4367  0.8543 -0.4206
 3262TIP3   OH231200   4.164   2.478  15.139 -0.0572  0.1800 -0.5885
 3262TIP3    H131201   4.254   2.505  15.161  0.1758 -1.4348  0.5599
 3262TIP3    H231202   4.176   2.405  15.078 -0.5850  0.0277 -0.5082
 3263TIP3   OH231203   3.979   4.109   1.770 -0.0434 -0.2095  0.2754
 3263TIP3    H131204   3.930   4.101   1.852  0.0008 -0.4521  0.2789
 3263TIP3    H231205   4.069   4.091   1.794  0.0085 -0.0273  0.2192
 3264TIP3   OH231206   4.344   0.652   4.424  0.6191  0.3655 -0.3699
 3264TIP3    H131207   4.323   0.589   4.493 -0.2202  0.6010 -0.4078
 3264TIP3    H231208   4.305   0.734   4.455  2.6620  1.1432  0.2241
 3265TIP3   OH231209   5.482   3.022  14.251 -0.6765 -0.3997  0.2765
 3265TIP3    H131210   5.545   2.966  14.297 -0.5050 -0.1486  0.3504
 3265TIP3    H231211   5.409   3.031  14.312 -0.5668 -0.2860  0.3902
 3266TIP3   OH231212   2.743   5.282  15.020  0.1249 -0.0041  0.3190
 3266TIP3    H131213   2.682   5.224  14.975 -0.3755  0.9594 -0.2483
 3266TIP3    H231214   2.707   5.291  15.108  0.0425 -0.3045  0.3168
 3267TIP3   OH231215   0.035   3.307  15.942  0.0888 -0.3908 -0.5704
 3267TIP3    H131216   0.110   3.366  15.937 -0.6699  0.6378  0.0651
 3267TIP3    H231217  -0.011   3.319  15.859 -0.2751  0.1994 -0.2857
 3268TIP3   OH231218   5.037   4.226  14.019 -0.2254  0.0067  0.4052
 3268TIP3    H131219   5.055   4.305  13.968 -2.4517  0.6971  0.6413
 3268TIP3    H231220   5.045   4.155  13.956  1.9511  0.3927  0.2255
 3269TIP3   OH231221   2.209   2.020  14.884  0.5952 -0.1024 -0.0712
 3269TIP3    H131222   2.141   2.076  14.848  0.0148  0.4185  1.7912
 3269TIP3    H231223   2.285   2.035  14.828 -0.5327  0.0347 -1.5815
 3270TIP3   OH231224   6.048   5.288  12.137  0.2426 -0.1310 -0.0847
 3270TIP3    H131225   6.052   5.203  12.093 -0.5593 -0.3212  0.2038
 3270TIP3    H231226   5.961   5.322  12.117 -0.0300 -0.0933  1.1041
 3271TIP3   OH231227   1.836   5.771  13.998 -0.7322 -0.6121  0.2353
 3271TIP3    H131228   1.851   5.830  14.072 -2.9516 -0.8905  0.9396
 3271TIP3    H231229   1.820   5.830  13.924  1.2926 -0.3351  0.0091
 3272TIP3   OH231230   5.345   2.655  12.646 -0.1558  0.8060  0.5781
 3272TIP3    H131231   5.310   2.589  12.706 -0.3126 -0.5423 -0.9605
 3272TIP3    H231232   5.268   2.707  12.621 -0.5410 -0.2207 -0.4092
 3273TIP3   OH231233   6.413   0.494   1.719  0.3521 -0.5017  0.0220
 3273TIP3    H131234   6.346   0.427   1.734  1.4874 -1.1702  2.4300
 3273TIP3    H231235   6.494   0.445   1.707  0.5455  0.3222 -2.3319
 3274TIP3   OH231236   3.649   4.799   2.671 -1.0198  0.5151 -0.1511
 3274TIP3    H131237   3.640   4.788   2.577  1.3581  1.4216 -0.5187
 3274TIP3    H231238   3.692   4.884   2.681  1.2940 -0.8122  1.6099
 3275TIP3   OH231239   6.718   5.693   5.182 -0.2432  0.4120  0.0806
 3275TIP3    H131240   6.746   5.784   5.189 -0.0189  0.4328 -1.0811
 3275TIP3    H231241   6.744   5.653   5.265 -0.3322  1.4010  0.5887
 3276TIP3   OH231242   4.777   2.471   4.348  0.5182 -0.2650  0.3905
 3276TIP3    H131243   4.836   2.463   4.423 -0.4423 -0.2210  1.1463
 3276TIP3    H231244   4.751   2.563   4.347  1.7877  0.1096 -0.9635
 3277TIP3   OH231245   0.155   2.547   5.280 -0.1852 -0.3843  0.3661
 3277TIP3    H131246   0.183   2.460   5.307 -0.4471 -0.2319  1.1390
 3277TIP3    H231247   0.193   2.559   5.193 -1.4716 -1.9045 -0.4329
 3278TIP3   OH231248   4.072   3.680   3.639 -0.1113 -0.1360 -0.0244
 3278TIP3    H131249   4.047   3.772   3.630  0.0102  0.0230  1.2425
 3278TIP3    H231250   4.099   3.671   3.730  0.7055 -1.2277 -0.3645
 3279TIP3   OH231251   2.271   2.417  10.359  0.0456  0.5315 -0.1025
 3279TIP3    H131252   2.244   2.325  10.362 -2.9658  1.3184 -1.0051
 3279TIP3    H231253   2.292   2.439  10.449  3.2758 -1.6897 -0.2405
 3280TIP3   OH231254   2.908   4.788   0.658  0.3425 -0.0601 -0.2937
 3280TIP3    H131255   2.960   4.813   0.581 -1.9681  0.2136 -1.8210
 3280TIP3    H231256   2.924   4.694   0.667  0.5972 -0.1127 -1.1548
 3281TIP3   OH231257   5.430   3.627  14.250 -0.2377  0.1803  0.2090
 3281TIP3    H131258   5.466   3.679  14.179 -0.5658  0.7875  0.4773
 3281TIP3    H231259   5.467   3.539  14.238 -0.0663  0.3548 -0.5327
 3282TIP3   OH231260   6.229   4.138   2.803 -0.8227  0.0003 -0.5215
 3282TIP3    H131261   6.222   4.071   2.871 -0.4050 -1.1253 -1.5549
 3282TIP3    H231262   6.177   4.104   2.730  0.0019  0.4421 -1.3291
 3283TIP3   OH231263   5.630   5.665   3.406 -0.1733 -0.2332  0.6798
 3283TIP3    H131264   5.615   5.735   3.342  0.7985 -0.3900  0.2754
 3283TIP3    H231265   5.716   5.630   3.384  0.0666 -0.4623  1.9088
 3284TIP3   OH231266   3.961   1.225   6.161 -0.4407  0.1821 -0.5752
 3284TIP3    H131267   4.044   1.254   6.199  1.1969 -2.7934 -1.7305
 3284TIP3    H231268   3.976   1.134   6.137 -4.2429 -0.5981 -0.3129
 3285TIP3   OH231269   5.233   2.339  10.419 -0.0108  0.0457 -0.0300
 3285TIP3    H131270   5.254   2.247  10.436 -2.4940 -0.6295 -0.4058
 3285TIP3    H231271   5.164   2.359  10.482 -1.9528  0.5953 -2.3058
 3286TIP3   OH231272   2.972   0.585   5.693 -0.6051  0.1978  0.3853
 3286TIP3    H131273   2.954   0.627   5.608 -2.6594 -1.1973  0.0865
 3286TIP3    H231274   2.943   0.650   5.758 -0.3071  0.7213  0.0044
 3287TIP3   OH231275   0.807   3.534  17.141 -0.0124  0.2987  0.4643
 3287TIP3    H131276   0.865   3.598  17.099 -0.6287  0.0526 -0.7681
 3287TIP3    H231277   0.852   3.450  17.128 -1.9025 -0.2716 -2.8716
 3288TIP3   OH231278   5.905   6.061  10.849 -0.1341 -0.1137  0.3918
 3288TIP3    H131279   5.928   6.118  10.776  0.8288 -0.9078  0.0709
 3288TIP3    H231280   5.923   5.972  10.818 -1.8996 -0.6383  0.7829
 3289TIP3   OH231281   2.955   3.728   0.731  0.0110  0.1137  0.1064
 3289TIP3    H131282   3.037   3.762   0.766  0.6185 -0.5970 -0.5915
 3289TIP3    H231283   2.927   3.794   0.667 -0.0772  0.4643  0.5077
 3290TIP3   OH231284   6.130   4.629   0.052  0.3736  0.5478 -0.2253
 3290TIP3    H131285   6.174   4.631  -0.033  2.1537  2.0009  0.6988
 3290TIP3    H231286   6.085   4.714   0.058  1.3861  1.0212  0.8449
 3291TIP3   OH231287   2.525   4.471  12.555  0.1484 -0.3497 -0.3470
 3291TIP3    H131288   2.569   4.439  12.476  1.0934  0.9647 -0.3912
 3291TIP3    H231289   2.566   4.423  12.627 -1.8160 -2.6878 -0.7572
 3292TIP3   OH231290   6.583   4.903   1.470 -0.3471 -0.0718  0.1060
 3292TIP3    H131291   6.587   4.944   1.384  2.7225  1.6698  1.0096
 3292TIP3    H231292   6.566   4.976   1.531  0.8375 -0.7693  1.2953
 3293TIP3   OH231293   6.311   0.580  11.728 -0.4378  0.0391  0.0323
 3293TIP3    H131294   6.237   0.625  11.687 -0.3740 -0.9491 -1.2098
 3293TIP3    H231295   6.320   0.498  11.679 -0.9988 -1.6863  2.6771
 3294TIP3   OH231296   2.893   4.740  13.281  0.2700  0.2362  0.0373
 3294TIP3    H131297   2.843   4.804  13.231  0.3797  0.4146  0.1519
 3294TIP3    H231298   2.828   4.691  13.330  0.2035  0.4570  0.1746
 3295TIP3   OH231299   5.418   6.164  12.302 -0.2215  0.3454 -0.0162
 3295TIP3    H131300   5.389   6.167  12.211 -0.3974  2.2004  0.0866
 3295TIP3    H231301   5.359   6.101  12.343 -0.1958 -0.4478 -1.1459
 3296TIP3   OH231302   0.970   3.414  16.360 -0.0750  0.4036 -0.6256
 3296TIP3    H131303   0.917   3.459  16.295 -1.6510  1.6842  1.4661
 3296TIP3    H231304   1.055   3.400  16.318 -1.1599  0.8976 -3.0233
 3297TIP3   OH231305   2.522   2.469  11.681 -0.4701 -0.2227  0.2346
 3297TIP3    H131306   2.572   2.547  11.657 -0.1053 -0.2711  0.8166
 3297TIP3    H231307   2.450   2.502  11.734 -0.9768 -0.1681 -0.4848
 3298TIP3   OH231308   5.296   5.278  13.349 -0.3156 -0.1746 -0.0443
 3298TIP3    H131309   5.259   5.337  13.284 -1.3814 -0.8904 -0.1119
 3298TIP3    H231310   5.260   5.307  13.432 -2.0938 -1.6723 -0.2684
 3299TIP3   OH231311   3.813   5.846   4.761 -0.1930  0.6012 -0.0696
 3299TIP3    H131312   3.775   5.910   4.700  0.2405 -0.3636 -1.3723
 3299TIP3    H231313   3.839   5.898   4.836 -0.3463  1.8883 -0.8885
 3300TIP3   OH231314   4.541   3.421  13.102 -0.0090  0.8224 -0.0183
 3300TIP3    H131315   4.598   3.498  13.100 -0.1161  0.9062  0.1625
 3300TIP3    H231316   4.501   3.419  13.015  0.9075  0.2757 -0.4275
 3301TIP3   OH231317   1.058   5.231   5.474  0.2282 -0.3276  0.1880
 3301TIP3    H131318   1.061   5.287   5.552 -0.3091 -1.3381  0.9505
 3301TIP3    H231319   1.130   5.170   5.485 -0.1552 -0.7927  0.1393
 3302TIP3   OH231320   2.746   5.832   1.825 -0.1327 -0.1232 -0.0021
 3302TIP3    H131321   2.827   5.879   1.807 -0.4297  0.2133 -0.4572
 3302TIP3    H231322   2.677   5.888   1.791 -0.6881  0.3490  1.8276
 3303TIP3   OH231323   4.538   6.053   5.998 -0.5588  0.0781  0.0485
 3303TIP3    H131324   4.630   6.065   6.021 -0.8150 -0.3467  1.2898
 3303TIP3    H231325   4.498   6.017   6.076 -1.7968  0.2842 -0.4845
 3304TIP3   OH231326   4.731   4.831  11.887 -0.6197 -0.0034 -0.0502
 3304TIP3    H131327   4.748   4.902  11.826 -0.5828 -0.0774 -0.1265
 3304TIP3    H231328   4.817   4.790  11.901 -0.7244 -0.3374 -0.3837
 3305TIP3   OH231329   6.185   0.559   0.145 -0.5868 -0.4089  0.1720
 3305TIP3    H131330   6.107   0.601   0.107 -0.8676 -0.8435  0.2608
 3305TIP3    H231331   6.170   0.561   0.239  0.3013  1.0373  0.2956
 3306TIP3   OH231332   1.751   6.290  16.559 -0.6492  0.1077  0.9248
 3306TIP3    H131333   1.764   6.244  16.641 -2.7793 -1.8278  0.2306
 3306TIP3    H231334   1.656   6.300  16.551 -0.4623  0.6392 -1.0928
 3307TIP3   OH231335   5.883   3.196   4.715  0.8032  0.0484 -0.0261
 3307TIP3    H131336   5.822   3.269   4.724  1.3502  0.3204  1.7360
 3307TIP3    H231337   5.827   3.119   4.711  0.3289  0.2264  2.3662
 3308TIP3   OH231338   5.395   0.884  16.717 -0.0043 -0.0567 -0.1621
 3308TIP3    H131339   5.364   0.974  16.707 -0.5964 -0.2849 -0.3705
 3308TIP3    H231340   5.319   0.836  16.751  0.3600 -0.4443  0.1104
 3309TIP3   OH231341   5.334   3.409  15.101  0.6927 -0.0705 -0.0409
 3309TIP3    H131342   5.392   3.334  15.117 -0.4331 -0.6936  1.2649
 3309TIP3    H231343   5.262   3.373  15.049  1.5162  0.7344 -1.7915
 3310TIP3   OH231344   6.139   1.849   2.216  0.6304  0.2731 -0.0566
 3310TIP3    H131345   6.143   1.914   2.285 -1.5751 -0.6250  0.9968
 3310TIP3    H231346   6.056   1.866   2.172  1.1703 -0.3016 -1.3278
 3311TIP3   OH231347   1.220   2.708   1.994  0.2942 -0.2980 -0.3307
 3311TIP3    H131348   1.270   2.691   1.915  0.8518 -0.9070  0.1434
 3311TIP3    H231349   1.287   2.719   2.062 -0.2052 -1.0887  0.2993
 3312TIP3   OH231350   3.070   4.013   0.551  0.4550  0.5384 -0.0320
 3312TIP3    H131351   3.128   4.001   0.476  1.5471  0.5091  0.8107
 3312TIP3    H231352   2.998   4.067   0.517  1.0079  0.6332 -1.0659
 3313TIP3   OH231353   2.946   1.463  13.053  0.1631  0.5997  0.6834
 3313TIP3    H131354   2.872   1.411  13.022 -0.4932  0.5170  2.3559
 3313TIP3    H231355   2.936   1.548  13.011  0.7001 -0.2904 -1.3107
 3314TIP3   OH231356   2.370   1.006   1.793 -0.3244 -0.3766 -0.3159
 3314TIP3    H131357   2.403   1.001   1.882 -0.8608 -2.6199 -0.1951
 3314TIP3    H231358   2.425   0.944   1.744 -1.9370 -1.3811 -0.8977
 3315TIP3   OH231359   4.278   6.602  12.376 -0.2094  0.1649  0.3386
 3315TIP3    H131360   4.254   6.650  12.297  1.2896 -0.2182 -0.3589
 3315TIP3    H231361   4.196   6.561  12.405 -0.9245  0.9235 -0.5761
 3316TIP3   OH231362   2.552   3.594   6.057  0.0272 -0.6711 -0.1760
 3316TIP3    H131363   2.524   3.547   6.135  2.1997 -1.1641  0.3432
 3316TIP3    H231364   2.646   3.606   6.069  0.6391 -1.8834 -3.2958
 3317TIP3   OH231365   1.683   5.394   3.637 -0.1574 -0.4678  0.5483
 3317TIP3    H131366   1.636   5.320   3.599  0.4032  0.0531 -1.1773
 3317TIP3    H231367   1.696   5.455   3.564  1.3204  0.3567  1.4727
 3318TIP3   OH231368   4.449   1.300  16.043 -0.5177 -0.1253 -0.5242
 3318TIP3    H131369   4.541   1.289  16.065 -0.5855  0.3164 -0.0071
 3318TIP3    H231370   4.404   1.231  16.092 -0.5140 -0.0141 -0.3617
 3319TIP3   OH231371   2.408   1.456   6.434 -0.2432 -0.2814 -0.1026
 3319TIP3    H131372   2.320   1.422   6.419 -0.3465 -0.1682  0.2273
 3319TIP3    H231373   2.431   1.425   6.522 -0.0947 -0.0168 -0.0473
 3320TIP3   OH231374   1.885   4.779  16.517 -0.0479 -0.0525 -0.0649
 3320TIP3    H131375   1.955   4.730  16.560 -0.5713 -0.1517  0.6840
 3320TIP3    H231376   1.867   4.730  16.437 -0.1552 -0.7587  0.3849
 3321TIP3   OH231377   4.546   3.997  12.576 -0.3177 -0.4556 -0.5143
 3321TIP3    H131378   4.490   4.064  12.615  0.0940 -1.2502  1.4831
 3321TIP3    H231379   4.581   4.038  12.497 -0.8810  1.3025  0.1301
 3322TIP3   OH231380   0.521   0.929   1.167  0.4850  0.5746  0.1691
 3322TIP3    H131381   0.456   0.904   1.101 -0.3778  1.8930  0.5064
 3322TIP3    H231382   0.605   0.904   1.129 -0.1322 -0.1322 -0.7428
 3323TIP3   OH231383   3.338   0.831  15.910 -0.7324  0.2990  0.1796
 3323TIP3    H131384   3.407   0.855  15.848 -2.3148  2.6864 -0.7194
 3323TIP3    H231385   3.352   0.889  15.985 -0.3607 -0.8427  1.0087
 3324TIP3   OH231386   0.200   3.316   4.626  0.2993 -0.4176 -0.1335
 3324TIP3    H131387   0.273   3.315   4.688 -0.8157  0.4426  1.2395
 3324TIP3    H231388   0.178   3.409   4.618 -0.2464 -0.6229 -1.0028
 3325TIP3   OH231389   2.059   1.806  11.061  0.2390 -0.1177 -0.4834
 3325TIP3    H131390   2.074   1.712  11.052 -1.5567 -0.4002 -0.8246
 3325TIP3    H231391   1.979   1.822  11.010  1.9716  2.0504 -2.6676
 3326TIP3   OH231392   6.180   1.088   2.110 -0.0445 -0.1423  0.6717
 3326TIP3    H131393   6.264   1.091   2.064 -0.0398  0.6279  0.7126
 3326TIP3    H231394   6.176   1.172   2.157 -2.1421  1.1634 -1.6865
 3327TIP3   OH231395   6.524   3.615  15.415 -0.5199  0.0210  0.0767
 3327TIP3    H131396   6.588   3.544  15.414 -0.6912 -0.1448 -1.7731
 3327TIP3    H231397   6.441   3.572  15.436 -0.1459  0.1395  1.8546
 3328TIP3   OH231398   5.124   4.717   0.993  0.0712 -0.7128 -0.2783
 3328TIP3    H131399   5.204   4.669   1.012  1.9500  2.2509 -0.3978
 3328TIP3    H231400   5.136   4.750   0.904  0.3269  2.6740  0.9225
 3329TIP3   OH231401   2.948   0.116   5.777  0.1444  0.1074 -0.2357
 3329TIP3    H131402   2.993   0.199   5.761  2.3014 -0.9090  0.4773
 3329TIP3    H231403   2.906   0.127   5.862 -0.1068  0.6869 -0.4312
 3330TIP3   OH231404   6.162   6.578  12.858  0.0746 -0.3262 -0.2140
 3330TIP3    H131405   6.120   6.583  12.773  1.3414  0.2579 -0.8176
 3330TIP3    H231406   6.116   6.643  12.912 -0.3189 -0.2636 -0.6271
 3331TIP3   OH231407   3.543   4.267  15.585  0.3773  0.6341  0.1203
 3331TIP3    H131408   3.566   4.357  15.562  3.3778  0.0226  0.4171
 3331TIP3    H231409   3.548   4.265  15.681  1.3507 -0.0810  0.0606
 3332TIP3   OH231410   4.645   5.389  15.944  0.2810 -0.5317  0.2306
 3332TIP3    H131411   4.639   5.299  15.976  0.2037 -0.2294  1.0712
 3332TIP3    H231412   4.683   5.438  16.017 -0.2547  0.2324  0.0013
 3333TIP3   OH231413   2.417   2.743   1.007 -0.1194  0.1628 -0.0564
 3333TIP3    H131414   2.411   2.795   0.927 -0.2693 -0.4160 -0.4287
 3333TIP3    H231415   2.343   2.772   1.060 -1.0152 -0.6125 -0.8413
 3334TIP3   OH231416   6.208   6.191  12.622 -0.2105  0.1149 -0.0943
 3334TIP3    H131417   6.212   6.103  12.585 -0.4414  0.4245 -0.8487
 3334TIP3    H231418   6.121   6.223  12.600 -0.0847  0.5796  0.0813
 3335TIP3   OH231419   3.994   3.735   5.158 -0.3671  0.1125  0.5501
 3335TIP3    H131420   3.930   3.677   5.198 -2.6136  0.2898 -2.5685
 3335TIP3    H231421   3.986   3.719   5.064  2.4804  1.9263 -0.0875
 3336TIP3   OH231422   1.881   5.158  11.276 -0.3082 -0.3895  0.0201
 3336TIP3    H131423   1.898   5.245  11.241 -1.7785 -0.7088 -1.5570
 3336TIP3    H231424   1.862   5.104  11.199 -0.5190 -1.8432  1.0591
 3337TIP3   OH231425   0.714   6.156   2.818  0.1802  0.4555  0.1155
 3337TIP3    H131426   0.751   6.072   2.846  1.1884  0.5086 -1.0281
 3337TIP3    H231427   0.632   6.132   2.774 -0.4826  0.2336  1.4426
 3338TIP3   OH231428   2.765   4.643   0.992  0.2483  0.0680  0.3648
 3338TIP3    H131429   2.757   4.726   0.945  0.5159 -0.0057  0.1876
 3338TIP3    H231430   2.827   4.662   1.063  4.2527 -1.2429 -2.6198
 3339TIP3   OH231431   2.990   6.304  11.903  0.7377 -0.1266 -0.0678
 3339TIP3    H131432   3.000   6.209  11.894  2.4964 -0.2608  2.6628
 3339TIP3    H231433   2.944   6.315  11.986  2.9020  1.4690  0.9562
 3340TIP3   OH231434   6.041   6.292   1.927  0.1966  0.0494 -0.3441
 3340TIP3    H131435   5.993   6.286   2.010 -0.3104  0.7767 -0.5797
 3340TIP3    H231436   6.127   6.255   1.946  0.1463  0.3911  0.5565
 3341TIP3   OH231437   2.057   0.787  12.337  0.3787 -0.1381  0.0333
 3341TIP3    H131438   2.090   0.873  12.310  0.1256 -0.5555 -1.6611
 3341TIP3    H231439   2.097   0.726  12.274  0.5333 -1.2559  1.2082
 3342TIP3   OH231440   3.707   4.267  13.060 -0.0156 -0.1399  0.2066
 3342TIP3    H131441   3.771   4.201  13.035  0.6332  0.2577  0.7965
 3342TIP3    H231442   3.666   4.293  12.978  0.0852 -0.9088 -0.0880
 3343TIP3   OH231443   6.063   2.367   0.560 -0.3035  0.6769  0.2381
 3343TIP3    H131444   6.098   2.427   0.494  0.9411  2.0287  2.0730
 3343TIP3    H231445   6.007   2.422   0.615  2.1635  0.5636  2.9427
 3344TIP3   OH231446   2.096   2.935   3.955  0.3551 -0.6135  0.1405
 3344TIP3    H131447   2.074   2.920   4.047 -0.7609 -0.4860 -0.0968
 3344TIP3    H231448   2.149   3.015   3.956 -1.9213  0.9255  0.4083
 3345TIP3   OH231449   2.601   3.811   0.128  0.4560 -0.2300  0.3659
 3345TIP3    H131450   2.666   3.821   0.198  0.3369 -1.4606  0.6496
 3345TIP3    H231451   2.638   3.744   0.071 -0.7360 -1.1885  0.7178
 3346TIP3   OH231452   0.186   3.214  14.859 -0.3231 -0.4766  0.2175
 3346TIP3    H131453   0.123   3.254  14.919  0.4575  0.8411  0.1780
 3346TIP3    H231454   0.266   3.207  14.910 -0.0530 -0.6418 -0.2319
 3347TIP3   OH231455   1.406   2.381  15.252  0.0763  0.7400  0.3252
 3347TIP3    H131456   1.480   2.413  15.303  1.4922 -2.7366  0.5473
 3347TIP3    H231457   1.348   2.340  15.317 -1.5302  2.3778 -0.0069
 3348TIP3   OH231458   2.168   6.255   1.233 -0.0272 -0.7712  0.0214
 3348TIP3    H131459   2.210   6.331   1.193 -1.4604  1.2379  2.1750
 3348TIP3    H231460   2.224   6.232   1.307  0.1334 -1.5129 -0.3229
 3349TIP3   OH231461   2.326   3.846   2.451 -0.1183 -0.4630  0.2009
 3349TIP3    H131462   2.260   3.778   2.434  0.1314 -0.5974 -0.2479
 3349TIP3    H231463   2.320   3.904   2.375 -0.5915  0.2345  0.7588
 3350TIP3   OH231464   5.976   1.445  16.936  0.1377  0.8349  0.2106
 3350TIP3    H131465   6.001   1.479  16.850  0.7060 -2.8399 -1.1609
 3350TIP3    H231466   6.057   1.412  16.973 -0.9075 -2.0082  0.0550
 3351TIP3   OH231467   6.508   3.095   4.313  1.0374  0.2028 -0.1890
 3351TIP3    H131468   6.565   3.156   4.359  0.9423  0.1280  0.0274
 3351TIP3    H231469   6.462   3.148   4.248 -0.8900  0.8150  1.6502
 3352TIP3   OH231470   2.584   2.129  15.772 -0.0871  0.2190 -0.6280
 3352TIP3    H131471   2.565   2.036  15.781  1.5411 -0.1621 -0.9543
 3352TIP3    H231472   2.636   2.136  15.692  0.3142  1.3203 -0.2882
 3353TIP3   OH231473   4.005   5.475   0.103 -0.3527 -0.5478 -0.4727
 3353TIP3    H131474   3.921   5.460   0.146 -0.2266  2.8220  1.1349
 3353TIP3    H231475   4.004   5.568   0.080  2.6168 -0.6297 -1.1876
 3354TIP3   OH231476   5.779   3.114  15.129  0.2857  0.5857 -0.4532
 3354TIP3    H131477   5.812   3.127  15.218 -1.0456  4.0952 -0.3810
 3354TIP3    H231478   5.857   3.108  15.075  1.1697 -3.2109  1.0436
 3355TIP3   OH231479   1.825   3.422  11.765 -0.0456  0.7795 -0.1554
 3355TIP3    H131480   1.881   3.449  11.838  0.2646 -2.9258  1.1045
 3355TIP3    H231481   1.887   3.399  11.695 -0.1015 -0.0159  0.0436
 3356TIP3   OH231482   5.114   0.691  13.488  0.1188 -0.5207  0.1834
 3356TIP3    H131483   5.092   0.610  13.534 -1.5903  0.1142  0.5088
 3356TIP3    H231484   5.101   0.760  13.554 -1.2144  0.2780 -0.8889
 3357TIP3   OH231485   4.256   4.628  16.789  0.0698 -0.6251  0.5121
 3357TIP3    H131486   4.287   4.579  16.865  0.0590  0.3948  1.1886
 3357TIP3    H231487   4.226   4.561  16.728  0.0434 -1.4576  1.4254
 3358TIP3   OH231488   4.428   0.227  12.042 -0.0411  0.0389 -0.2691
 3358TIP3    H131489   4.475   0.311  12.044 -0.0978  0.0447  1.3504
 3358TIP3    H231490   4.453   0.184  12.123  0.2308 -1.6625 -1.2416
 3359TIP3   OH231491   3.882   3.282  12.236  0.4921  0.2450  0.1284
 3359TIP3    H131492   3.792   3.261  12.263 -0.1129  1.1719 -1.1278
 3359TIP3    H231493   3.871   3.336  12.158  2.1503  0.5370  0.0970
 3360TIP3   OH231494   3.733   4.059   4.499  0.2057 -0.6258 -0.5774
 3360TIP3    H131495   3.657   4.049   4.556  1.4676  1.2199  1.5559
 3360TIP3    H231496   3.776   3.974   4.502 -0.9644 -1.2282 -0.5830
 3361TIP3   OH231497   2.310   4.954  11.949  0.3300  0.2900  0.1235
 3361TIP3    H131498   2.220   4.924  11.962  0.8456 -1.5021 -0.3396
 3361TIP3    H231499   2.309   5.045  11.980 -1.4470  0.0526  0.8529
 3362TIP3   OH231500   0.540   2.957  15.510  0.1783  0.1598  0.4192
 3362TIP3    H131501   0.620   2.956  15.563  0.7854 -2.4408 -0.5132
 3362TIP3    H231502   0.541   2.874  15.462 -1.1022  1.7971 -2.5868
 3363TIP3   OH231503   0.060   6.458  13.964  0.0014  0.2209 -0.8577
 3363TIP3    H131504   0.001   6.434  14.036 -2.1449  2.3450 -1.8358
 3363TIP3    H231505   0.043   6.391  13.897  1.2828 -1.1869  0.1882
 3364TIP3   OH231506   5.346   2.478  14.414 -0.1045 -0.1478  0.4933
 3364TIP3    H131507   5.403   2.414  14.456 -1.2370 -0.4135  1.6443
 3364TIP3    H231508   5.258   2.443  14.426 -0.7078  1.4815  0.8865
 3365TIP3   OH231509   5.104   1.852  12.127  0.4771 -0.0228  0.3351
 3365TIP3    H131510   5.124   1.869  12.219 -0.7665  2.4464  0.1844
 3365TIP3    H231511   5.155   1.917  12.079  0.6012 -0.8624 -0.6883
 3366TIP3   OH231512   0.899   2.673   0.465  0.2245  0.0476  0.3528
 3366TIP3    H131513   0.832   2.680   0.397 -0.0452  0.8689  0.6900
 3366TIP3    H231514   0.965   2.615   0.427 -0.5785 -0.6189 -0.0553
 3367TIP3   OH231515   3.624   5.478   2.973 -0.4390  0.4491  0.4373
 3367TIP3    H131516   3.671   5.523   2.902  0.1242 -1.4320 -0.4241
 3367TIP3    H231517   3.679   5.492   3.050  0.4900  0.0378 -0.1317
 3368TIP3   OH231518   5.140   4.386   0.837  0.0475 -0.4086 -0.5021
 3368TIP3    H131519   5.098   4.439   0.769 -0.4916  0.5542  0.5603
 3368TIP3    H231520   5.090   4.406   0.917 -0.5537 -2.9775 -0.2062
 3369TIP3   OH231521   3.951   1.712   1.752  0.3191  0.1422  0.1682
 3369TIP3    H131522   3.892   1.734   1.680 -1.8003 -0.5366  1.6256
 3369TIP3    H231523   3.921   1.767   1.824  1.7130  0.0293  0.8379
 3370TIP3   OH231524   0.014   2.129   3.215 -0.3718  0.0294 -0.0386
 3370TIP3    H131525   0.068   2.208   3.208  0.0532 -0.2610 -0.1100
 3370TIP3    H231526  -0.067   2.151   3.169 -1.1896  1.2054  1.9406
 3371TIP3   OH231527   6.509   1.397  13.415 -0.2543 -0.1373  0.5601
 3371TIP3    H131528   6.489   1.318  13.466 -2.3512  0.2482  0.3990
 3371TIP3    H231529   6.487   1.372  13.325 -2.5775  1.1300  0.7356
 3372TIP3   OH231530   1.085   3.121   0.717  0.1394  0.1358  0.3176
 3372TIP3    H131531   1.006   3.090   0.762 -1.7491  2.1420 -1.5508
 3372TIP3    H231532   1.086   3.215   0.734  0.3010  0.6527 -2.4214
 3373TIP3   OH231533   0.372   4.495   5.247 -0.0794 -0.0392 -0.6683
 3373TIP3    H131534   0.331   4.519   5.330  0.2035  0.3880 -0.6536
 3373TIP3    H231535   0.300   4.464   5.193 -0.6822  2.2707 -1.2316
 3374TIP3   OH231536   1.854   4.716   0.457  0.0172  0.1106  0.1178
 3374TIP3    H131537   1.820   4.626   0.458  0.0104  0.0765 -1.5919
 3374TIP3    H231538   1.870   4.736   0.549 -0.1482 -1.5824  0.5421
 3375TIP3   OH231539   5.964   4.861   3.852 -0.1886  0.0637  0.5976
 3375TIP3    H131540   5.883   4.810   3.859 -1.1369  1.4490  0.1188
 3375TIP3    H231541   6.006   4.829   3.772 -1.0511  0.3754  0.0014
 3376TIP3   OH231542   5.583   4.218   5.746  0.8867  0.0339  0.0784
 3376TIP3    H131543   5.665   4.265   5.761 -0.1179  1.2167  2.0828
 3376TIP3    H231544   5.590   4.139   5.799  1.4870 -0.8173 -1.2386
 3377TIP3   OH231545   0.249   1.153  12.039 -0.1510 -0.1544 -0.0234
 3377TIP3    H131546   0.286   1.209  12.107 -1.2100 -0.1377  0.5417
 3377TIP3    H231547   0.299   1.175  11.960  0.6409  0.2913  0.5902
 3378TIP3   OH231548   0.559   5.743   6.472 -0.0720  0.3257 -0.4645
 3378TIP3    H131549   0.480   5.770   6.517 -0.0035  0.3502 -0.3588
 3378TIP3    H231550   0.580   5.657   6.508 -0.0890  0.2891 -0.5411
 3379TIP3   OH231551   6.027   3.845   6.477  0.1036  0.3686 -0.5741
 3379TIP3    H131552   6.066   3.774   6.527  1.1139  1.0742 -0.3396
 3379TIP3    H231553   6.058   3.832   6.388  1.7203  1.4898 -0.2036
 3380TIP3   OH231554   0.111   4.967  11.561  0.1143 -0.0063  0.6583
 3380TIP3    H131555   0.169   5.020  11.506  0.3661 -1.0829 -0.1324
 3380TIP3    H231556   0.025   4.977  11.520  0.2889 -0.7499  0.0803
 3381TIP3   OH231557   1.864   0.549  11.257 -0.0115  0.2659  0.0741
 3381TIP3    H131558   1.882   0.455  11.262  1.2646  0.5219  0.2417
 3381TIP3    H231559   1.784   0.554  11.204 -1.3331 -1.0425  1.8429
 3382TIP3   OH231560   1.026   5.018  10.551  0.1671  0.0004 -0.1849
 3382TIP3    H131561   1.057   5.103  10.585 -0.2932 -0.4672  1.4675
 3382TIP3    H231562   0.932   5.032  10.536 -0.1974 -0.6192  1.4435
 3383TIP3   OH231563   0.785   0.272  11.683 -0.3577 -0.2951  0.1765
 3383TIP3    H131564   0.771   0.210  11.754 -2.7307  0.7133  0.6317
 3383TIP3    H231565   0.826   0.348  11.726 -1.4223  0.1511  0.4421
 3384TIP3   OH231566   3.598   2.548  15.677  0.4844  0.0917  0.3000
 3384TIP3    H131567   3.507   2.571  15.696  0.6560  1.1545 -0.1518
 3384TIP3    H231568   3.605   2.555  15.582  1.3565  1.1747  0.4455
 3385TIP3   OH231569   0.799   1.917   6.394 -0.6134  0.0415 -0.0289
 3385TIP3    H131570   0.813   1.984   6.326  1.1315  1.2294  1.4428
 3385TIP3    H231571   0.714   1.878   6.372 -0.5015  0.9934 -2.3754
 3386TIP3   OH231572   1.082   3.183   6.162 -0.1436 -0.2049  0.2360
 3386TIP3    H131573   1.057   3.120   6.229 -0.6839  0.1155  0.3385
 3386TIP3    H231574   1.043   3.148   6.081  1.1763 -1.0099 -0.0648
 3387TIP3   OH231575   3.471   5.285   2.102 -0.0377 -0.2869 -0.3068
 3387TIP3    H131576   3.489   5.250   2.015 -2.3941 -0.4818 -0.7588
 3387TIP3    H231577   3.557   5.309   2.137  1.1090 -1.8232 -1.9876
 3388TIP3   OH231578   5.898   5.713   4.077  0.5466  0.0561 -0.2283
 3388TIP3    H131579   5.845   5.748   4.006  1.7034 -0.8157 -1.5441
 3388TIP3    H231580   5.872   5.621   4.084  0.2941  0.1889  0.6171
 3389TIP3   OH231581   5.828   5.733   5.402  0.0524  0.2392 -0.2919
 3389TIP3    H131582   5.877   5.698   5.476  1.6129  3.7230  0.4333
 3389TIP3    H231583   5.740   5.749   5.436  0.5620  1.1421  0.6260
 3390TIP3   OH231584   6.773   3.858   3.509  0.4878 -0.2811 -0.2168
 3390TIP3    H131585   6.711   3.803   3.556  0.1005  1.1445  0.9766
 3390TIP3    H231586   6.771   3.826   3.418 -1.7703 -0.4177 -0.1283
 3391TIP3   OH231587   4.945   1.282   5.696  0.4924 -0.7991  0.0994
 3391TIP3    H131588   4.996   1.288   5.615  0.0448 -1.4974 -0.2467
 3391TIP3    H231589   4.884   1.210   5.680  0.0145 -0.5673  0.8473
 3392TIP3   OH231590   5.973   3.507   4.004  0.0832  0.0314 -0.0078
 3392TIP3    H131591   6.051   3.490   3.950 -1.1496  1.7083 -2.4518
 3392TIP3    H231592   5.945   3.595   3.978 -1.6163  0.1656  2.1333
 3393TIP3   OH231593   4.055   0.511  14.061 -0.1731 -0.7744  0.0994
 3393TIP3    H131594   4.035   0.417  14.064 -2.0190 -0.3360  2.9468
 3393TIP3    H231595   4.044   0.541  14.151 -2.9439  2.8759 -1.3184
 3394TIP3   OH231596   3.396   6.325   6.537 -0.4266  0.2269 -0.1197
 3394TIP3    H131597   3.456   6.350   6.607  0.7866  0.6548 -1.3048
 3394TIP3    H231598   3.318   6.379   6.552  0.2834  1.1601  0.2153
 3395TIP3   OH231599   3.339   0.388   0.160 -0.0418 -0.0002 -0.2666
 3395TIP3    H131600   3.407   0.442   0.200 -0.0975 -0.3360  0.2961
 3395TIP3    H231601   3.325   0.317   0.223  0.3393 -0.9077 -1.1898
 3396TIP3   OH231602   4.068   3.979   4.439  0.0240  0.2829  0.6045
 3396TIP3    H131603   3.996   3.926   4.474  0.4250 -3.5817 -3.9255
 3396TIP3    H231604   4.147   3.932   4.464  0.6515  1.2354  0.4165
 3397TIP3   OH231605   6.206   0.245  16.696 -0.0558  0.4357 -0.3505
 3397TIP3    H131606   6.175   0.296  16.621 -2.0567  0.0589  0.2014
 3397TIP3    H231607   6.169   0.158  16.683  0.0331  0.2192  0.7986
 3398TIP3   OH231608   0.504   3.025  12.178  0.2712  0.5436  0.6294
 3398TIP3    H131609   0.473   3.085  12.110  2.4075 -1.0076 -1.8448
 3398TIP3    H231610   0.564   3.078  12.231 -0.5469  1.4839  0.6273
 3399TIP3   OH231611   5.519   4.768   2.179 -0.3599 -0.0291 -0.0341
 3399TIP3    H131612   5.431   4.750   2.147  0.7419  0.4487 -3.5358
 3399TIP3    H231613   5.559   4.681   2.188 -0.5168 -0.1457 -0.4455
 3400TIP3   OH231614   5.103   5.319   3.089  0.1321  0.1201 -0.0659
 3400TIP3    H131615   5.093   5.248   3.152 -2.5735  1.7036  1.3994
 3400TIP3    H231616   5.179   5.369   3.121 -0.9628  0.6746  1.7411
 3401TIP3   OH231617   4.994   5.141  13.361  0.4633  0.2698 -0.2270
 3401TIP3    H131618   5.034   5.227  13.373  0.3266  0.1892  0.8471
 3401TIP3    H231619   4.901   5.156  13.373  0.6041 -0.3381  1.7844
 3402TIP3   OH231620   0.808   6.066  12.801  0.0922 -0.3952 -0.2717
 3402TIP3    H131621   0.847   6.029  12.880  1.4888 -0.5231 -0.9962
 3402TIP3    H231622   0.731   6.113  12.831  2.6709  2.7985  1.6836
 3403TIP3   OH231623   4.188   1.654   3.556 -0.3075  0.1237  0.6242
 3403TIP3    H131624   4.132   1.652   3.634 -0.9993 -0.2782  0.1218
 3403TIP3    H231625   4.236   1.737   3.563  0.2369 -0.2830  1.8957
 3404TIP3   OH231626   1.063   6.406  14.560 -0.7417 -0.5783 -0.4597
 3404TIP3    H131627   1.124   6.479  14.547 -1.5836  0.2856  0.3876
 3404TIP3    H231628   1.091   6.366  14.642 -0.8590 -0.6275 -0.4441
 3405TIP3   OH231629   6.656   2.957   6.541 -0.1579  0.0455  0.1281
 3405TIP3    H131630   6.682   3.043   6.507  0.2526 -0.2580 -0.3419
 3405TIP3    H231631   6.610   2.976   6.623 -1.4371  0.8097 -0.7457
 3406TIP3   OH231632   1.145   4.932  11.649 -0.1639  0.2042 -0.0884
 3406TIP3    H131633   1.159   4.976  11.565 -0.8606  0.5346 -0.0330
 3406TIP3    H231634   1.173   4.841  11.633 -1.6537 -0.0908 -1.0880
 3407TIP3   OH231635   5.691   0.173   0.978  0.5060  0.3443  0.0437
 3407TIP3    H131636   5.622   0.129   1.027 -0.9259  1.4324 -0.9785
 3407TIP3    H231637   5.712   0.251   1.030 -0.0420  0.7658 -0.3627
 3408TIP3   OH231638   3.342   0.951   2.456  0.0836 -0.1057 -0.1436
 3408TIP3    H131639   3.359   0.924   2.546 -1.9034 -0.0135  0.2902
 3408TIP3    H231640   3.324   1.045   2.461  0.2936 -0.0351 -0.6770
 3409TIP3   OH231641   1.117   2.688  12.848 -0.4020  0.1213 -0.1579
 3409TIP3    H131642   1.087   2.615  12.792 -0.7467 -0.1728  0.4081
 3409TIP3    H231643   1.130   2.760  12.787  1.4781 -0.8607 -0.9679
 3410TIP3   OH231644   3.122   2.953   5.500  0.4601  0.2104 -0.3341
 3410TIP3    H131645   3.144   2.930   5.410 -2.4581 -0.5218 -0.9214
 3410TIP3    H231646   3.032   2.985   5.495 -0.6405 -2.1530  2.6299
 3411TIP3   OH231647   2.023   3.251   5.387  0.3107 -0.0315 -0.2143
 3411TIP3    H131648   2.013   3.345   5.377 -1.1200  0.3076  3.6847
 3411TIP3    H231649   2.091   3.240   5.453  0.3837 -1.7347 -0.5415
 3412TIP3   OH231650   2.576   2.540  12.007  0.3460 -0.3943 -0.0408
 3412TIP3    H131651   2.547   2.448  12.010 -1.8091  0.2915  2.5923
 3412TIP3    H231652   2.502   2.587  11.968  0.3359  0.5752  1.1291
 3413TIP3   OH231653   2.728   6.477  16.114 -0.0282 -0.1687 -0.1870
 3413TIP3    H131654   2.638   6.507  16.100 -0.4771 -0.3732  2.0967
 3413TIP3    H231655   2.766   6.476  16.027 -0.6959  4.7703 -0.6545
 3414TIP3   OH231656   6.172   3.793  14.433  0.0189 -0.2315  0.3897
 3414TIP3    H131657   6.169   3.792  14.338 -0.4419  1.2966  0.3880
 3414TIP3    H231658   6.253   3.746  14.455  1.8269  2.1816 -0.8588
 3415TIP3   OH231659   2.228   0.538   4.148 -0.0007 -0.3116  0.6154
 3415TIP3    H131660   2.260   0.468   4.205 -0.5632 -2.4987 -1.6727
 3415TIP3    H231661   2.144   0.506   4.115 -0.3907  1.5550 -0.2857
 3416TIP3   OH231662   0.260   3.976   1.176  0.2078  0.0924 -0.1689
 3416TIP3    H131663   0.338   4.011   1.219  1.2117 -1.0451 -1.0397
 3416TIP3    H231664   0.187   4.018   1.222  1.2469 -0.9020  2.4703
 3417TIP3   OH231665   6.367   1.012  14.393  0.0670  0.4740  0.6278
 3417TIP3    H131666   6.308   1.001  14.467 -2.0270 -1.8209 -1.2945
 3417TIP3    H231667   6.447   0.965  14.417 -1.0415 -1.2386  0.9670
 3418TIP3   OH231668   2.751   0.980  15.305  0.2288  0.1625 -0.1033
 3418TIP3    H131669   2.813   0.912  15.281 -1.6170 -1.6547  0.1397
 3418TIP3    H231670   2.805   1.057  15.324  2.2613 -0.9107 -1.4400
 3419TIP3   OH231671   5.295   1.162  11.006 -0.1562 -0.4174 -0.1870
 3419TIP3    H131672   5.214   1.168  10.955 -0.0059  0.1074 -0.3559
 3419TIP3    H231673   5.350   1.102  10.957 -0.5758 -1.0555  0.1071
 3420TIP3   OH231674   4.768   2.929  12.727  0.0156  0.3270 -0.2373
 3420TIP3    H131675   4.799   2.913  12.638 -0.4139  1.1722 -0.5516
 3420TIP3    H231676   4.748   2.842  12.763 -1.6316  0.1054 -1.6368
 3421TIP3   OH231677   2.690   6.775   1.467 -0.2102  0.1745  0.2280
 3421TIP3    H131678   2.755   6.817   1.410 -0.4528  1.2355  0.7226
 3421TIP3    H231679   2.733   6.770   1.552  0.1430 -1.3942 -0.0289
 3422TIP3   OH231680   2.113   6.112   5.305  0.3048 -0.4829 -0.0376
 3422TIP3    H131681   2.160   6.184   5.347 -1.8241 -0.6968  2.8605
 3422TIP3    H231682   2.068   6.153   5.231  0.2639  0.9077  0.7387
 3423TIP3   OH231683   5.806   2.863  11.887 -0.3378 -0.1051 -0.0936
 3423TIP3    H131684   5.780   2.894  11.800 -2.3900  1.2037  0.9527
 3423TIP3    H231685   5.901   2.861  11.884 -0.3749  0.2365 -2.2738
 3424TIP3   OH231686   3.105   5.078   3.423 -0.2061 -0.3816  0.0018
 3424TIP3    H131687   3.071   5.060   3.335 -0.3344  0.2039 -0.0681
 3424TIP3    H231688   3.087   5.171   3.438  0.5438 -0.2821  0.3282
 3425TIP3   OH231689   3.567   3.784  14.745  0.1110  0.2634  0.1306
 3425TIP3    H131690   3.539   3.855  14.802  0.4881  0.4283  0.1149
 3425TIP3    H231691   3.663   3.787  14.748  0.1393  0.4117 -0.6790
 3426TIP3   OH231692   1.258   0.592  16.835  0.1169 -0.4154  0.4236
 3426TIP3    H131693   1.205   0.554  16.765 -2.7232  1.3558  1.5080
 3426TIP3    H231694   1.194   0.614  16.903  2.5681 -0.2764  2.7383
 3427TIP3   OH231695   5.341   1.869  10.028  0.2228 -0.2079 -0.1523
 3427TIP3    H131696   5.410   1.803  10.026  1.6079  1.2081 -0.7413
 3427TIP3    H231697   5.383   1.948   9.994 -1.0441  1.2995  1.6559
 3428TIP3   OH231698   1.554   2.166  14.240 -0.1326 -0.4715 -0.3188
 3428TIP3    H131699   1.506   2.100  14.190 -0.4598  0.6380 -1.4799
 3428TIP3    H231700   1.553   2.133  14.330  0.4077 -2.4567 -1.0076
 3429TIP3   OH231701   4.513   2.676  11.886 -0.6615  0.2664  0.2596
 3429TIP3    H131702   4.581   2.613  11.908  1.5164  1.3268 -3.0879
 3429TIP3    H231703   4.528   2.750  11.945  1.3504  0.6347 -0.6677
 3430TIP3   OH231704   5.191   1.188   2.977 -0.5326 -0.5209 -0.0395
 3430TIP3    H131705   5.125   1.257   2.965 -0.0733  0.0427  0.6161
 3430TIP3    H231706   5.217   1.164   2.888 -1.1775 -0.3118 -0.2866
 3431TIP3   OH231707   5.771   3.751   2.184  0.3898 -0.2518 -0.2440
 3431TIP3    H131708   5.688   3.773   2.226  1.1493 -0.5853  1.5293
 3431TIP3    H231709   5.790   3.825   2.126 -0.9547 -0.0035 -0.3707
 3432TIP3   OH231710   2.050   5.508   1.408  0.2431  0.4293  0.6512
 3432TIP3    H131711   2.139   5.534   1.434  0.2589  0.6716  0.3644
 3432TIP3    H231712   1.993   5.559   1.465  0.2960 -0.5368  1.5836
 3433TIP3   OH231713   4.930   1.047  13.006 -0.5415 -0.4669 -0.2594
 3433TIP3    H131714   4.998   1.098  12.962 -1.0680 -0.7990 -1.5007
 3433TIP3    H231715   4.903   1.102  13.080 -1.1995  1.1457 -1.6505
 3434TIP3   OH231716   5.181   3.819   4.571  0.3323 -0.1420  0.0368
 3434TIP3    H131717   5.233   3.862   4.639  0.1865  0.0281  0.0416
 3434TIP3    H231718   5.238   3.818   4.494 -0.3460  1.8262 -0.5408
 3435TIP3   OH231719   4.740   0.235  13.211  0.4111 -0.4970  0.0294
 3435TIP3    H131720   4.748   0.145  13.182 -2.0306 -0.6055 -0.4680
 3435TIP3    H231721   4.684   0.276  13.144 -0.5519  0.7209  1.5512
 3436TIP3   OH231722   1.868   2.503   0.667  0.0673  0.0108 -0.5288
 3436TIP3    H131723   1.901   2.546   0.587  1.3512  0.2623  0.1198
 3436TIP3    H231724   1.790   2.456   0.638  0.7595 -0.2598 -2.0344
 3437TIP3   OH231725   4.853   4.190  16.686 -0.3205  0.2608 -0.0125
 3437TIP3    H131726   4.920   4.158  16.747 -0.9271 -0.3540  0.3421
 3437TIP3    H231727   4.887   4.274  16.655  1.5409 -0.9216 -1.3095
 3438TIP3   OH231728   0.994   0.607  13.402  0.0858  0.0957 -0.0131
 3438TIP3    H131729   0.904   0.585  13.377  0.1386 -1.9094  1.4038
 3438TIP3    H231730   0.985   0.658  13.482  0.2318 -2.0086  1.4004
 3439TIP3   OH231731   1.957   1.581   4.779 -0.3044  0.0597  0.3620
 3439TIP3    H131732   2.042   1.553   4.813 -1.1372 -1.0452  1.5818
 3439TIP3    H231733   1.971   1.591   4.685  2.2861  4.0313  1.0120
 3440TIP3   OH231734   4.005   2.040  17.087  0.0760  0.2054  0.3229
 3440TIP3    H131735   3.985   1.960  17.039 -2.5692  1.1882 -0.3263
 3440TIP3    H231736   3.988   2.110  17.024  1.6478  1.3220  1.1081
 3441TIP3   OH231737   0.559   3.248   5.124 -0.2603 -0.0150 -0.2711
 3441TIP3    H131738   0.651   3.245   5.149 -0.2058 -0.3620 -0.5015
 3441TIP3    H231739   0.531   3.336   5.147  0.5938  0.6872 -1.7962
 3442TIP3   OH231740   3.018   4.587   5.669  0.0432 -0.4412  0.1414
 3442TIP3    H131741   2.946   4.649   5.660 -0.3653 -0.8547  0.4880
 3442TIP3    H231742   2.975   4.505   5.694  0.5663 -0.8934 -0.4483
 3443TIP3   OH231743   1.071   6.092  13.487 -0.1287  0.3565  0.4028
 3443TIP3    H131744   1.061   6.166  13.547 -0.5064  1.2992 -0.8144
 3443TIP3    H231745   0.985   6.050  13.485  0.5108 -1.1221  2.3649
 3444TIP3   OH231746   0.181   3.592   1.425 -0.4218  0.2167  0.3006
 3444TIP3    H131747   0.144   3.667   1.378 -1.4433 -0.3583  0.1771
 3444TIP3    H231748   0.218   3.629   1.504 -3.4150  0.5139  1.6348
 3445TIP3   OH231749   1.769   5.507  13.438 -0.2967 -0.5200 -0.3174
 3445TIP3    H131750   1.784   5.594  13.400 -0.5227 -0.4284 -0.1994
 3445TIP3    H231751   1.810   5.512  13.525 -0.5222 -0.4536 -0.2158
 3446TIP3   OH231752   1.555   6.678   5.344  0.9404 -0.3990  0.2673
 3446TIP3    H131753   1.608   6.608   5.382 -0.5152 -0.9765  1.3091
 3446TIP3    H231754   1.472   6.635   5.322  0.3628  0.8052  0.0779
 3447TIP3   OH231755   1.006   1.228  14.214 -0.4728  0.1462 -0.1864
 3447TIP3    H131756   1.018   1.317  14.182 -0.3744 -0.1370 -0.9580
 3447TIP3    H231757   1.001   1.175  14.135  1.3959 -0.7832  0.2700
 3448TIP3   OH231758   2.271   1.734  14.314 -0.7114 -0.0823  0.3601
 3448TIP3    H131759   2.191   1.690  14.345  0.1826 -3.5153 -2.0034
 3448TIP3    H231760   2.258   1.744  14.219  0.4976  1.9478  0.3668
 3449TIP3   OH231761   5.558   6.021   3.422  0.5771 -0.0074  0.2736
 3449TIP3    H131762   5.552   5.926   3.418 -0.0495 -0.0074  1.2110
 3449TIP3    H231763   5.474   6.052   3.386  1.2226  0.2170 -1.0876
 3450TIP3   OH231764   0.529   2.250  15.630  0.0229 -0.1918 -0.5758
 3450TIP3    H131765   0.492   2.281  15.547 -1.2380 -0.0826  0.0114
 3450TIP3    H231766   0.543   2.156  15.616 -0.4890 -0.2366 -0.8145
 3451TIP3   OH231767   2.666   2.269  16.777  0.6276 -0.0196  0.3449
 3451TIP3    H131768   2.606   2.329  16.732  0.6796 -0.1276  0.1317
 3451TIP3    H231769   2.703   2.320  16.849  0.4612  0.1203  0.3304
 3452TIP3   OH231770   5.565   4.975  11.826  0.5376 -0.2244 -0.1021
 3452TIP3    H131771   5.627   5.028  11.876  0.2992  0.8403 -0.9302
 3452TIP3    H231772   5.484   4.979  11.876  0.1178  1.3715 -0.9091
 3453TIP3   OH231773   5.680   3.098  14.696 -0.4000  0.6776 -0.4383
 3453TIP3    H131774   5.608   3.156  14.669 -1.2652 -0.5192 -0.7778
 3453TIP3    H231775   5.653   3.066  14.782  0.0721  0.7640 -0.2574
 3454TIP3   OH231776   5.979   4.383  16.295 -0.1249 -0.1284 -0.6803
 3454TIP3    H131777   5.969   4.398  16.200  1.0187  0.9047 -0.6601
 3454TIP3    H231778   5.965   4.470  16.334 -1.0961 -0.6479  0.1539
 3455TIP3   OH231779   5.132   3.733   1.050  0.2748 -0.3447  0.3029
 3455TIP3    H131780   5.203   3.774   1.099  0.2309 -0.3406  0.3634
 3455TIP3    H231781   5.176   3.672   0.990  0.2304 -1.8611  1.7794
 3456TIP3   OH231782   4.105   1.632  11.408  0.9440  0.2320  0.0467
 3456TIP3    H131783   4.175   1.567  11.402 -1.1255 -2.0440 -0.4185
 3456TIP3    H231784   4.104   1.675  11.323  1.4569 -0.0530 -0.1049
 3457TIP3   OH231785   4.991   3.607   2.520  0.5010  0.1607  0.2022
 3457TIP3    H131786   4.995   3.700   2.498 -0.8208 -0.4752 -2.9661
 3457TIP3    H231787   4.908   3.598   2.568  1.4097  0.8538  1.9485
 3458TIP3   OH231788   5.735   6.640  14.316 -0.0642 -0.2111 -0.7263
 3458TIP3    H131789   5.817   6.599  14.344 -1.6418 -1.4702  2.2361
 3458TIP3    H231790   5.714   6.701  14.386 -2.6318 -1.3117 -0.4840
 3459TIP3   OH231791   3.675   6.671   5.807  0.5583  0.3476  0.0338
 3459TIP3    H131792   3.641   6.595   5.760  2.7011 -0.1507 -0.7718
 3459TIP3    H231793   3.677   6.741   5.741 -2.3781  1.4271  1.0299
 3460TIP3   OH231794   4.071   4.557   3.273 -0.2209  0.2448  0.0652
 3460TIP3    H131795   4.111   4.606   3.201  0.4197 -0.8942 -0.3700
 3460TIP3    H231796   4.117   4.473   3.273 -1.5958 -0.5162  0.5350
 3461TIP3   OH231797   6.112   6.763   1.305 -0.2391 -0.1511  0.4523
 3461TIP3    H131798   6.178   6.729   1.244  1.5847  0.6477  1.9506
 3461TIP3    H231799   6.104   6.695   1.372 -1.2072 -0.4011  0.0866
 3462TIP3   OH231800   4.968   4.102   0.838 -0.6896 -0.3896  0.1185
 3462TIP3    H131801   4.995   4.091   0.746 -2.2587 -0.5186 -0.3360
 3462TIP3    H231802   5.050   4.122   0.884 -0.1575  1.6962 -1.6355
 3463TIP3   OH231803   1.017   2.650   1.660 -0.0117 -0.4193 -0.0231
 3463TIP3    H131804   1.095   2.601   1.633 -0.2585  0.0981 -1.7269
 3463TIP3    H231805   1.046   2.741   1.665  0.2059 -0.5755  2.2136
 3464TIP3   OH231806   0.192   5.161  16.403 -0.4224 -0.1766  0.6249
 3464TIP3    H131807   0.110   5.126  16.369  0.7052 -1.7430 -0.5320
 3464TIP3    H231808   0.239   5.085  16.437  0.8640  0.5966  0.6194
 3465TIP3   OH231809   6.592   2.861  11.753 -0.4044  0.3718  0.2830
 3465TIP3    H131810   6.559   2.939  11.709 -2.0996  0.4689  1.6580
 3465TIP3    H231811   6.525   2.841  11.819  1.6452 -0.2486  2.2285
 3466TIP3   OH231812   5.386   6.715  16.016 -0.3890  0.2773 -0.1640
 3466TIP3    H131813   5.370   6.720  15.922  1.0337 -0.9503 -0.4889
 3466TIP3    H231814   5.428   6.630  16.028  3.2313  2.1709  1.0289
 3467TIP3   OH231815   0.529   5.281  15.666 -0.6468 -0.3987 -0.7343
 3467TIP3    H131816   0.495   5.286  15.756 -0.8161 -0.4085 -0.7974
 3467TIP3    H231817   0.471   5.218  15.623 -1.3825  0.6041 -1.2187
 3468TIP3   OH231818   5.042   4.819   4.693 -0.4851 -0.1430  0.5574
 3468TIP3    H131819   5.128   4.815   4.736  0.2537  1.5108 -0.7161
 3468TIP3    H231820   5.042   4.747   4.631 -0.0529 -0.2091  0.6338
 3469TIP3   OH231821   3.051   1.260   3.018  0.2240  0.0259 -0.8856
 3469TIP3    H131822   3.120   1.324   3.037 -0.2902  0.3101  0.0183
 3469TIP3    H231823   3.087   1.207   2.947  1.6601 -0.2877  0.0643
 3470TIP3   OH231824   0.297   5.203   2.210 -0.1195 -0.1081  0.6052
 3470TIP3    H131825   0.276   5.168   2.297  0.2615 -0.3711  0.5947
 3470TIP3    H231826   0.391   5.190   2.202  0.1316  1.4482  0.8237
 3471TIP3   OH231827   3.750   2.111   2.084 -0.8316  0.2957  0.4753
 3471TIP3    H131828   3.784   2.031   2.124  0.1063  1.4316  1.9915
 3471TIP3    H231829   3.716   2.082   1.999  0.5338 -1.5113  0.4996
 3472TIP3   OH231830   2.972   1.543  15.752 -0.6684 -0.5510  0.0100
 3472TIP3    H131831   2.972   1.564  15.846 -0.6665  0.3249 -0.1772
 3472TIP3    H231832   3.029   1.467  15.745  0.1024 -0.0418  0.6050
 3473TIP3   OH231833   2.973   4.336   2.308 -0.4229 -0.3630  0.5707
 3473TIP3    H131834   2.923   4.302   2.234 -1.0544  0.7933  0.4595
 3473TIP3    H231835   3.064   4.313   2.288 -0.7386 -1.2168  0.0917
 3474TIP3   OH231836   1.331   3.031   0.775 -0.3652  0.4837 -0.7991
 3474TIP3    H131837   1.245   3.066   0.752 -0.6826  0.2853  0.0391
 3474TIP3    H231838   1.321   2.936   0.773 -1.0873  0.4365  2.4633
 3475TIP3   OH231839   1.964   2.289  16.907 -0.1902  0.0568 -0.3357
 3475TIP3    H131840   1.979   2.294  16.812 -0.1417 -1.6091 -0.4212
 3475TIP3    H231841   1.881   2.243  16.916  0.5567 -1.1768  0.4578
 3476TIP3   OH231842   1.373   6.727   1.338  0.3891  0.0013 -1.1205
 3476TIP3    H131843   1.299   6.741   1.397 -0.5034 -2.1851 -1.6460
 3476TIP3    H231844   1.360   6.790   1.267 -1.7159 -1.2264 -1.8656
 3477TIP3   OH231845   3.001   4.002   4.389 -0.4853 -0.0179  0.3214
 3477TIP3    H131846   2.945   4.079   4.396 -0.8449 -0.1836 -0.7832
 3477TIP3    H231847   2.996   3.975   4.297  1.9431  0.3872  0.0226
 3478TIP3   OH231848   5.746   6.420   2.719 -0.1243 -0.4353 -0.1184
 3478TIP3    H131849   5.780   6.334   2.694  0.1929  0.1237 -1.6934
 3478TIP3    H231850   5.816   6.458   2.773 -0.0581 -0.9679  0.1764
 3479TIP3   OH231851   0.950   0.263  16.836  0.5250 -0.0712 -0.3037
 3479TIP3    H131852   1.021   0.215  16.880  1.2770 -1.6497 -3.0953
 3479TIP3    H231853   0.990   0.345  16.810  1.0332 -0.5104 -0.9261
 3480TIP3   OH231854   1.071   5.957  12.757  0.0750 -0.4288  0.5462
 3480TIP3    H131855   0.983   5.962  12.719 -0.1567  1.2435  1.2488
 3480TIP3    H231856   1.104   5.871  12.732 -1.0474 -0.3291 -1.2875
 3481TIP3   OH231857   2.012   1.923  16.755 -0.0254 -0.2551  0.1313
 3481TIP3    H131858   1.930   1.965  16.780 -0.5972 -0.3403 -1.5362
 3481TIP3    H231859   1.986   1.856  16.691  1.4085  0.1330 -0.8780
 3482TIP3   OH231860   3.538   6.276   3.873 -0.1640 -0.4760 -0.2744
 3482TIP3    H131861   3.574   6.272   3.785 -0.2467 -0.7743 -0.2950
 3482TIP3    H231862   3.584   6.349   3.914  1.3883 -1.6563  0.1214
 3483TIP3   OH231863   2.339   3.011  11.600 -0.5930  0.0290 -0.3425
 3483TIP3    H131864   2.432   2.991  11.588 -0.6907 -0.1605 -0.8018
 3483TIP3    H231865   2.296   2.926  11.589 -0.9263  0.3238 -1.2957
 3484TIP3   OH231866   1.514   4.413   6.042 -0.0063 -0.4074 -0.3227
 3484TIP3    H131867   1.595   4.363   6.052  0.1038 -0.4937 -1.5505
 3484TIP3    H231868   1.543   4.504   6.036 -0.0124 -0.4153 -0.4935
 3485TIP3   OH231869   6.058   5.923  11.638 -0.0397 -0.0660  0.6429
 3485TIP3    H131870   6.068   6.008  11.594 -0.0034  0.0698  0.9117
 3485TIP3    H231871   5.964   5.915  11.652 -0.0155  0.0696  0.8888
 3486TIP3   OH231872   6.308   5.054  14.969 -0.1767  0.6366  0.1717
 3486TIP3    H131873   6.248   5.006  14.912  0.2747  0.6292 -0.3053
 3486TIP3    H231874   6.272   5.142  14.975 -1.1553  0.1755  1.2627
 3487TIP3   OH231875   4.340   4.751   6.276 -0.1611  0.3819  0.6253
 3487TIP3    H131876   4.252   4.779   6.249 -0.5834  0.5498  2.1510
 3487TIP3    H231877   4.379   4.829   6.316  0.7051  0.3164 -0.0644
 3488TIP3   OH231878   3.817   3.284   5.464  0.5631  0.0400 -0.0751
 3488TIP3    H131879   3.776   3.366   5.434  0.2244  0.2871  1.0125
 3488TIP3    H231880   3.892   3.312   5.516 -0.6473 -0.2545  1.8982
 3489TIP3   OH231881   5.818   4.229  12.426  0.5616 -0.2873  0.2937
 3489TIP3    H131882   5.798   4.187  12.342  3.6833 -1.4867  0.0641
 3489TIP3    H231883   5.847   4.317  12.403 -0.2643 -0.0216  0.2669
 3490TIP3   OH231884   4.543   2.481   3.623 -0.6230 -0.3371  0.6150
 3490TIP3    H131885   4.458   2.444   3.599 -0.4950  1.1840 -2.4479
 3490TIP3    H231886   4.598   2.466   3.546  1.3228  0.4224  1.8137
 3491TIP3   OH231887   3.275   1.205  13.284  0.0397  0.0561  0.2019
 3491TIP3    H131888   3.195   1.180  13.238  0.4564 -0.5368 -0.2074
 3491TIP3    H231889   3.245   1.263  13.354 -0.6634  0.4700 -0.4352
 3492TIP3   OH231890   5.303   5.353   5.485  1.1720  0.5559  0.0323
 3492TIP3    H131891   5.294   5.340   5.390 -2.2084  1.7129  0.1134
 3492TIP3    H231892   5.288   5.446   5.498  0.2356  0.1792  1.8174
 3493TIP3   OH231893   6.173   1.751  12.042 -0.9624 -0.2973  0.3161
 3493TIP3    H131894   6.094   1.713  12.002 -1.4271 -0.1897  1.1230
 3493TIP3    H231895   6.230   1.676  12.056 -2.6364 -1.0319  3.6632
 3494TIP3   OH231896   2.014   5.730   4.454 -0.3804 -0.3009 -0.1715
 3494TIP3    H131897   2.064   5.809   4.472 -0.8259 -0.1547  0.4779
 3494TIP3    H231898   2.058   5.689   4.380  0.2288  0.2253 -0.1026
 3495TIP3   OH231899   6.401   0.324   3.784 -0.4531  0.2674 -0.5083
 3495TIP3    H131900   6.325   0.381   3.779 -0.9908 -0.5308 -1.5844
 3495TIP3    H231901   6.412   0.290   3.695  1.0693  0.2515 -0.3378
 3496TIP3   OH231902   1.291   4.636  12.407  0.1824 -0.2919 -0.2079
 3496TIP3    H131903   1.198   4.644  12.427  0.6252  2.4530  0.9444
 3496TIP3    H231904   1.328   4.598  12.487  0.0853 -1.3643 -0.6583
 3497TIP3   OH231905   6.189   3.021  15.932  0.9292  0.0170 -0.4010
 3497TIP3    H131906   6.188   2.960  16.006  1.0695  0.2801 -0.1820
 3497TIP3    H231907   6.110   3.074  15.944  1.5096  0.7727  0.1602
 3498TIP3   OH231908   3.731   4.119   2.001 -1.1818 -0.0474  0.7225
 3498TIP3    H131909   3.766   4.158   2.082 -0.7282  1.6300 -0.2650
 3498TIP3    H231910   3.640   4.150   1.998 -1.3375 -0.4901  0.8165
 3499TIP3   OH231911   4.774   4.863   0.811  0.4743  0.2137  0.1962
 3499TIP3    H131912   4.798   4.821   0.893 -0.5933 -0.0402  0.3867
 3499TIP3    H231913   4.779   4.793   0.746 -1.0744 -0.1813  0.4738
 3500TIP3   OH231914   6.054   4.039   3.769  0.0066  0.3109  0.6615
 3500TIP3    H131915   5.970   4.078   3.794 -0.5123 -0.6319  0.3941
 3500TIP3    H231916   6.062   4.058   3.675  0.2292  0.6483  0.7477
 3501TIP3   OH231917   4.546   1.107  11.412 -0.2003  0.1195  0.7310
 3501TIP3    H131918   4.572   1.052  11.338 -1.3669  0.7491 -0.1667
 3501TIP3    H231919   4.452   1.121  11.400 -0.4409  0.0750  2.4434
 3502TIP3   OH231920   0.747   1.473   0.716  0.5242 -0.0270 -0.7972
 3502TIP3    H131921   0.660   1.465   0.755  0.8850 -3.4168 -0.5130
 3502TIP3    H231922   0.806   1.475   0.791  0.9703 -2.7361 -1.0345
 3503TIP3   OH231923   1.091   4.351  15.449  0.2582 -0.9418  1.0237
 3503TIP3    H131924   1.095   4.257  15.432 -1.6406 -1.0007  0.8324
 3503TIP3    H231925   0.999   4.368  15.471  0.4346  0.9757  0.3988
 3504TIP3   OH231926   3.002   5.982   4.788 -0.0360  0.0369  0.2849
 3504TIP3    H131927   2.976   6.019   4.704  1.3661  1.4224  0.4429
 3504TIP3    H231928   2.929   5.925   4.813 -0.5128 -0.2795 -1.7992
 3505TIP3   OH231929   3.739   1.041  14.640  0.5511 -0.2777 -0.3939
 3505TIP3    H131930   3.819   1.039  14.692 -1.4348  3.1106  3.1458
 3505TIP3    H231931   3.758   1.101  14.568  0.7605  1.8388  1.3776
 3506TIP3   OH231932   0.403   2.155   0.014  0.3030 -0.5591  0.1135
 3506TIP3    H131933   0.429   2.066   0.037  1.8963 -0.1163  0.0912
 3506TIP3    H231934   0.452   2.175  -0.066 -0.2728  0.2278 -0.0555
 3507TIP3   OH231935   0.464   0.345   4.826  0.3144  0.2123 -0.0374
 3507TIP3    H131936   0.511   0.394   4.759  0.3548  0.6852  0.3398
 3507TIP3    H231937   0.480   0.393   4.907 -1.7151  1.0007 -0.0727
 3508TIP3   OH231938   5.166   1.364   0.660  0.2022  0.3155 -0.0124
 3508TIP3    H131939   5.236   1.321   0.611  0.4627 -0.3916  0.9428
 3508TIP3    H231940   5.150   1.305   0.734 -1.9342  0.0729 -0.6253
 3509TIP3   OH231941   2.832   4.699  16.121 -0.4733 -0.3673  0.1097
 3509TIP3    H131942   2.791   4.683  16.036  2.7255  0.6888 -1.6981
 3509TIP3    H231943   2.788   4.778  16.154 -0.9783 -0.1463 -1.0687
 3510TIP3   OH231944   2.195   2.081  16.619  0.2404 -0.0424 -0.6670
 3510TIP3    H131945   2.132   2.033  16.673  1.0595 -1.1580 -0.6720
 3510TIP3    H231946   2.269   2.096  16.678  0.7242 -0.3775 -1.1943
 3511TIP3   OH231947   3.175   1.205  11.977  0.0410  0.3000 -0.6905
 3511TIP3    H131948   3.181   1.123  11.928  0.4820  1.0178 -1.8579
 3511TIP3    H231949   3.246   1.259  11.942  1.2904  0.3255  1.7208
 3512TIP3   OH231950   0.585   2.104  12.221 -0.2028 -0.2471 -0.2841
 3512TIP3    H131951   0.663   2.047  12.220 -0.1006 -0.1040 -0.6459
 3512TIP3    H231952   0.613   2.182  12.174  0.2986  0.9764  1.9586
 3513TIP3   OH231953   5.965   0.785  15.010  0.3852 -0.3261  0.5731
 3513TIP3    H131954   5.875   0.795  15.041  0.2356  2.3798 -0.6096
 3513TIP3    H231955   6.018   0.786  15.090 -0.5421 -0.9035  1.2021
 3514TIP3   OH231956   1.748   5.049  12.484  0.0283  0.1631  0.5630
 3514TIP3    H131957   1.738   4.959  12.515 -1.3402 -0.1572 -0.7563
 3514TIP3    H231958   1.684   5.099  12.536 -0.2464  0.1232  0.2608
 3515TIP3   OH231959   1.831   6.087   4.270  1.0110  0.5703 -0.3207
 3515TIP3    H131960   1.874   6.151   4.213  0.3082  2.2783  1.0427
 3515TIP3    H231961   1.850   6.117   4.359  0.8818 -1.2640  0.3561
 3516TIP3   OH231962   2.228   2.616   4.708 -0.3555 -0.1090  0.0222
 3516TIP3    H131963   2.242   2.537   4.654 -0.5794 -0.1457  0.0169
 3516TIP3    H231964   2.293   2.678   4.676 -0.0819 -0.3415  0.1226
 3517TIP3   OH231965   0.483   3.646  11.999 -0.4005 -0.5557  0.6376
 3517TIP3    H131966   0.567   3.679  12.031 -0.7982  2.1576 -0.9420
 3517TIP3    H231967   0.441   3.722  11.960 -3.0484 -2.1687  0.2265
 3518TIP3   OH231968   2.083   4.928  12.097  0.6714  0.6137 -0.0838
 3518TIP3    H131969   2.042   4.976  12.168  0.6546 -1.5639  1.4441
 3518TIP3    H231970   2.010   4.897  12.043  0.4473 -0.6323  0.9025
 3519TIP3   OH231971   6.626   1.574   5.831  0.2408 -0.0930 -0.3704
 3519TIP3    H131972   6.647   1.652   5.882  0.5371 -1.9775  2.4782
 3519TIP3    H231973   6.710   1.532   5.815 -0.0338 -0.4927 -0.7752
 3520TIP3   OH231974   1.497   1.544   0.069 -0.8185 -0.2521  0.0326
 3520TIP3    H131975   1.444   1.494   0.131  2.7924 -2.3961  1.5982
 3520TIP3    H231976   1.555   1.597   0.124  0.2302  0.2670 -1.5278
 3521TIP3   OH231977   4.753   5.371   4.154 -0.1819 -0.1839  0.4590
 3521TIP3    H131978   4.778   5.439   4.217 -0.7265  0.5937 -0.1569
 3521TIP3    H231979   4.671   5.336   4.187  0.5555 -1.1966  1.2738
 3522TIP3   OH231980   5.836   0.572   4.238 -0.2178 -0.2747 -0.0819
 3522TIP3    H131981   5.819   0.636   4.169  2.0520 -0.8469 -1.2119
 3522TIP3    H231982   5.833   0.487   4.193 -3.9135 -1.1076  1.5214
 3523TIP3   OH231983   1.585   1.003  14.736 -0.5521 -0.2778  0.0145
 3523TIP3    H131984   1.577   1.024  14.829  0.2862  1.1618 -0.2250
 3523TIP3    H231985   1.669   1.041  14.710 -1.2080  0.1579 -1.5482
 3524TIP3   OH231986   1.912   2.908  15.672  0.4577 -0.2772 -0.8810
 3524TIP3    H131987   1.993   2.858  15.663 -0.2447 -1.3514 -1.3076
 3524TIP3    H231988   1.933   2.994  15.635  2.2439  0.4084  1.5694
 3525TIP3   OH231989   1.669   1.671   2.481 -0.2308  0.2493 -0.3143
 3525TIP3    H131990   1.675   1.765   2.462 -0.5118 -0.0762 -2.0867
 3525TIP3    H231991   1.582   1.661   2.520 -0.0894  0.7609  0.1485
 3526TIP3   OH231992   2.627   5.141   4.435  0.0897 -0.0064 -0.3916
 3526TIP3    H131993   2.706   5.095   4.407  0.9957  1.1681  0.1967
 3526TIP3    H231994   2.659   5.216   4.484 -1.4329 -1.1145  2.4173
 3527TIP3   OH231995   4.981   5.172  14.440  0.7484 -0.4117 -0.3371
 3527TIP3    H131996   5.006   5.145  14.351  1.8470  0.6258 -0.3419
 3527TIP3    H231997   4.935   5.255  14.428 -1.1146 -1.3959 -0.1449
 3528TIP3   OH231998   4.973   2.804  14.290 -0.4942  0.2124 -0.4530
 3528TIP3    H131999   5.061   2.787  14.324 -0.9117  0.3073  0.6810
 3528TIP3    H232000   4.988   2.837  14.201  0.6313  0.6620 -0.0999
 3529TIP3   OH232001   6.573   4.372  13.860  0.2890  0.0624  0.1636
 3529TIP3    H132002   6.611   4.454  13.890  0.7235 -0.2023  0.3517
 3529TIP3    H232003   6.642   4.307  13.874 -0.9202 -0.7938  2.4462
 3530TIP3   OH232004   4.123   3.493  13.975 -0.1871  0.0464 -0.0110
 3530TIP3    H132005   4.173   3.419  14.009 -0.0792  0.2101  0.1833
 3530TIP3    H232006   4.065   3.519  14.046 -0.6454 -0.2248 -0.2803
 3531TIP3   OH232007   1.811   2.669   0.886  0.5670 -0.5477  0.3099
 3531TIP3    H132008   1.840   2.593   0.837  0.5214 -0.8868  0.8037
 3531TIP3    H232009   1.721   2.648   0.912  0.8245 -0.6595  1.1160
 3532TIP3   OH232010   0.932   1.129   1.110 -0.6059 -0.0985  0.0182
 3532TIP3    H132011   0.980   1.056   1.150 -0.0806 -0.4269 -1.1987
 3532TIP3    H232012   0.946   1.203   1.169 -0.0451 -0.6460  0.5646
 3533TIP3   OH232013   2.987   2.781  10.492 -0.1458  0.6098 -0.3074
 3533TIP3    H132014   3.069   2.733  10.479  0.2372  0.6639  1.7045
 3533TIP3    H232015   2.987   2.848  10.424  0.1538 -1.1013 -2.0499
 3534TIP3   OH232016   3.100   2.335  11.907  0.0674 -0.1686  0.1883
 3534TIP3    H132017   3.138   2.322  11.995 -0.8659 -1.6310  0.4030
 3534TIP3    H232018   3.031   2.400  11.920 -0.7535 -1.1246  0.7691
 3535TIP3   OH232019   2.860   1.072  11.502  0.4545 -0.4543 -0.3869
 3535TIP3    H132020   2.845   1.141  11.437 -0.8827 -1.0632 -0.7282
 3535TIP3    H232021   2.879   0.994  11.450  0.6540 -0.6549 -0.0138
 3536TIP3   OH232022   0.286   4.202  11.822  0.3569  0.1659 -0.5749
 3536TIP3    H132023   0.193   4.180  11.829  0.1486  0.4962 -2.1505
 3536TIP3    H232024   0.331   4.136  11.875 -0.8717  0.8177  1.3171
 3537TIP3   OH232025   1.605   0.452  14.867 -0.1441  0.3302  0.5497
 3537TIP3    H132026   1.690   0.409  14.876  0.3296  1.4419  1.4818
 3537TIP3    H232027   1.546   0.382  14.839  1.0088 -0.5129  0.1859
 3538TIP3   OH232028   5.502   3.533   4.895  0.1406 -0.0871 -1.0819
 3538TIP3    H132029   5.485   3.603   4.958  0.0714 -0.5912 -0.5404
 3538TIP3    H232030   5.422   3.482   4.893  0.4902 -0.6470 -0.8458
 3539TIP3   OH232031   6.373   6.038  13.964 -0.2427  0.2361 -0.3075
 3539TIP3    H132032   6.436   6.105  13.938 -0.2610 -0.6735 -2.9100
 3539TIP3    H232033   6.324   6.021  13.883 -1.3583 -1.6919  0.7627
 3540TIP3   OH232034   0.421   5.867   5.451 -0.0155  0.2919 -0.2120
 3540TIP3    H132035   0.399   5.865   5.544  1.1278  1.2093  0.0905
 3540TIP3    H232036   0.445   5.958   5.434 -1.4233  0.4192 -1.7037
 3541TIP3   OH232037   4.851   5.184  13.773  0.3426 -0.6594 -0.3812
 3541TIP3    H132038   4.810   5.242  13.709 -1.6081 -0.8549  0.6410
 3541TIP3    H232039   4.785   5.116  13.788  0.3872 -0.1136  2.5033
 3542TIP3   OH232040   1.001   3.921   1.437 -0.3804  0.2108  0.1627
 3542TIP3    H132041   1.015   4.015   1.425 -0.6001  0.6276  2.9672
 3542TIP3    H232042   0.918   3.914   1.484  0.1751 -1.3134  0.9593
 3543TIP3   OH232043   5.332   4.932   5.976 -0.3967  0.5889 -0.9700
 3543TIP3    H132044   5.292   4.875   5.910 -0.6255  0.1459 -0.4586
 3543TIP3    H232045   5.277   4.921   6.053  1.4831 -1.1026  0.1881
 3544TIP3   OH232046   6.518   4.422  16.903 -0.1988 -0.1959  0.0226
 3544TIP3    H132047   6.508   4.505  16.950  2.3677 -0.3718  0.9170
 3544TIP3    H232048   6.437   4.414  16.851 -0.2728  3.0688 -0.4388
 3545TIP3   OH232049   6.498   0.569   5.658 -0.8622  0.0599  0.2815
 3545TIP3    H132050   6.410   0.601   5.677 -1.1801 -0.0921 -0.8542
 3545TIP3    H232051   6.500   0.560   5.562  0.6629  0.8735  0.2128
 3546TIP3   OH232052   0.357   1.364   0.062 -0.4333  0.1163  0.1912
 3546TIP3    H132053   0.421   1.431   0.087 -0.8528  0.1598  1.1912
 3546TIP3    H232054   0.284   1.413   0.024  0.5817 -0.0117 -1.9943
 3547TIP3   OH232055   4.324   0.123   1.858  0.4454  0.1370 -0.2553
 3547TIP3    H132056   4.384   0.179   1.809 -1.7960  2.7895 -0.0399
 3547TIP3    H232057   4.276   0.074   1.791 -0.3432  1.3657 -0.5871
 3548TIP3   OH232058   0.394   3.386  11.975  0.4228  0.0433  0.5221
 3548TIP3    H132059   0.439   3.470  11.985  0.2953  0.0538  1.0575
 3548TIP3    H232060   0.377   3.359  12.065  0.4732 -0.5608  0.3488
 3549TIP3   OH232061   3.389   1.179   4.707  0.0869  0.6594 -0.2145
 3549TIP3    H132062   3.295   1.166   4.720  0.3484 -0.6591  0.4122
 3549TIP3    H232063   3.404   1.160   4.614  0.3137 -2.9143  0.4631
 3550TIP3   OH232064   3.066   1.703  16.824  0.3839  0.0386 -0.0340
 3550TIP3    H132065   3.023   1.664  16.900 -1.0537 -2.8454 -2.2428
 3550TIP3    H232066   2.995   1.741  16.772  1.2164  0.8601 -0.5883
 3551TIP3   OH232067   4.074   1.329  12.091 -0.0456  0.2837 -0.5598
 3551TIP3    H132068   4.035   1.250  12.129 -0.4208  0.4197 -0.6639
 3551TIP3    H232069   4.126   1.296  12.017  0.6993  0.0171  0.0666
 3552TIP3   OH232070   3.698   2.356   0.383  0.5897  0.7687  0.2263
 3552TIP3    H132071   3.663   2.268   0.367 -1.2277  1.3205  1.0082
 3552TIP3    H232072   3.705   2.395   0.296  0.4710  0.1956 -0.0444
 3553TIP3   OH232073   3.895   5.054  15.893 -0.3990  0.0523  0.3194
 3553TIP3    H132074   3.845   5.054  15.811 -0.4357 -0.0659  0.3414
 3553TIP3    H232075   3.831   5.031  15.960 -0.4670  0.5962  0.4419
 3554TIP3   OH232076   4.614   6.580  15.542 -0.2552  0.3140  0.2003
 3554TIP3    H132077   4.524   6.595  15.570  0.0514  0.2924  1.2432
 3554TIP3    H232078   4.645   6.508  15.598  0.2192 -0.0662 -0.5462
 3555TIP3   OH232079   5.681   6.139  11.995  0.0334  0.1686  0.0050
 3555TIP3    H132080   5.692   6.188  11.913  2.2481 -1.3584 -0.6319
 3555TIP3    H232081   5.586   6.128  12.003 -0.3252  2.0508 -1.3296
 3556TIP3   OH232082   2.481   1.894  13.380  0.1717  0.0607 -0.8145
 3556TIP3    H132083   2.415   1.960  13.402 -0.2901 -0.1664 -1.4951
 3556TIP3    H232084   2.492   1.843  13.460  0.8151  1.2001 -0.1641
 3557TIP3   OH232085   2.097   3.915   6.233 -0.1870 -0.0174 -0.0210
 3557TIP3    H132086   2.028   3.849   6.237 -1.4841  1.3750  0.9345
 3557TIP3    H232087   2.050   3.998   6.224  1.3455  0.9779  1.0175
 3558TIP3   OH232088   6.420   1.041   2.521  0.0514  0.3211  0.1820
 3558TIP3    H132089   6.432   1.106   2.452 -0.8348  0.2975 -0.0007
 3558TIP3    H232090   6.344   1.072   2.570  0.0086 -0.2415  0.4789
 3559TIP3   OH232091   4.491   4.903  14.544  0.0887  0.3424 -0.0821
 3559TIP3    H132092   4.495   4.825  14.599  2.6361  0.8890  0.6041
 3559TIP3    H232093   4.546   4.882  14.469  0.7688  1.4454  0.0940
 3560TIP3   OH232094   3.467   2.746   0.675  0.3432  0.1133 -0.4153
 3560TIP3    H132095   3.536   2.752   0.608  0.6768 -1.8833 -0.2790
 3560TIP3    H232096   3.403   2.812   0.649  0.2628 -0.8945 -2.9777
 3561TIP3   OH232097   5.762   0.743   3.878 -0.5020  0.1084 -0.3755
 3561TIP3    H132098   5.847   0.740   3.835 -0.9567 -1.7720 -1.1904
 3561TIP3    H232099   5.772   0.810   3.946  1.2926  0.6412 -1.1251
 3562TIP3   OH232100   2.190   2.453  11.628  0.0887 -0.4220  0.0142
 3562TIP3    H132101   2.110   2.503  11.646  0.6396  0.1977  0.7548
 3562TIP3    H232102   2.252   2.519  11.597  0.8121 -0.6562  0.9722
 3563TIP3   OH232103   1.208   4.339   5.871 -0.5405  0.0301  0.5079
 3563TIP3    H132104   1.166   4.254   5.857 -0.1563  0.0256 -0.6198
 3563TIP3    H232105   1.205   4.351   5.966 -2.4071 -0.3276  0.5260
 3564TIP3   OH232106   3.648   2.069  13.321  0.1301 -0.4628 -0.0690
 3564TIP3    H132107   3.684   2.154  13.297  0.3246 -0.4479  0.2864
 3564TIP3    H232108   3.610   2.036  13.240 -1.1244  0.5531  0.0856
 3565TIP3   OH232109   5.445   0.715  10.813  0.3823 -0.3006 -0.4649
 3565TIP3    H132110   5.540   0.729  10.812  0.2999  0.3035 -0.2334
 3565TIP3    H232111   5.425   0.675  10.728  0.8633 -0.5809 -0.4481
 3566TIP3   OH232112   0.712   6.639   0.729 -0.3539 -0.6484 -0.0501
 3566TIP3    H132113   0.777   6.701   0.763 -2.6347  1.9050 -0.1487
 3566TIP3    H232114   0.724   6.560   0.782  2.6045 -0.1691  0.1177
 3567TIP3   OH232115   3.785   1.626   4.963  0.3327 -0.1584  0.0437
 3567TIP3    H132116   3.764   1.535   4.982  1.8812  0.0837  3.3004
 3567TIP3    H232117   3.708   1.675   4.990 -0.6095 -0.4922 -1.9687
 3568TIP3   OH232118   2.075   2.304   3.582  0.0637  0.2354 -0.3771
 3568TIP3    H132119   2.087   2.246   3.507  0.1335 -0.4031  0.1182
 3568TIP3    H232120   2.038   2.247   3.650  0.7927  0.6132  0.3463
 3569TIP3   OH232121   6.281   3.449   4.739 -0.2494  0.0991 -0.5148
 3569TIP3    H132122   6.215   3.389   4.704 -0.5271 -0.4799  0.9690
 3569TIP3    H232123   6.295   3.513   4.669 -0.6899 -1.1092 -1.7323
 3570TIP3   OH232124   5.232   2.475   6.181  0.4832 -0.3339  0.4958
 3570TIP3    H132125   5.242   2.454   6.274 -1.5024  1.1562  1.0758
 3570TIP3    H232126   5.137   2.486   6.169  0.8172  0.5440 -1.4816
 3571TIP3   OH232127   1.808   6.602   2.168 -0.6301 -0.1428 -0.0254
 3571TIP3    H132128   1.736   6.592   2.230 -0.4798 -0.9652  0.0235
 3571TIP3    H232129   1.768   6.589   2.082  0.0083 -3.8351  0.1652
 3572TIP3   OH232130   5.603   5.224   2.854 -0.3564 -0.4009 -0.2997
 3572TIP3    H132131   5.580   5.204   2.944  2.6455 -1.2153  0.3381
 3572TIP3    H232132   5.657   5.151   2.825  0.1220  0.6492 -2.2009
 3573TIP3   OH232133   2.533   4.623   1.080 -0.4005  0.2820 -0.1384
 3573TIP3    H132134   2.614   4.613   1.030 -0.7589 -1.6769 -0.3966
 3573TIP3    H232135   2.465   4.632   1.014 -0.7077 -0.9124 -0.0021
 3574TIP3   OH232136   5.080   5.471   0.672 -0.2468 -0.3066  0.0782
 3574TIP3    H132137   5.160   5.477   0.725  0.0007  2.3504 -0.4923
 3574TIP3    H232138   5.110   5.482   0.582 -1.1019 -0.6256 -0.2455
 3575TIP3   OH232139   3.581   2.383  14.571 -0.0519  0.4793  0.2138
 3575TIP3    H132140   3.529   2.358  14.647 -0.3969  2.4016  0.6472
 3575TIP3    H232141   3.569   2.478  14.565 -2.6449  0.0292 -4.1136
 3576TIP3   OH232142   3.316   0.411  16.506  0.4338 -0.2654  0.0028
 3576TIP3    H132143   3.345   0.485  16.453 -1.2917  0.7875  0.4903
 3576TIP3    H232144   3.237   0.443  16.550 -0.7546 -2.6313 -0.3554
 3577TIP3   OH232145   3.272   0.957   4.212 -0.1935  0.3850  0.0416
 3577TIP3    H132146   3.309   0.882   4.257 -1.0801 -0.5864 -0.8324
 3577TIP3    H232147   3.267   1.025   4.279  2.1873  0.2088  0.4192
 3578TIP3   OH232148   6.153   1.734   2.533  0.2556 -0.0039 -0.8356
 3578TIP3    H132149   6.093   1.675   2.580  0.7709  0.7998  0.8656
 3578TIP3    H232150   6.130   1.821   2.564  1.0919  0.4761 -1.5499
 3579TIP3   OH232151   5.099   4.040  14.495 -0.4806  0.1187 -0.0509
 3579TIP3    H132152   5.093   4.045  14.590  0.0030  0.6894 -0.0444
 3579TIP3    H232153   5.191   4.020  14.478 -1.2508 -3.6446 -0.2914
 3580TIP3   OH232154   3.798   6.570  13.323 -0.2924  0.3052 -0.1267
 3580TIP3    H132155   3.844   6.617  13.392  0.2820  2.4479 -1.9289
 3580TIP3    H232156   3.860   6.503  13.294  1.5220  2.6834 -2.0144
 3581TIP3   OH232157   6.027   5.144   0.945  0.4132  0.2854  0.4123
 3581TIP3    H132158   5.960   5.115   0.882  0.3982  0.5585  0.2987
 3581TIP3    H232159   6.067   5.220   0.903  2.1231 -1.0160 -0.3763
 3582TIP3   OH232160   4.789   4.300   0.966 -0.0052 -0.7223  0.1265
 3582TIP3    H132161   4.807   4.235   0.899  3.1685  0.3172 -0.0984
 3582TIP3    H232162   4.825   4.263   1.047 -0.1187 -0.1713  0.4339
 3583TIP3   OH232163   0.233   4.370  12.617  0.5621  0.0353 -0.3092
 3583TIP3    H132164   0.313   4.336  12.575 -0.5182 -1.3349 -1.3080
 3583TIP3    H232165   0.185   4.411  12.545  0.8182  1.7583  0.4796
 3584TIP3   OH232166   1.884   3.211  17.219  0.1535  0.3621  0.4244
 3584TIP3    H132167   1.803   3.213  17.168 -0.3585 -1.6660  1.1083
 3584TIP3    H232168   1.953   3.226  17.155 -0.4487 -2.6408 -1.0097
 3585TIP3   OH232169   5.531   0.433   4.879  0.9152 -0.4941 -0.0579
 3585TIP3    H132170   5.616   0.472   4.860  0.9158  0.0430  1.0020
 3585TIP3    H232171   5.491   0.492   4.943 -0.2490 -0.7468 -0.5359
 3586TIP3   OH232172   4.513   3.519   4.246  0.1413  0.1187  0.1632
 3586TIP3    H132173   4.502   3.457   4.318 -1.0524 -0.3563 -0.4020
 3586TIP3    H232174   4.424   3.538   4.218  0.6006 -0.1933 -1.5854
 3587TIP3   OH232175   1.048   6.408  15.086  0.2349 -0.1634  0.2354
 3587TIP3    H132176   1.079   6.399  14.996  0.0737 -1.1179  0.2718
 3587TIP3    H232177   0.966   6.457  15.078 -0.4686 -1.4056 -0.2659
 3588TIP3   OH232178   2.985   2.874   0.698  0.1874  0.5296 -0.4950
 3588TIP3    H132179   3.043   2.854   0.772  0.0898  0.2904 -0.4846
 3588TIP3    H232180   2.952   2.962   0.717 -2.0155 -0.6010  1.1590
 3589TIP3   OH232181   0.424   6.398  11.950 -0.0678 -0.8617 -0.3805
 3589TIP3    H132182   0.435   6.476  12.004  0.3910 -0.3791 -1.1554
 3589TIP3    H232183   0.364   6.342  11.999 -1.1128  0.3723 -0.2520
 3590TIP3   OH232184   1.025   1.223   5.985  1.1205 -0.0187 -0.3067
 3590TIP3    H132185   1.109   1.236   6.027  0.3815  0.3083  1.0859
 3590TIP3    H232186   0.962   1.220   6.056 -0.5336  3.5489 -1.4889
 3591TIP3   OH232187   3.926   2.112   1.787 -0.1720  0.4524 -0.0617
 3591TIP3    H132188   4.020   2.094   1.778 -0.3523 -1.1289  0.9753
 3591TIP3    H232189   3.910   2.115   1.881 -1.3220 -0.2783 -0.2137
 3592TIP3   OH232190   5.108   3.685  15.907  0.4452  0.2993 -0.1540
 3592TIP3    H132191   5.129   3.606  15.957  1.5981  0.6177 -0.1117
 3592TIP3    H232192   5.161   3.753  15.948  2.0916  0.4019 -2.3309
 3593TIP3   OH232193   2.694   2.342   2.119 -0.0048 -0.2141  0.1395
 3593TIP3    H132194   2.688   2.422   2.067  3.1229 -0.1173 -0.1457
 3593TIP3    H232195   2.725   2.372   2.204 -1.6076 -0.8256  0.9700
 3594TIP3   OH232196   6.580   1.738   6.317  0.4975 -0.0517  0.3819
 3594TIP3    H132197   6.601   1.693   6.399  1.4845  0.1595  0.2527
 3594TIP3    H232198   6.658   1.790   6.297 -0.4824  1.4380  0.3377
 3595TIP3   OH232199   5.551   3.773  16.219 -0.3035  0.5785 -0.3097
 3595TIP3    H132200   5.492   3.784  16.293 -2.8447 -0.1817 -2.1506
 3595TIP3    H232201   5.634   3.745  16.258 -1.6460 -0.0471  2.1918
 3596TIP3   OH232202   4.309   4.392  13.624  0.3284 -0.4185 -0.0905
 3596TIP3    H132203   4.320   4.407  13.530  0.9298 -0.8517 -0.0938
 3596TIP3    H232204   4.398   4.379  13.657 -0.0311 -2.5458  0.1353
 3597TIP3   OH232205   0.210   0.380  12.390 -0.1278  0.2197 -0.3395
 3597TIP3    H132206   0.249   0.377  12.478 -0.4037  1.1878 -0.1743
 3597TIP3    H232207   0.147   0.308  12.389  0.2725 -0.1376  0.0678
 3598TIP3   OH232208   3.505   1.702   4.038 -0.8633 -0.1357 -0.2222
 3598TIP3    H132209   3.522   1.725   3.947 -0.2385  1.4909  0.2789
 3598TIP3    H232210   3.569   1.633   4.058 -0.1252  0.4267 -0.6306
 3599TIP3   OH232211   6.297   5.889  13.699 -0.0166 -0.0501 -0.0477
 3599TIP3    H132212   6.294   5.867  13.606 -0.7778  0.5203 -0.1637
 3599TIP3    H232213   6.281   5.806  13.744  1.7353 -0.5983 -0.3893
 3600TIP3   OH232214   2.599   1.398   1.257 -0.3563 -0.2281  0.3373
 3600TIP3    H132215   2.674   1.341   1.271  0.2974  0.9369  1.7320
 3600TIP3    H232216   2.588   1.401   1.162  1.0417 -0.8153  0.1515
 3601TIP3   OH232217   6.231   4.824  13.481  0.3455  0.1982  0.6237
 3601TIP3    H132218   6.278   4.902  13.452 -0.6394  0.9350  0.9660
 3601TIP3    H232219   6.261   4.754  13.422  2.7193  0.3795  1.5626
 3602TIP3   OH232220   1.482   0.149   1.515  0.1262 -0.2556 -0.0330
 3602TIP3    H132221   1.574   0.120   1.511 -0.4559 -2.0545 -0.9839
 3602TIP3    H232222   1.438   0.094   1.450 -2.0468 -0.9586  1.9912
 3603TIP3   OH232223   0.740   6.554  12.832 -0.0189 -0.3484 -0.3827
 3603TIP3    H132224   0.805   6.588  12.893 -1.2806 -0.9994  1.3697
 3603TIP3    H232225   0.784   6.555  12.747  1.9109  0.1986  0.5909
 3604TIP3   OH232226   5.303   5.896  11.190  0.5466 -0.1993 -0.2229
 3604TIP3    H132227   5.216   5.936  11.200  1.0939  0.7874  0.7703
 3604TIP3    H232228   5.285   5.805  11.167 -0.7559 -0.0136  0.0115
 3605TIP3   OH232229   2.550   0.743  15.976  0.9985  0.2008 -0.3567
 3605TIP3    H132230   2.598   0.663  15.996 -0.5816 -0.6689  0.0517
 3605TIP3    H232231   2.545   0.745  15.880 -0.4456 -1.1229 -0.3284
 3606TIP3   OH232232   3.222   5.907   1.544  0.0797 -0.3608  0.2987
 3606TIP3    H132233   3.276   5.841   1.500 -0.1340 -0.1985 -0.2069
 3606TIP3    H232234   3.252   5.906   1.634 -0.2611 -1.5090  0.4093
 3607TIP3   OH232235   4.021   3.251  15.387 -0.2834 -0.0043 -0.0094
 3607TIP3    H132236   3.969   3.232  15.309  1.1588 -1.9465 -0.5382
 3607TIP3    H232237   4.112   3.239  15.358  0.3165  0.3890  1.6827
 3608TIP3   OH232238   5.757   6.034   1.629  0.2392 -0.0486  0.3857
 3608TIP3    H132239   5.703   5.993   1.561  1.0970 -1.4547  0.5120
 3608TIP3    H232240   5.847   6.006   1.607  0.6405  0.3691  1.4711
 3609TIP3   OH232241   1.757   0.807   3.579  0.2795  0.4007  0.8035
 3609TIP3    H132242   1.756   0.720   3.539 -2.3364  0.6755  0.1568
 3609TIP3    H232243   1.839   0.847   3.549 -0.9532  0.0946 -3.2364
 3610TIP3   OH232244   0.491   4.235  13.277  0.1381 -0.1770 -0.1543
 3610TIP3    H132245   0.451   4.316  13.310 -1.8343 -1.7389  1.4703
 3610TIP3    H232246   0.432   4.206  13.207  0.2443 -0.7693 -0.0024
 3611TIP3   OH232247   3.060   0.256  11.948 -0.2942  0.3270 -0.4352
 3611TIP3    H132248   3.129   0.292  12.003 -0.0014  0.2680 -0.7610
 3611TIP3    H232249   3.071   0.161  11.953  0.3650  0.3483 -1.3943
 3612TIP3   OH232250   4.654   3.573  16.012 -0.0428  0.3168 -0.3000
 3612TIP3    H132251   4.665   3.659  16.053 -1.2771 -0.6055  2.1148
 3612TIP3    H232252   4.592   3.587  15.941 -1.4876  1.1940  1.0803
 3613TIP3   OH232253   2.326   0.397  16.891  0.6613  0.7155 -0.2626
 3613TIP3    H132254   2.369   0.462  16.834  1.1301  0.4392 -0.2258
 3613TIP3    H232255   2.255   0.362  16.837 -0.6158  2.4087  0.2653
 3614TIP3   OH232256   1.840   3.901   0.403  0.0256 -0.0524  0.7884
 3614TIP3    H132257   1.924   3.921   0.444  0.5367  1.3267 -0.8707
 3614TIP3    H232258   1.797   3.986   0.393 -0.8938 -0.5787  0.1922
 3615TIP3   OH232259   5.312   1.076  16.168 -0.1212  0.2984  0.0756
 3615TIP3    H132260   5.271   1.045  16.088 -1.6220  0.3973  0.7746
 3615TIP3    H232261   5.393   1.027  16.175 -1.3156 -1.7658 -0.0564
 3616TIP3   OH232262   4.486   0.215   5.487 -0.5546 -0.1916 -0.5005
 3616TIP3    H132263   4.536   0.247   5.412 -0.0191  0.7254  0.2467
 3616TIP3    H232264   4.399   0.195   5.451 -0.2320  0.0213 -1.4044
 3617TIP3   OH232265   4.159   0.439  12.701 -0.0796  0.1353  0.1851
 3617TIP3    H132266   4.230   0.378  12.720 -0.5382  0.0877  1.8382
 3617TIP3    H232267   4.202   0.512  12.656  0.8245 -0.4253  0.1189
 3618TIP3   OH232268   1.003   6.532   1.860 -0.1646  0.3541 -0.2827
 3618TIP3    H132269   0.975   6.459   1.916 -0.2655  1.4298  1.0972
 3618TIP3    H232270   1.087   6.503   1.824 -1.1391 -1.2666 -1.3449
 3619TIP3   OH232271   5.675   3.331  13.694  0.1859 -0.2105  0.0958
 3619TIP3    H132272   5.733   3.284  13.753  0.9205  0.3504 -0.1824
 3619TIP3    H232273   5.589   3.328  13.737  0.9349  1.1689  1.7167
 3620TIP3   OH232274   1.414   5.335   3.874  0.1659 -0.7426 -0.1686
 3620TIP3    H132275   1.402   5.258   3.818 -1.6373 -1.2610  0.8865
 3620TIP3    H232276   1.431   5.407   3.813 -0.8924 -1.4595 -1.3388
 3621TIP3   OH232277   0.814   4.931   3.770  0.2773 -0.0432 -0.0238
 3621TIP3    H132278   0.823   5.014   3.816 -0.0866 -0.4273  0.7435
 3621TIP3    H232279   0.827   4.865   3.837  0.7664 -0.6084 -0.6766
 3622TIP3   OH232280   0.542   0.846   0.554 -0.0671 -0.2829  0.3801
 3622TIP3    H132281   0.510   0.811   0.637 -0.9129  1.0010  0.6096
 3622TIP3    H232282   0.472   0.904   0.524  1.2339  1.0862 -0.0668
 3623TIP3   OH232283   2.412   0.448   3.631 -0.1332 -0.1500 -0.7077
 3623TIP3    H132284   2.399   0.502   3.553 -2.7850 -0.7360 -0.7077
 3623TIP3    H232285   2.385   0.503   3.704  0.4136 -0.3166 -0.3701
 3624TIP3   OH232286   3.299   1.227   2.866 -0.3289  0.3903  0.2468
 3624TIP3    H132287   3.362   1.299   2.856  0.1504  0.3340  2.6880
 3624TIP3    H232288   3.335   1.157   2.811  1.1736  0.7537  0.7248
 3625TIP3   OH232289   3.527   3.334   0.494  0.8845  0.1726 -0.1740
 3625TIP3    H132290   3.558   3.354   0.582  0.8433  1.3601 -0.4264
 3625TIP3    H232291   3.439   3.298   0.508  1.3477 -0.7980  0.3477
 3626TIP3   OH232292   5.668   4.941   4.630  0.2102 -0.3614 -0.2693
 3626TIP3    H132293   5.763   4.951   4.621  0.4191 -0.2976  1.8649
 3626TIP3    H232294   5.651   4.851   4.601  1.0336 -0.6439  0.1017
 3627TIP3   OH232295   6.001   6.174   4.747  0.4266  0.6379  0.1121
 3627TIP3    H132296   6.006   6.268   4.764  0.1213  0.5973  0.4316
 3627TIP3    H232297   5.997   6.167   4.651 -0.1223  0.9792  0.1105
 3628TIP3   OH232298   3.625   3.666   0.553  0.9124 -0.7462  0.1250
 3628TIP3    H132299   3.549   3.715   0.586  0.0921 -1.9687  0.0567
 3628TIP3    H232300   3.627   3.587   0.606  1.3618 -1.3339 -0.7742
 3629TIP3   OH232301   4.845   0.474   1.283  0.3432  0.5071 -0.3841
 3629TIP3    H132302   4.867   0.558   1.244  0.3818  0.3837 -0.6340
 3629TIP3    H232303   4.918   0.453   1.341 -0.1192  1.0994  0.4172
 3630TIP3   OH232304   6.069   0.792   2.957 -0.5241 -0.3043  0.1136
 3630TIP3    H132305   6.060   0.875   3.004 -0.3212  1.3535 -2.7179
 3630TIP3    H232306   6.162   0.771   2.962 -0.2923  0.5159 -0.5818
 3631TIP3   OH232307   1.856   3.035   4.695  0.2724 -0.4004  0.2672
 3631TIP3    H132308   1.764   3.060   4.700  0.7097  1.2671  0.4641
 3631TIP3    H232309   1.864   2.960   4.753 -0.6551  0.4310  1.4972
 3632TIP3   OH232310   3.972   4.785  11.317 -0.0927  0.0505 -0.1738
 3632TIP3    H132311   4.045   4.845  11.305 -1.2106  1.7108  1.1647
 3632TIP3    H232312   4.007   4.715  11.371  0.9062  0.0633 -0.7879
 3633TIP3   OH232313   3.594   0.045   4.647  0.3984 -0.0155 -0.3542
 3633TIP3    H132314   3.556   0.131   4.667  1.6528  0.6471 -0.8069
 3633TIP3    H232315   3.668   0.037   4.707  0.1489 -0.8937 -0.1535
 3634TIP3   OH232316   1.019   0.903   2.527  0.5531  0.1781  0.2409
 3634TIP3    H132317   1.052   0.853   2.601  1.8583  1.7149  0.7189
 3634TIP3    H232318   0.925   0.884   2.524 -0.1174  2.4049  4.1323
 3635TIP3   OH232319   0.665   4.342   2.797  0.3053  0.2447 -0.3547
 3635TIP3    H132320   0.712   4.362   2.878 -0.9091 -0.6650  0.5787
 3635TIP3    H232321   0.589   4.399   2.799 -0.8942 -1.3346  0.2374
 3636TIP3   OH232322   6.602   0.998  15.491  0.4159 -0.3880  0.0595
 3636TIP3    H132323   6.583   1.078  15.539 -1.3612 -1.4196  1.1199
 3636TIP3    H232324   6.643   1.028  15.410  0.0979  1.5715  0.6074
 3637TIP3   OH232325   3.941   0.203  15.821 -0.1074 -0.6028  0.0857
 3637TIP3    H132326   3.910   0.231  15.908  0.1222 -0.5401  0.1492
 3637TIP3    H232327   3.900   0.118  15.807 -0.4276 -0.4508  0.1050
 3638TIP3   OH232328   3.794   3.722   0.050 -0.5649 -0.0966 -0.4566
 3638TIP3    H132329   3.875   3.700   0.003 -2.0868 -2.9055 -1.9037
 3638TIP3    H232330   3.820   3.788   0.113  2.4715  0.5167 -2.2561
 3639TIP3   OH232331   3.512   1.580   1.276 -0.1211  0.2313 -0.0685
 3639TIP3    H132332   3.529   1.629   1.356  0.1940  1.8320 -1.0850
 3639TIP3    H232333   3.565   1.624   1.209 -0.3126 -1.1214 -1.1378
 3640TIP3   OH232334   3.369   2.095   0.494 -0.3196  0.2915  0.5579
 3640TIP3    H132335   3.274   2.085   0.495 -0.1570 -1.6122 -0.0617
 3640TIP3    H232336   3.384   2.189   0.504 -2.2869  0.7139 -0.2188
 3641TIP3   OH232337   0.653   1.980  14.825 -0.2532  0.2810 -0.0850
 3641TIP3    H132338   0.683   1.902  14.780  0.5928 -0.6751  2.0656
 3641TIP3    H232339   0.668   2.051  14.762  1.3366 -0.9328 -1.1275
 3642TIP3   OH232340   6.638   6.377  16.221  0.2231  0.1944  0.2990
 3642TIP3    H132341   6.624   6.287  16.251 -0.2682 -0.5312 -2.0661
 3642TIP3    H232342   6.563   6.426  16.254 -0.7238 -0.7628 -0.4294
 3643TIP3   OH232343   3.066   1.129   2.745 -0.1125  0.9915 -0.1519
 3643TIP3    H132344   3.121   1.207   2.752 -0.3228  1.1922 -0.7368
 3643TIP3    H232345   3.051   1.118   2.651 -3.0991  2.3862  0.1047
 3644TIP3   OH232346   3.121   2.517   5.039 -0.2046 -0.1038 -0.3162
 3644TIP3    H132347   3.122   2.560   5.125  0.6234 -1.0580  0.1505
 3644TIP3    H232348   3.180   2.443   5.048 -1.0185 -0.8924 -1.3673
 3645TIP3   OH232349   3.533   3.428  15.983 -0.0952 -0.4326  0.6266
 3645TIP3    H132350   3.578   3.379  16.052  1.4772 -1.4422 -1.0650
 3645TIP3    H232351   3.478   3.362  15.940  1.2388 -0.5256 -0.9955
 3646TIP3   OH232352   2.788   2.905  15.812 -0.1967  0.3014 -0.1490
 3646TIP3    H132353   2.711   2.869  15.768 -0.4266  1.6493 -0.8766
 3646TIP3    H232354   2.764   2.995  15.832  2.0313  1.4801 -2.5015
 3647TIP3   OH232355   3.737   6.640  12.832  0.0236  0.0364 -0.3187
 3647TIP3    H132356   3.812   6.675  12.785 -0.7170 -0.8947 -2.2659
 3647TIP3    H232357   3.774   6.588  12.903  1.2078  0.1916 -0.8190
 3648TIP3   OH232358   4.199   2.397   1.855  0.7438  0.2856  0.5455
 3648TIP3    H132359   4.197   2.459   1.928  0.3109  2.3679 -1.2081
 3648TIP3    H232360   4.117   2.348   1.864 -0.0568  1.6051  0.5590
 3649TIP3   OH232361   1.658   1.802  16.955 -0.0991 -0.0431 -0.3814
 3649TIP3    H132362   1.617   1.726  16.913 -0.1131 -1.5856  2.2898
 3649TIP3    H232363   1.587   1.842  17.005 -0.1566  1.9516 -2.0094
 3650TIP3   OH232364   4.091   2.732  14.578  0.0498 -0.2363  0.1620
 3650TIP3    H132365   4.108   2.653  14.526  0.4043  0.6179 -1.0485
 3650TIP3    H232366   4.172   2.745  14.628  0.5458  0.1570 -0.7212
 3651TIP3   OH232367   3.970   4.451   0.629 -0.3125  0.0714 -0.1597
 3651TIP3    H132368   3.995   4.453   0.721 -1.9161 -0.6310  0.3128
 3651TIP3    H232369   3.934   4.538   0.611 -0.1401  0.1562 -0.1010
 3652TIP3   OH232370   4.867   4.578  16.421 -0.0716 -0.4795  0.0675
 3652TIP3    H132371   4.898   4.593  16.332  0.4747  1.5434  0.5585
 3652TIP3    H232372   4.772   4.571  16.413 -0.0195 -0.3791 -0.6830
 3653TIP3   OH232373   4.046   0.577  15.085  0.3581  0.2168 -0.3847
 3653TIP3    H132374   4.049   0.601  14.992 -0.6539 -0.5193 -0.6287
 3653TIP3    H232375   3.979   0.635  15.122 -0.8814 -1.0327 -0.6181
 3654TIP3   OH232376   5.427   1.535  13.726 -0.0284  0.5117  0.6037
 3654TIP3    H132377   5.484   1.530  13.803 -0.3252 -1.3480  0.7196
 3654TIP3    H232378   5.486   1.528  13.652 -0.0722 -1.4295  0.7240
 3655TIP3   OH232379   1.015   4.020   4.392  0.2598 -0.5787  0.0186
 3655TIP3    H132380   0.975   3.993   4.475 -0.6783 -1.1294 -0.5943
 3655TIP3    H232381   0.988   4.111   4.381  2.5929  0.3165  1.6032
 3656TIP3   OH232382   5.013   0.546  12.832  0.6442 -0.4534  0.6267
 3656TIP3    H132383   4.998   0.626  12.882  0.8268 -0.4023  0.5995
 3656TIP3    H232384   4.998   0.476  12.894  0.7746 -0.3923  0.7251
 3657TIP3   OH232385   2.239   0.722  14.089  0.0659 -0.3775  0.3943
 3657TIP3    H132386   2.166   0.709  14.149 -1.7488 -0.0552 -1.7140
 3657TIP3    H232387   2.247   0.639  14.042 -0.8125  0.5087 -1.3702
 3658TIP3   OH232388   3.086   5.000  11.194  0.3200  0.3176 -0.1669
 3658TIP3    H132389   3.142   5.078  11.186 -0.3496  0.9327  1.0718
 3658TIP3    H232390   3.073   4.972  11.103  0.6337  1.6009 -0.6322
 3659TIP3   OH232391   2.715   4.635  12.951 -0.4242  0.3351  0.1501
 3659TIP3    H132392   2.685   4.600  13.035  0.1438 -1.6714 -0.4648
 3659TIP3    H232393   2.811   4.634  12.957 -0.3744 -0.4537 -0.7858
 3660TIP3   OH232394   2.933   5.043   2.423 -0.0103 -0.2588 -0.0805
 3660TIP3    H132395   2.968   5.069   2.338 -0.2727  0.7748  0.1193
 3660TIP3    H232396   2.840   5.027   2.407 -0.0895  0.0727  0.0332
 3661TIP3   OH232397   1.683   1.413  17.126  0.0949 -0.4041  0.3266
 3661TIP3    H132398   1.618   1.455  17.182  1.1752  0.3674  1.0313
 3661TIP3    H232399   1.767   1.452  17.153  0.8780 -1.5526 -0.3865
 3662TIP3   OH232400   2.310   4.476   4.935 -0.3857  0.1888 -0.1472
 3662TIP3    H132401   2.326   4.539   5.006 -3.0706  1.0228 -0.2272
 3662TIP3    H232402   2.346   4.518   4.857 -0.3042  0.7018  0.1624
 3663TIP3   OH232403   2.061   1.863   1.223 -0.0183 -0.1432  0.1858
 3663TIP3    H132404   2.027   1.804   1.156 -1.3379  0.5374  0.2452
 3663TIP3    H232405   2.156   1.863   1.208 -0.3434  0.6125 -2.2033
 3664TIP3   OH232406   6.301   6.629   1.198 -0.2903 -0.3482  0.4302
 3664TIP3    H132407   6.385   6.666   1.172 -0.7731  0.1568 -0.4382
 3664TIP3    H232408   6.288   6.555   1.138 -0.4836 -0.3959  0.5296
 3665TIP3   OH232409   1.851   3.414  10.828  0.0317  0.5403 -1.0666
 3665TIP3    H132410   1.917   3.476  10.798  1.1229  0.2232  0.5425
 3665TIP3    H232411   1.779   3.468  10.860  0.9883  1.0250  0.3589
 3666TIP3   OH232412   1.343   1.993  13.886  0.0338 -0.1585 -0.4171
 3666TIP3    H132413   1.370   2.042  13.963  0.7913 -0.0372 -0.7544
 3666TIP3    H232414   1.399   2.027  13.815 -0.7559 -0.1580 -1.0446
 3667TIP3   OH232415   5.813   6.060   4.922  0.0543  0.2461  0.2090
 3667TIP3    H132416   5.751   6.037   4.852  0.4356  0.0810 -0.0805
 3667TIP3    H232417   5.885   6.103   4.876  0.0784  0.5849  0.5636
 3668TIP3   OH232418   3.162   6.434   4.837  0.2692 -0.6451  0.2763
 3668TIP3    H132419   3.145   6.342   4.859  1.8195 -0.6019  1.7704
 3668TIP3    H232420   3.082   6.480   4.861 -0.4273 -1.5665 -0.2620
 3669TIP3   OH232421   5.257   0.652   5.917  0.4654  0.3879 -0.3259
 3669TIP3    H132422   5.242   0.716   5.849 -1.5112  0.8071  0.4835
 3669TIP3    H232423   5.174   0.645   5.964  0.7840 -2.3807 -0.0695
 3670TIP3   OH232424   0.378   1.735   1.503 -0.0020  0.1772  0.1974
 3670TIP3    H132425   0.310   1.673   1.476 -0.2065  0.8672 -0.9548
 3670TIP3    H232426   0.340   1.781   1.578 -0.5775  0.1358 -0.0608
 3671TIP3   OH232427   1.792   6.751   2.979 -0.1473  0.3165 -0.3814
 3671TIP3    H132428   1.831   6.809   3.044 -1.0816  0.3993  0.1067
 3671TIP3    H232429   1.698   6.769   2.983 -0.9260 -3.6721  2.2969
 3672TIP3   OH232430   6.005   4.575   4.610  0.7583  0.2828 -0.9486
 3672TIP3    H132431   5.915   4.584   4.578 -0.2365 -1.2145  1.3370
 3672TIP3    H232432   6.031   4.486   4.585  0.6683 -0.1977  0.5990
 3673TIP3   OH232433   6.203   2.013  15.176 -0.1738 -0.3163 -0.3309
 3673TIP3    H132434   6.290   2.030  15.142 -0.5272  0.1871 -0.9960
 3673TIP3    H232435   6.217   1.963  15.256  0.7083 -0.5465 -0.6321
 3674TIP3   OH232436   3.047   2.975   5.062  0.0637 -0.2961  0.3968
 3674TIP3    H132437   3.024   2.906   5.000  1.0047 -0.1099 -0.1706
 3674TIP3    H232438   2.966   3.023   5.076 -0.5981 -1.5066  0.7883
 3675TIP3   OH232439   0.044   6.331   4.803  0.6808 -1.0358 -0.2185
 3675TIP3    H132440   0.108   6.400   4.788  0.8697 -1.2777 -0.5438
 3675TIP3    H232441   0.082   6.254   4.761 -0.2120 -0.9719 -1.1888
 3676TIP3   OH232442   4.417   1.981   5.609  0.0349  0.2830  0.0148
 3676TIP3    H132443   4.355   2.054   5.612 -0.6966 -0.1752 -2.6207
 3676TIP3    H232444   4.368   1.908   5.646  0.6083  0.9669  2.2205
 3677TIP3   OH232445   5.549   0.615  16.397  0.5669 -0.3320 -0.1176
 3677TIP3    H132446   5.494   0.644  16.470  3.1563  0.5048  1.5449
 3677TIP3    H232447   5.503   0.538  16.362 -1.5570  0.2291  1.3215
 3678TIP3   OH232448   0.179   5.282   5.910  0.0146 -0.4115 -0.4041
 3678TIP3    H132449   0.183   5.247   5.821 -0.4976 -0.0356 -0.5836
 3678TIP3    H232450   0.086   5.278   5.933  0.2945 -1.6518  0.5898
 3679TIP3   OH232451   0.812   3.355   5.147  0.3564 -0.5441  0.2622
 3679TIP3    H132452   0.840   3.407   5.072 -0.2851 -0.6480 -0.0604
 3679TIP3    H232453   0.791   3.419   5.215  0.4851 -0.4255  0.1881
 3680TIP3   OH232454   1.174   5.848   4.097  0.2665 -0.5970 -0.1283
 3680TIP3    H132455   1.082   5.822   4.102  0.6128 -1.9707 -0.7460
 3680TIP3    H232456   1.202   5.856   4.188 -0.1350 -1.3583  0.0595
 3681TIP3   OH232457   0.252   1.708  15.083 -0.5215 -0.4474  0.1307
 3681TIP3    H132458   0.199   1.748  15.152  0.5660 -0.6601  1.0980
 3681TIP3    H232459   0.189   1.660  15.029 -1.7563  1.9098 -0.6189
 3682TIP3   OH232460   6.413   0.542   2.710 -0.2417  0.0423  0.2262
 3682TIP3    H132461   6.397   0.636   2.696  0.1143  0.1978  0.8379
 3682TIP3    H232462   6.456   0.513   2.629 -0.2652  0.4257  0.0730
 3683TIP3   OH232463   6.213   4.303  11.961 -0.3025 -0.1460  0.4295
 3683TIP3    H132464   6.259   4.221  11.940 -0.7535 -0.2848 -0.0482
 3683TIP3    H232465   6.221   4.312  12.056  0.4281 -0.3350  0.3852
 3684TIP3   OH232466   6.294   1.578   6.449  0.2944  0.5290 -0.3813
 3684TIP3    H132467   6.288   1.660   6.399  1.8777  0.7919 -0.1812
 3684TIP3    H232468   6.294   1.510   6.382  0.0271  0.7556 -0.6134
 3685TIP3   OH232469   2.231   0.611   2.835  0.0036  0.3386  0.2422
 3685TIP3    H132470   2.273   0.532   2.869  1.1906  1.6583  1.8945
 3685TIP3    H232471   2.212   0.664   2.912  0.9867  2.5187 -0.9514
 3686TIP3   OH232472   3.488   0.252  15.113 -0.8040 -0.6003 -0.1045
 3686TIP3    H132473   3.432   0.268  15.189 -1.3748 -1.5791 -0.3074
 3686TIP3    H232474   3.427   0.228  15.043 -0.3896  1.4581 -1.2238
 3687TIP3   OH232475   4.513   1.140   5.398  0.0762  0.4048 -0.0701
 3687TIP3    H132476   4.487   1.062   5.446 -2.6279  0.1691 -1.8165
 3687TIP3    H232477   4.497   1.119   5.306  1.0793  2.3430 -0.7219
 3688TIP3   OH232478   5.638   5.174   6.598  1.1376  0.3046  0.7419
 3688TIP3    H132479   5.655   5.252   6.547 -1.1711  0.1862 -0.2922
 3688TIP3    H232480   5.719   5.123   6.593  1.9975  1.7429 -0.1542
 3689TIP3   OH232481   0.309   6.095  11.645 -0.2666 -0.5653 -0.0597
 3689TIP3    H132482   0.379   6.141  11.691 -1.4424  0.3105  0.8743
 3689TIP3    H232483   0.339   6.090  11.554  1.0703 -0.3423  0.3608
 3690TIP3   OH232484   1.808   0.823  12.230  0.1195  0.0734  0.8912
 3690TIP3    H132485   1.877   0.778  12.180 -0.5019 -0.4908  0.5266
 3690TIP3    H232486   1.855   0.872  12.297  0.9737  0.8847 -0.2813
 3691TIP3   OH232487   2.546   3.104   4.383 -0.3293 -0.2177 -0.6332
 3691TIP3    H132488   2.629   3.150   4.396  0.8584 -1.6594 -2.7033
 3691TIP3    H232489   2.559   3.019   4.423 -0.9806 -0.2778 -0.5475
 3692TIP3   OH232490   0.546   5.108  10.798 -0.4351  0.0783  0.1146
 3692TIP3    H132491   0.612   5.148  10.742 -3.0642  1.5605 -2.0258
 3692TIP3    H232492   0.527   5.174  10.865 -1.5391  0.6750 -0.7707
 3693TIP3   OH232493   4.900   2.092  11.364  0.0965  0.4795  0.2984
 3693TIP3    H132494   4.944   2.008  11.376  1.5784  0.9891 -1.3395
 3693TIP3    H232495   4.859   2.085  11.278 -0.5430  1.1094  0.5501
 3694TIP3   OH232496   2.498   3.703  11.108  0.1500  0.2062  0.1218
 3694TIP3    H132497   2.457   3.627  11.067  2.7891 -1.2873  0.1387
 3694TIP3    H232498   2.560   3.666  11.171  0.1000  2.4085  1.5193
 3695TIP3   OH232499   0.805   4.349   4.660 -0.0116 -0.1206  0.3476
 3695TIP3    H132500   0.887   4.317   4.623  0.4928  1.2516  0.2389
 3695TIP3    H232501   0.792   4.435   4.619 -0.7771  0.2851  1.4135
 3696TIP3   OH232502   3.669   6.768   1.599  0.1890  0.8242 -0.5486
 3696TIP3    H132503   3.617   6.800   1.526 -1.2005  0.8889  0.4437
 3696TIP3    H232504   3.607   6.720   1.653  1.5422 -0.6686 -0.2702
 3697TIP3   OH232505   4.907   2.867  17.015 -0.2089 -0.6067  0.3795
 3697TIP3    H132506   4.868   2.899  16.934 -0.0724 -2.3480 -0.4105
 3697TIP3    H232507   4.885   2.933  17.081  1.1730  1.7384 -1.4195
 3698TIP3   OH232508   3.289   1.841  16.708  0.0798 -0.3435 -0.3218
 3698TIP3    H132509   3.339   1.886  16.775 -0.2633  0.7428 -0.7885
 3698TIP3    H232510   3.229   1.784  16.756  1.5648 -1.4684  0.2447
 3699TIP3   OH232511   2.615   0.791   0.765  0.2951 -0.5322  0.1459
 3699TIP3    H132512   2.661   0.862   0.810  4.7905 -1.9355 -1.9868
 3699TIP3    H232513   2.590   0.829   0.681 -0.2819 -0.5045  0.3293
 3700TIP3   OH232514   5.750   1.392  16.352  0.2186 -0.2786  0.2250
 3700TIP3    H132515   5.752   1.476  16.399 -0.0952 -0.6175  0.8527
 3700TIP3    H232516   5.805   1.406  16.275  1.5907 -0.0165  1.2272
 3701TIP3   OH232517   3.291   6.258  11.814 -0.2281 -0.0840 -0.3247
 3701TIP3    H132518   3.371   6.294  11.852  0.2841  0.1194 -1.6051
 3701TIP3    H232519   3.318   6.222  11.730 -1.2666 -1.0236 -0.2646
 3702TIP3   OH232520   2.393   3.735   2.851  0.4359 -0.0382 -0.3693
 3702TIP3    H132521   2.305   3.767   2.867 -0.4334 -2.3461 -0.4028
 3702TIP3    H232522   2.424   3.786   2.775 -1.3052 -0.0518 -1.0987
 3703TIP3   OH232523   6.254   5.386  11.677 -0.3103 -0.1208  0.3432
 3703TIP3    H132524   6.240   5.461  11.619  2.6270 -1.3437 -2.0897
 3703TIP3    H232525   6.190   5.321  11.648  0.2844 -0.2568 -0.6543
 3704TIP3   OH232526   4.724   3.350   3.894  0.0145  0.0415  0.4870
 3704TIP3    H132527   4.666   3.311   3.829 -0.2059 -1.4855  1.5625
 3704TIP3    H232528   4.681   3.433   3.917 -0.6278 -0.0664 -0.2827
 3705TIP3   OH232529   6.529   4.368  16.479  0.1185 -0.7284 -0.1502
 3705TIP3    H132530   6.575   4.298  16.433 -1.7636 -0.5472 -2.3591
 3705TIP3    H232531   6.547   4.447  16.427 -1.7034 -0.4452 -0.3602
 3706TIP3   OH232532   0.129   3.772   2.401 -0.0968  0.5620 -0.0506
 3706TIP3    H132533   0.199   3.719   2.364  0.4037  1.1504  0.0509
 3706TIP3    H232534   0.171   3.823   2.471 -1.0481 -0.6111  1.4156
 3707TIP3   OH232535   1.911   0.563  15.515 -0.4390 -0.0072 -0.3691
 3707TIP3    H132536   1.987   0.597  15.467  1.1606 -3.5730 -0.5585
 3707TIP3    H232537   1.879   0.638  15.566  1.8042  2.1582 -2.0083
 3708TIP3   OH232538   1.044   0.234  14.538 -0.1369  0.3174 -0.1533
 3708TIP3    H132539   1.138   0.254  14.535 -0.3026  1.3742  1.2296
 3708TIP3    H232540   1.001   0.318  14.532 -1.0273 -0.2242 -1.4053
 3709TIP3   OH232541   4.837   2.364   2.414  0.3814 -0.4373  0.0402
 3709TIP3    H132542   4.805   2.364   2.324 -0.5430  0.1769  0.3682
 3709TIP3    H232543   4.907   2.429   2.415  0.8438 -0.9155 -0.3816
 3710TIP3   OH232544   4.890   5.927   5.550 -0.1336 -0.6202  0.5603
 3710TIP3    H132545   4.825   5.975   5.601 -0.1858  0.7493 -0.7633
 3710TIP3    H232546   4.839   5.864   5.499 -0.2796 -0.4830  0.5367
 3711TIP3   OH232547   1.890   3.118  14.844  0.3092  0.1230 -0.4445
 3711TIP3    H132548   1.872   3.077  14.929  2.0555 -0.3250 -0.2637
 3711TIP3    H232549   1.853   3.057  14.780 -0.5966  0.2271 -0.0353
 3712TIP3   OH232550   2.353   4.739   2.977 -0.1720 -0.3009  0.7530
 3712TIP3    H132551   2.266   4.776   2.964  0.2325  0.3847 -0.0668
 3712TIP3    H232552   2.355   4.662   2.920 -0.1169 -0.1111  0.4983
 3713TIP3   OH232553   2.715   0.020  13.874  0.1061  1.0687  0.3699
 3713TIP3    H132554   2.628   0.044  13.906  0.5957  1.5218  1.3593
 3713TIP3    H232555   2.763   0.103  13.869  0.3904  0.8580 -0.4516
 3714TIP3   OH232556   0.950   0.898   1.583 -0.4917 -0.2295 -0.0240
 3714TIP3    H132557   0.992   0.929   1.663  1.3394 -0.1738 -0.9653
 3714TIP3    H232558   1.013   0.836   1.546 -0.5752  0.9358 -2.2250
 3715TIP3   OH232559   3.294   5.404  14.107  0.7511  0.0501 -0.5422
 3715TIP3    H132560   3.319   5.482  14.157  1.3499  0.5689 -1.6344
 3715TIP3    H232561   3.218   5.369  14.154 -0.3461  2.0230 -0.7641
 3716TIP3   OH232562   3.919   3.859   0.662 -0.5151 -0.5577 -0.2201
 3716TIP3    H132563   3.856   3.928   0.640  0.2760 -0.1678 -1.3242
 3716TIP3    H232564   4.004   3.896   0.640 -0.2422 -2.6962 -3.0855
 3717TIP3   OH232565   4.857   0.812  13.355 -0.1399 -0.0503  0.2253
 3717TIP3    H132566   4.765   0.819  13.381 -0.5420  0.1845 -1.2305
 3717TIP3    H232567   4.876   0.718  13.361 -0.9087 -0.2804 -0.9399
 3718TIP3   OH232568   4.639   2.249  14.579 -0.7434 -0.0181 -0.2287
 3718TIP3    H132569   4.616   2.319  14.641  0.0998  0.5866 -0.5975
 3718TIP3    H232570   4.680   2.181  14.634 -0.1866  0.4278 -0.0876
 3719TIP3   OH232571   2.217   5.667  16.343 -0.3149 -0.2147 -0.1009
 3719TIP3    H132572   2.198   5.574  16.339  1.4535 -0.5541 -1.6199
 3719TIP3    H232573   2.298   5.677  16.292 -0.5426  2.1542 -0.0641
 3720TIP3   OH232574   3.111   2.694   2.521 -0.0262  0.0310  0.3574
 3720TIP3    H132575   3.134   2.615   2.474  2.2346 -0.6536  2.5078
 3720TIP3    H232576   3.089   2.758   2.453  0.4524 -1.7326 -1.4737
 3721TIP3   OH232577   6.285   1.217   3.967 -0.1013  0.2017 -0.6337
 3721TIP3    H132578   6.191   1.207   3.986  0.2030 -1.6862  0.0377
 3721TIP3    H232579   6.322   1.247   4.050 -0.2247  1.8851 -1.1640
 3722TIP3   OH232580   5.971   5.466  11.166 -0.4400 -0.4798  0.0808
 3722TIP3    H132581   6.045   5.428  11.213 -0.4446 -0.6600 -0.0533
 3722TIP3    H232582   5.916   5.390  11.143  1.1381 -0.7627 -2.9684
 3723TIP3   OH232583   6.060   5.383  16.677 -0.4731  0.3653 -0.1151
 3723TIP3    H132584   6.104   5.327  16.742  0.1338  0.9735  0.0051
 3723TIP3    H232585   5.973   5.398  16.715  0.1437  1.3503  0.9364
 3724TIP3   OH232586   4.837   1.794  16.838  0.1162  0.1784  0.0837
 3724TIP3    H132587   4.881   1.875  16.811  0.0588  0.2191  0.1156
 3724TIP3    H232588   4.895   1.724  16.806 -1.2649  0.1604 -2.4925
 3725TIP3   OH232589   2.150   3.035  11.396  0.0356 -0.5944 -0.0314
 3725TIP3    H132590   2.114   2.952  11.363  0.4704 -0.7500 -0.1110
 3725TIP3    H232591   2.228   3.009  11.445  0.1123 -0.2396  0.0337
 3726TIP3   OH232592   4.310   3.788   5.416  0.5878  0.3009  0.9014
 3726TIP3    H132593   4.264   3.858   5.371  0.3137 -1.1384 -1.1475
 3726TIP3    H232594   4.403   3.813   5.411  0.6267 -0.1070 -1.0391
 3727TIP3   OH232595   4.480   5.200  12.413 -0.2774  0.2413  0.3750
 3727TIP3    H132596   4.388   5.177  12.424 -0.5836  0.5795 -1.3162
 3727TIP3    H232597   4.497   5.266  12.479 -0.9799 -0.5642  1.3659
 3728TIP3   OH232598   6.090   6.295   1.633  0.4843  0.0348  0.1414
 3728TIP3    H132599   6.059   6.262   1.549  0.2157  0.2373  0.1618
 3728TIP3    H232600   6.014   6.337   1.672  0.2844 -1.1175  1.0216
 3729TIP3   OH232601   1.058   0.159   3.207 -0.4858  0.8389 -0.0491
 3729TIP3    H132602   1.087   0.178   3.297 -0.1153  0.4979 -0.0963
 3729TIP3    H232603   1.136   0.122   3.164 -1.0522 -0.3250 -0.0998
 3730TIP3   OH232604   4.284   1.140  15.257 -0.1782  0.4178  0.1678
 3730TIP3    H132605   4.273   1.107  15.346 -0.1922  0.5745  0.2255
 3730TIP3    H232606   4.360   1.199  15.263  0.6324 -0.5762 -0.2052
 3731TIP3   OH232607   2.397   2.964   1.554  0.0126  0.5501  0.3750
 3731TIP3    H132608   2.442   3.023   1.613 -0.6846  2.3719 -0.8723
 3731TIP3    H232609   2.314   3.007   1.535 -0.4537 -0.7565 -0.6626
 3732TIP3   OH232610   6.590   0.736   1.191 -0.0247  0.2490 -0.9165
 3732TIP3    H132611   6.562   0.732   1.099 -2.0196  2.0987 -0.4379
 3732TIP3    H232612   6.638   0.819   1.198  0.4526 -0.0715 -0.3744
 3733TIP3   OH232613   0.270   0.745  11.948 -0.8103 -0.2293 -0.2535
 3733TIP3    H132614   0.314   0.778  12.027 -0.2795 -0.2527 -0.5379
 3733TIP3    H232615   0.206   0.812  11.926 -1.3660 -0.4901  0.5331
 3734TIP3   OH232616   1.284   4.042   1.292 -0.0916 -0.0565 -1.0905
 3734TIP3    H132617   1.368   4.061   1.335  0.1204 -0.2206 -1.4306
 3734TIP3    H232618   1.277   3.947   1.294 -0.5565 -0.0138 -0.5275
 3735TIP3   OH232619   3.422   4.164  14.012 -0.9464 -0.3694  0.2852
 3735TIP3    H132620   3.397   4.097  13.949 -1.1048 -0.1331  0.0933
 3735TIP3    H232621   3.483   4.121  14.071  0.0599 -0.3101 -0.6809
 3736TIP3   OH232622   2.985   3.834  15.128 -0.3761 -0.0687 -0.5144
 3736TIP3    H132623   3.041   3.911  15.135 -0.9495  0.3088  0.0319
 3736TIP3    H232624   2.897   3.870  15.115 -0.6246 -0.6319 -0.4006
 3737TIP3   OH232625   1.839   5.649  16.323  0.2140 -0.3482  0.4372
 3737TIP3    H132626   1.819   5.726  16.376  3.8517  0.1633  1.2288
 3737TIP3    H232627   1.864   5.685  16.237  0.9861 -0.6708  0.5183
 3738TIP3   OH232628   5.831   0.331  13.023 -0.4713  0.0800  0.0671
 3738TIP3    H132629   5.816   0.411  12.973 -1.3903  1.2899  2.1875
 3738TIP3    H232630   5.926   0.326  13.033 -0.3264  0.1579 -1.2576
 3739TIP3   OH232631   4.515   2.113  16.426  1.2168 -0.0262  0.4958
 3739TIP3    H132632   4.520   2.043  16.491  1.2630  0.4492  1.0087
 3739TIP3    H232633   4.421   2.134  16.421  0.9388 -1.6628 -1.3127
 3740TIP3   OH232634   4.782   5.996  16.194 -0.4734 -0.5479 -0.5010
 3740TIP3    H132635   4.734   5.991  16.112 -1.0210 -0.0885 -0.2167
 3740TIP3    H232636   4.716   5.980  16.262 -0.0057 -1.0241 -0.1574
 3741TIP3   OH232637   4.116   2.502  15.917  0.0042  0.9962 -0.4965
 3741TIP3    H132638   4.099   2.409  15.900 -1.8344  0.9893  1.2007
 3741TIP3    H232639   4.153   2.535  15.835  2.7747 -1.7061 -0.4422
 3742TIP3   OH232640   3.379   5.614  15.419 -0.0047  0.1108  0.1424
 3742TIP3    H132641   3.411   5.525  15.434  1.9675  0.8107  0.2048
 3742TIP3    H232642   3.353   5.614  15.327 -0.0435 -0.5389  0.1439
 3743TIP3   OH232643   2.495   0.677   5.375 -0.0124 -0.1213  0.4834
 3743TIP3    H132644   2.435   0.700   5.445  0.8136  0.6853  0.9402
 3743TIP3    H232645   2.582   0.687   5.413  0.4186 -1.8816  0.0151
 3744TIP3   OH232646   4.100   5.894  15.511  0.7750 -0.0125  0.5271
 3744TIP3    H132647   4.132   5.943  15.587  0.3972  1.0344  0.0247
 3744TIP3    H232648   4.075   5.809  15.546  0.1372  0.6319  1.6582
 3745TIP3   OH232649   1.324   1.107   3.582  0.0910  0.2248  0.0825
 3745TIP3    H132650   1.414   1.073   3.587  0.4390  0.9041 -1.2504
 3745TIP3    H232651   1.298   1.093   3.491 -0.8093  0.8917  0.2264
 3746TIP3   OH232652   2.580   6.785   5.858  0.5586  0.2767 -0.9760
 3746TIP3    H132653   2.618   6.800   5.944  2.0309  1.2236 -1.7735
 3746TIP3    H232654   2.536   6.867   5.836  1.7413  0.6764 -1.8918
 3747TIP3   OH232655   0.993   0.846   5.173  0.8368  0.1503  0.4432
 3747TIP3    H132656   1.072   0.810   5.132 -0.2016 -0.8359 -0.7720
 3747TIP3    H232657   0.932   0.858   5.100 -0.3119  0.4138  1.4299
 3748TIP3   OH232658   0.181   6.532   3.389 -0.6033 -0.6867 -0.3951
 3748TIP3    H132659   0.256   6.473   3.393  0.1695  0.3406  0.3862
 3748TIP3    H232660   0.166   6.558   3.480 -0.1650  1.2864 -0.8701
 3749TIP3   OH232661   1.353   4.601  10.924 -0.4378  0.5332 -0.4811
 3749TIP3    H132662   1.377   4.656  10.850 -2.2260 -1.3046 -2.4966
 3749TIP3    H232663   1.257   4.598  10.922 -0.4839 -0.1950  1.4378
 3750TIP3   OH232664   5.954   1.761  11.774 -0.1555 -0.1733  0.2616
 3750TIP3    H132665   5.938   1.854  11.793 -1.4799 -0.4272  0.4178
 3750TIP3    H232666   5.903   1.714  11.839  2.2045 -1.0445  1.5693
 3751TIP3   OH232667   0.885   2.249   0.748  0.3599 -0.7651 -0.7941
 3751TIP3    H132668   0.819   2.308   0.710  0.9397  1.0551  0.9547
 3751TIP3    H232669   0.961   2.259   0.690 -0.6396 -2.3791 -2.4415
 3752TIP3   OH232670   2.170   3.102  15.910 -0.7108 -0.3460 -0.0165
 3752TIP3    H132671   2.222   3.136  15.983 -0.9050  0.4383 -0.2365
 3752TIP3    H232672   2.185   3.008  15.911  0.7665 -0.1235 -0.1125
 3753TIP3   OH232673   3.371   0.888   0.544  0.1677  0.0399  0.4356
 3753TIP3    H132674   3.419   0.851   0.618 -0.3433  1.1830  1.3580
 3753TIP3    H232675   3.368   0.817   0.479  0.5145 -1.0136  1.5532
 3754TIP3   OH232676   4.879   2.033   5.155  0.3845  1.0889 -0.2973
 3754TIP3    H132677   4.924   2.050   5.237 -1.8360  0.5446  1.0884
 3754TIP3    H232678   4.885   1.938   5.143 -0.0128  1.0655 -0.3260
 3755TIP3   OH232679   2.987   3.522  12.296  0.1730  0.4002 -0.1240
 3755TIP3    H132680   2.979   3.577  12.218  4.2747  0.3553 -0.7113
 3755TIP3    H232681   2.943   3.440  12.272 -1.5755  1.6081 -1.1020
 3756TIP3   OH232682   5.001   0.731   3.487 -0.6139 -0.4391  0.1655
 3756TIP3    H132683   4.959   0.790   3.424  1.5380  0.5986 -0.3247
 3756TIP3    H232684   4.940   0.729   3.562 -1.9320  0.3548 -0.8616
 3757TIP3   OH232685   3.397   4.346   0.757 -0.7740  0.0830  0.0352
 3757TIP3    H132686   3.318   4.400   0.756  0.3209  1.7550  1.3057
 3757TIP3    H232687   3.458   4.394   0.813  1.4945 -0.6965 -1.7244
 3758TIP3   OH232688   2.566   2.782   5.588 -0.0248  0.0577  0.3388
 3758TIP3    H132689   2.629   2.853   5.575  1.8246 -1.3411  1.3943
 3758TIP3    H232690   2.506   2.816   5.654 -0.3335  1.3709 -0.5990
 3759TIP3   OH232691   0.611   5.062  16.191 -0.8381  0.5985  0.5172
 3759TIP3    H132692   0.688   5.026  16.148 -2.0957  1.0148 -2.1404
 3759TIP3    H232693   0.646   5.125  16.254  1.0088  0.1442 -0.0357
 3760TIP3   OH232694   0.869   5.190   3.870 -0.0220  0.2273 -0.5969
 3760TIP3    H132695   0.778   5.219   3.866  0.1444  0.7187 -0.9562
 3760TIP3    H232696   0.887   5.177   3.963 -0.6013 -0.3274 -0.5626
 3761TIP3   OH232697   6.171   0.732  12.324  0.2095 -0.1016 -0.3901
 3761TIP3    H132698   6.102   0.797  12.307 -0.1089  0.1437  1.6946
 3761TIP3    H232699   6.223   0.771  12.395  2.5794 -0.2387 -1.9847
 3762TIP3   OH232700   4.329   2.110  12.363  0.7652 -0.4631  0.3571
 3762TIP3    H132701   4.244   2.089  12.402  1.7100 -1.1310  2.1138
 3762TIP3    H232702   4.332   2.205  12.361  0.1878 -0.4335  0.8071
 3763TIP3   OH232703   0.606   2.818   0.287 -0.3820 -0.0417  0.1489
 3763TIP3    H132704   0.624   2.890   0.348  0.1759  0.0207 -0.0890
 3763TIP3    H232705   0.628   2.853   0.201  0.4328 -0.6697  0.0862
 3764TIP3   OH232706   3.970   5.908  16.965 -0.0458  0.2619  0.2331
 3764TIP3    H132707   3.931   5.836  16.916 -2.1256  1.2391  0.4124
 3764TIP3    H232708   4.063   5.887  16.969 -0.3882 -1.5728 -1.1312
 3765TIP3   OH232709   0.476   5.906  13.110 -0.1315 -0.2534  0.2362
 3765TIP3    H132710   0.454   5.956  13.031 -0.2269 -0.9345 -0.1667
 3765TIP3    H232711   0.461   5.815  13.086  0.7139 -0.5315  0.7550
 3766TIP3   OH232712   5.808   5.640  10.298 -0.0842 -0.2035  0.1365
 3766TIP3    H132713   5.853   5.562  10.266  0.9737 -0.5786  2.4423
 3766TIP3    H232714   5.715   5.619  10.291  0.1881 -1.5363  0.3944
 3767TIP3   OH232715   3.369   0.695  14.092 -0.4348 -0.3545 -0.2453
 3767TIP3    H132716   3.284   0.707  14.050 -1.5088 -0.7574  1.7481
 3767TIP3    H232717   3.353   0.631  14.161  1.0706  0.9920  1.3988
 3768TIP3   OH232718   0.818   1.274  10.562 -0.5462 -0.3240 -0.5972
 3768TIP3    H132719   0.810   1.352  10.507  1.8531 -0.3196 -0.9804
 3768TIP3    H232720   0.731   1.265  10.602 -1.3105  1.6654 -1.6933
 3769TIP3   OH232721   5.662   3.671  16.796 -0.1037 -0.3069  0.4679
 3769TIP3    H132722   5.579   3.639  16.760  0.6135  0.0910 -1.5774
 3769TIP3    H232723   5.646   3.763  16.816 -0.2146 -0.2871  0.2829
 3770TIP3   OH232724   0.451   6.476   2.300  1.1453 -0.0067  0.1111
 3770TIP3    H132725   0.455   6.389   2.260  1.6277 -1.0415  2.3180
 3770TIP3    H232726   0.472   6.536   2.229  1.0001 -1.7104 -1.4022
 3771TIP3   OH232727   0.487   0.465   6.100 -0.5267 -0.2148 -0.1079
 3771TIP3    H132728   0.579   0.486   6.117 -0.6766  1.1788 -0.8819
 3771TIP3    H232729   0.443   0.480   6.184 -0.4324  1.5328 -0.3545
 3772TIP3   OH232730   2.064   0.184  11.860  0.1297 -0.2712  0.1648
 3772TIP3    H132731   2.100   0.272  11.872  0.0366  0.0406 -1.6378
 3772TIP3    H232732   2.092   0.159  11.772  0.5490 -2.2454  0.8440
 3773TIP3   OH232733   6.241   2.878  12.424 -0.5308  0.0120  0.9533
 3773TIP3    H132734   6.336   2.885  12.419 -0.4461 -1.1415  0.7190
 3773TIP3    H232735   6.209   2.948  12.367  0.1934 -0.1153  0.3734
 3774TIP3   OH232736   2.686   2.667  15.058  0.4727  0.4362 -0.0287
 3774TIP3    H132737   2.763   2.676  15.003 -0.8084  1.9651 -1.6234
 3774TIP3    H232738   2.662   2.574  15.051 -0.3004  0.8078 -2.9850
 3775TIP3   OH232739   2.730   3.898   5.252  0.0585 -0.2988  0.6546
 3775TIP3    H132740   2.707   3.959   5.323  0.3819  0.0749  0.4471
 3775TIP3    H232741   2.649   3.852   5.232 -0.1239 -0.1390  1.0180
 3776TIP3   OH232742   2.404   0.754   2.646  0.3763  0.2762 -0.5136
 3776TIP3    H132743   2.347   0.699   2.699  0.9219  0.1491 -0.0619
 3776TIP3    H232744   2.425   0.829   2.702  4.9137 -2.1616  1.3419
 3777TIP3   OH232745   0.363   3.224  16.790  0.5399 -0.0576 -0.0524
 3777TIP3    H132746   0.392   3.186  16.873  0.5652 -1.3088 -0.6204
 3777TIP3    H232747   0.268   3.223  16.794  0.5388  1.5073  0.6779
 3778TIP3   OH232748   6.617   4.682   0.319  0.3834 -0.3076 -0.2968
 3778TIP3    H132749   6.546   4.712   0.375 -1.1106 -1.9060 -1.2880
 3778TIP3    H232750   6.637   4.758   0.264 -0.4140  0.2099  0.1193
 3779TIP3   OH232751   0.475   1.711  15.765  0.3570 -0.0327  0.0486
 3779TIP3    H132752   0.384   1.734  15.749  0.7121  1.2073 -0.2415
 3779TIP3    H232753   0.480   1.694  15.859  0.0129  0.7667  0.2116
 3780TIP3   OH232754   2.433   3.565   2.501 -0.2324 -0.2753 -0.0831
 3780TIP3    H132755   2.398   3.504   2.436 -2.7968 -0.0359  1.0169
 3780TIP3    H232756   2.439   3.648   2.454  0.7862 -0.7795 -0.8526
 3781TIP3   OH232757   3.146   1.977   0.699 -0.0395 -0.0896 -0.4762
 3781TIP3    H132758   3.193   1.895   0.684 -0.1279 -0.4497  1.1670
 3781TIP3    H232759   3.132   1.980   0.793 -1.9041  0.8012 -0.7585
 3782TIP3   OH232760   2.488   2.767   1.848 -0.3441  0.0114  0.0477
 3782TIP3    H132761   2.570   2.788   1.802 -1.0032 -0.6334 -1.4424
 3782TIP3    H232762   2.452   2.852   1.872  1.2874  0.2719  1.6538
 3783TIP3   OH232763   0.800   5.991  16.434 -0.2133 -0.7546  0.5969
 3783TIP3    H132764   0.767   6.005  16.345  1.6423 -1.2750 -0.1941
 3783TIP3    H232765   0.833   6.077  16.461  2.0505 -1.2738 -0.4258
 3784TIP3   OH232766   1.712   4.666  10.838 -0.1091 -0.4514  0.0374
 3784TIP3    H132767   1.621   4.681  10.812 -0.0084 -1.0465 -0.6667
 3784TIP3    H232768   1.762   4.732  10.790 -0.2252  0.2328  0.8468
 3785TIP3   OH232769   2.206   1.095  15.300  0.3191 -0.1370 -0.4356
 3785TIP3    H132770   2.213   1.105  15.205  1.5766 -0.5737 -0.3917
 3785TIP3    H232771   2.296   1.088  15.331  0.0006  1.6426  0.9767
 3786TIP3   OH232772   6.761   6.404  15.970  0.0473 -0.1654 -0.4465
 3786TIP3    H132773   6.829   6.453  16.016 -1.3012  1.7684 -0.4340
 3786TIP3    H232774   6.693   6.391  16.036 -1.2504  1.2911 -1.4723
 3787TIP3   OH232775   0.637   6.417  11.540  0.6261  0.3040  0.2176
 3787TIP3    H132776   0.721   6.389  11.506  0.0432 -1.5137  0.2557
 3787TIP3    H232777   0.629   6.372  11.625 -0.3160  0.5751  0.2791
 3788TIP3   OH232778   3.202   4.808   0.838  0.3605 -0.2414 -0.1667
 3788TIP3    H132779   3.234   4.719   0.825  0.8347 -0.0875 -0.0465
 3788TIP3    H232780   3.265   4.864   0.793  1.8448  0.2718  2.4448
 3789TIP3   OH232781   4.883   2.118  13.442 -0.4711 -0.1640 -0.2338
 3789TIP3    H132782   4.945   2.181  13.405 -1.2244  0.5707 -0.2543
 3789TIP3    H232783   4.822   2.100  13.370 -0.0976 -1.1297 -0.3138
 3790TIP3   OH232784   1.645   5.560   3.167 -0.3519 -0.5859 -0.4180
 3790TIP3    H132785   1.698   5.576   3.089  1.4474 -0.3339  0.8092
 3790TIP3    H232786   1.688   5.613   3.235 -1.5378 -1.2572  0.8647
 3791TIP3   OH232787   2.000   2.332  12.703 -0.1558  0.1798  0.2581
 3791TIP3    H132788   1.983   2.238  12.696  1.5109 -0.0588 -0.9024
 3791TIP3    H232789   1.921   2.368  12.743 -1.0924 -1.6199  0.0649
 3792TIP3   OH232790   5.076   5.111   3.275 -0.2319  0.5848  0.9039
 3792TIP3    H132791   5.083   5.078   3.364 -2.6633 -1.8872  0.2405
 3792TIP3    H232792   4.986   5.092   3.249  0.5645  0.8062 -2.2626
 3793TIP3   OH232793   6.310   4.415   6.833  0.2605 -0.0078 -0.4426
 3793TIP3    H132794   6.373   4.482   6.805  0.2681 -0.9246 -2.7568
 3793TIP3    H232795   6.231   4.435   6.782 -0.1353 -1.0358 -0.2305
 3794TIP3   OH232796   6.380   2.108  11.045  0.3553  0.0180 -0.3337
 3794TIP3    H132797   6.467   2.142  11.023  0.8301  0.3173  1.8927
 3794TIP3    H232798   6.326   2.186  11.054 -0.0924 -0.1551 -1.3938
 3795TIP3   OH232799   0.981   4.825   0.796  0.2001 -0.1058  0.1956
 3795TIP3    H132800   1.052   4.883   0.825  0.9914 -0.4596 -0.9598
 3795TIP3    H232801   0.928   4.880   0.738  0.4442 -0.2719 -0.1925
 3796TIP3   OH232802   5.095   3.101   5.071  0.2244 -0.0450  0.0498
 3796TIP3    H132803   5.037   3.153   5.127  1.1146 -0.6868  1.6244
 3796TIP3    H232804   5.180   3.144   5.077  0.6455 -0.8830  0.2712
 3797TIP3   OH232805   1.071   4.186   1.422  0.0145 -0.4918  0.2065
 3797TIP3    H132806   1.104   4.272   1.450 -0.7726  0.0201 -0.3872
 3797TIP3    H232807   1.140   4.152   1.365 -0.5527  0.6645 -1.2058
 3798TIP3   OH232808   6.329   1.597   4.550 -0.3591  0.1116  0.2580
 3798TIP3    H132809   6.295   1.545   4.478  0.9804 -0.9444  0.3755
 3798TIP3    H232810   6.377   1.535   4.605  0.2418  1.2400  1.0426
 3799TIP3   OH232811   2.582   1.856  15.741  0.8025  0.1527  0.0889
 3799TIP3    H132812   2.639   1.840  15.666 -0.2498 -1.6504 -0.3589
 3799TIP3    H232813   2.629   1.818  15.816  1.0318  0.3534  0.0483
 3800TIP3   OH232814   5.170   2.766   3.358 -0.1621 -0.2148 -0.3501
 3800TIP3    H132815   5.084   2.766   3.318 -1.0261 -1.2681  1.4570
 3800TIP3    H232816   5.230   2.746   3.286 -1.4400  0.1518 -1.5378
 3801TIP3   OH232817   2.985   5.635   0.309  0.2638 -0.3072  0.0247
 3801TIP3    H132818   2.990   5.726   0.279  0.2634  0.5400  2.4749
 3801TIP3    H232819   3.051   5.629   0.378  1.2187 -2.5659 -1.0310
 3802TIP3   OH232820   2.359   4.090  16.189  0.0552  0.1063 -0.0243
 3802TIP3    H132821   2.344   4.098  16.095  0.9170 -3.5235 -0.5824
 3802TIP3    H232822   2.280   4.124  16.230 -0.8712  0.5318 -2.1147
 3803TIP3   OH232823   0.755   4.428   0.613 -0.4736  0.0923  0.8291
 3803TIP3    H132824   0.692   4.499   0.600 -0.1060  0.0012 -1.7161
 3803TIP3    H232825   0.839   4.472   0.626  0.1751  0.1921 -3.0683
 3804TIP3   OH232826   0.005   5.747  14.008  0.1007 -0.2664  0.2781
 3804TIP3    H132827  -0.073   5.793  14.039  0.3151 -0.1562  0.6645
 3804TIP3    H232828  -0.022   5.655  14.004 -0.0538 -0.2277  0.3931
 3805TIP3   OH232829   3.050   5.706  11.281 -0.6854  0.4806  0.3220
 3805TIP3    H132830   2.959   5.735  11.287 -0.5158  0.8753  1.0002
 3805TIP3    H232831   3.047   5.630  11.222 -1.0850  2.0469 -1.7437
 3806TIP3   OH232832   2.314   3.968  10.640 -0.0144 -0.3190  0.3298
 3806TIP3    H132833   2.321   3.880  10.676 -0.6298 -1.1987 -1.6317
 3806TIP3    H232834   2.222   3.993  10.655 -0.0472 -0.3414  0.1709
 3807TIP3   OH232835   0.662   2.715   4.269 -0.3931  0.1838  0.1229
 3807TIP3    H132836   0.665   2.626   4.235 -0.1952  0.2469 -0.0258
 3807TIP3    H232837   0.658   2.704   4.364  0.9798  0.0256  0.1732
 3808TIP3   OH232838   2.542   3.070   3.122  0.7076 -0.1823 -0.3308
 3808TIP3    H132839   2.599   3.131   3.170  1.9061 -1.6986  0.2045
 3808TIP3    H232840   2.535   2.994   3.179 -1.5132 -0.2165 -0.6110
 3809TIP3   OH232841   1.697   5.611   3.857  0.4085 -0.4312  0.0967
 3809TIP3    H132842   1.709   5.521   3.827  1.7158 -0.1911 -0.1295
 3809TIP3    H232843   1.759   5.621   3.929 -0.5711 -0.0627  0.9050
 3810TIP3   OH232844   4.360   2.738  15.981 -0.5959  0.5412  0.0361
 3810TIP3    H132845   4.336   2.647  15.965  0.4775  0.2412  0.1043
 3810TIP3    H232846   4.279   2.779  16.013 -0.9614 -0.5015  0.4632
 3811TIP3   OH232847   2.427   3.044  10.918 -0.3165 -0.1889  0.1124
 3811TIP3    H132848   2.340   3.019  10.947 -1.3045  0.7285 -1.9635
 3811TIP3    H232849   2.428   3.023  10.824  0.6400  2.5741 -0.5363
 3812TIP3   OH232850   4.122   3.789  13.566 -0.6179  0.1821  0.1942
 3812TIP3    H132851   4.190   3.738  13.611 -0.7689  0.5862  0.8825
 3812TIP3    H232852   4.124   3.875  13.609 -0.9059  0.5055 -0.4347
 3813TIP3   OH232853   1.074   5.312   2.915  0.1294 -0.0881  0.4903
 3813TIP3    H132854   1.040   5.361   2.991 -2.5347 -0.2327 -0.5400
 3813TIP3    H232855   1.065   5.373   2.842 -1.4761 -1.4158 -0.4684
 3814TIP3   OH232856   0.235   0.395   5.890 -0.0729 -1.0469  0.4692
 3814TIP3    H132857   0.159   0.378   5.834 -0.4035 -1.2885  0.9867
 3814TIP3    H232858   0.198   0.415   5.976  0.4373 -0.8549  0.6462
 3815TIP3   OH232859   2.208   4.467   4.195 -0.5106 -0.4435 -0.5035
 3815TIP3    H132860   2.236   4.376   4.194  2.1586  0.3302 -1.2048
 3815TIP3    H232861   2.184   4.484   4.286 -1.2527 -1.8904 -0.4189
 3816TIP3   OH232862   5.038   3.528  13.765 -0.0047  0.2456 -0.1531
 3816TIP3    H132863   4.953   3.568  13.749  0.5365  1.3189 -0.4526
 3816TIP3    H232864   5.028   3.484  13.850 -1.6918 -2.0904 -1.5216
 3817TIP3   OH232865   4.118   6.437  13.740 -0.6255 -0.3176 -0.3532
 3817TIP3    H132866   4.124   6.530  13.716  1.1897 -0.6146 -1.1528
 3817TIP3    H232867   4.079   6.395  13.664  1.5594 -0.6692 -1.3333
 3818TIP3   OH232868   0.918   0.097  15.308 -0.6949  0.6136 -0.2871
 3818TIP3    H132869   0.892   0.012  15.344  1.6187  0.3909  0.9881
 3818TIP3    H232870   0.842   0.153  15.321 -1.0844 -0.3661  2.0491
 3819TIP3   OH232871   5.512   6.635   4.193 -0.0527 -0.1360 -0.1230
 3819TIP3    H132872   5.571   6.572   4.234 -0.4973 -1.7200 -1.8120
 3819TIP3    H232873   5.515   6.613   4.100 -1.5766  1.2152 -0.5173
 3820TIP3   OH232874   4.567   1.013  13.417  1.0443 -0.2133  0.3601
 3820TIP3    H132875   4.498   1.036  13.479  0.1231 -1.9703 -0.0054
 3820TIP3    H232876   4.550   0.922  13.394  1.7224  0.2327 -2.0334
 3821TIP3   OH232877   5.276   3.829   4.055  0.1203  0.1614  0.1880
 3821TIP3    H132878   5.271   3.755   4.116 -2.5643  0.4586  0.3861
 3821TIP3    H232879   5.188   3.867   4.056  1.0033  2.3415 -1.1925
 3822TIP3   OH232880   0.648   3.846  16.998 -0.3002 -0.4508 -0.3708
 3822TIP3    H132881   0.647   3.752  17.016  2.3668 -0.2315  1.1741
 3822TIP3    H232882   0.612   3.886  17.077  0.1084 -0.0987 -0.3622
 3823TIP3   OH232883   6.292   5.915  11.091 -0.0122  0.4068  0.2502
 3823TIP3    H132884   6.239   5.850  11.137  0.9394  0.5922  1.6336
 3823TIP3    H232885   6.372   5.921  11.143  1.2144  0.3948 -1.5979
 3824TIP3   OH232886   1.432   1.100   0.756 -0.4003  0.3056  0.0108
 3824TIP3    H132887   1.445   1.008   0.778 -1.9867 -0.8042 -3.3895
 3824TIP3    H232888   1.367   1.131   0.819 -0.4343 -1.0845  0.6718
 3825TIP3   OH232889   5.420   5.765   6.470  0.1849  0.0578 -0.2707
 3825TIP3    H132890   5.412   5.822   6.394  0.0486 -2.4204 -2.1855
 3825TIP3    H232891   5.513   5.766   6.491  0.3609  0.0368 -1.0472
 3826TIP3   OH232892   4.653   4.190  14.938  0.7293  0.3552  0.1943
 3826TIP3    H132893   4.605   4.200  15.021  0.9271 -0.3589  0.4023
 3826TIP3    H232894   4.589   4.152  14.878  0.7381  0.3627  0.1810
 3827TIP3   OH232895   4.174   5.554   5.665 -0.0240 -0.5374  0.0806
 3827TIP3    H132896   4.085   5.518   5.656  0.1081 -1.0733  0.8666
 3827TIP3    H232897   4.180   5.620   5.596 -0.8704 -0.8340 -0.2850
 3828TIP3   OH232898   3.778   1.358   4.464  0.9907  0.0646  0.0237
 3828TIP3    H132899   3.738   1.439   4.494  1.2784 -0.3594  1.5833
 3828TIP3    H232900   3.718   1.325   4.396 -0.1448  0.5632  0.7823
 3829TIP3   OH232901   0.778   2.635   0.035  0.4588 -0.6662  0.4389
 3829TIP3    H132902   0.692   2.593   0.034 -0.3001  0.8841  0.1303
 3829TIP3    H232903   0.839   2.563   0.054 -0.7218 -2.0739 -0.9595
 3830TIP3   OH232904   1.587   5.850  13.496 -0.1470 -0.2851 -0.0332
 3830TIP3    H132905   1.621   5.812  13.416  1.0514 -0.3767  0.5215
 3830TIP3    H232906   1.545   5.932  13.468 -0.3658 -0.6732 -0.8386
 3831TIP3   OH232907   6.619   4.952   1.190 -0.1317  0.3221 -0.3917
 3831TIP3    H132908   6.576   4.872   1.161  0.2863 -0.2223  0.4656
 3831TIP3    H232909   6.704   4.951   1.145  0.9057 -1.0010  1.5279
 3832TIP3   OH232910   3.672   0.647  14.184  0.3086  0.2759 -0.2016
 3832TIP3    H132911   3.580   0.664  14.166 -0.1009  0.7534  2.1573
 3832TIP3    H232912   3.685   0.677  14.274  2.7158  0.0067 -0.4147
 3833TIP3   OH232913   0.844   2.673   0.731  0.1504  0.1319  0.7128
 3833TIP3    H132914   0.864   2.683   0.638 -0.3345  1.2284  0.7114
 3833TIP3    H232915   0.753   2.645   0.733 -0.0519  0.7883  0.8680
 3834TIP3   OH232916   0.992   1.874   4.717 -0.2804  0.6832  0.5132
 3834TIP3    H132917   0.945   1.914   4.790  0.1992 -0.7436  1.6230
 3834TIP3    H232918   1.058   1.819   4.758  0.2323  0.1475 -1.0040
 3835TIP3   OH232919   5.038   4.441   0.592  0.2328 -0.2207 -0.1705
 3835TIP3    H132920   4.981   4.365   0.604 -0.6243  0.5998  1.0840
 3835TIP3    H232921   5.127   4.404   0.593 -0.1600 -1.1664  0.8274
 3836TIP3   OH232922   5.090   1.882  17.228 -0.5317 -0.4311 -0.5755
 3836TIP3    H132923   5.150   1.906  17.158 -0.3756 -1.1895 -0.7124
 3836TIP3    H232924   5.140   1.822  17.283 -0.1951  1.2203  0.9663
 3837TIP3   OH232925   6.782   1.136  13.257  0.2611 -0.0996  0.3467
 3837TIP3    H132926   6.850   1.194  13.293  0.5523 -0.7078  0.7965
 3837TIP3    H232927   6.786   1.150  13.163  1.2673 -0.3884  0.3365
 3838TIP3   OH232928   5.125   5.004   4.927  0.0366  0.0565  1.3368
 3838TIP3    H132929   5.186   4.957   4.871 -2.4230 -0.5159 -1.0063
 3838TIP3    H232930   5.167   5.089   4.943  1.4764 -0.3530 -0.1404
 3839TIP3   OH232931   5.923   2.210  13.849  0.1953  0.3970 -0.4021
 3839TIP3    H132932   5.882   2.140  13.797  1.2361 -0.6172  0.1072
 3839TIP3    H232933   5.874   2.210  13.931 -0.5682  1.0694 -0.8562
 3840TIP3   OH232934   2.661   4.992  16.504  0.3050 -0.0279 -0.6149
 3840TIP3    H132935   2.572   5.013  16.477  0.3200  0.9844  0.0970
 3840TIP3    H232936   2.653   4.910  16.553 -0.2169 -0.0165 -0.6812
 3841TIP3   OH232937   2.761   5.289   4.608  0.4640 -0.2145 -0.6944
 3841TIP3    H132938   2.834   5.284   4.545  0.3520 -1.1728 -0.7427
 3841TIP3    H232939   2.798   5.258   4.690  0.4242  0.4082 -0.4390
 3842TIP3   OH232940   6.030   0.851  16.594  0.2986 -0.5758  0.3946
 3842TIP3    H132941   6.008   0.839  16.502 -0.0713 -2.4823  0.7131
 3842TIP3    H232942   5.945   0.848  16.640  0.7159 -2.4876  1.0688
 3843TIP3   OH232943   0.282   3.277   4.962 -0.0249 -0.3799  0.3614
 3843TIP3    H132944   0.210   3.213   4.954 -0.5235  0.2034  0.1262
 3843TIP3    H232945   0.350   3.230   5.010  0.0330 -1.4459 -0.7345
 3844TIP3   OH232946   1.425   1.903   5.171  0.2058 -0.4200  0.2425
 3844TIP3    H132947   1.448   1.910   5.264  0.2175 -0.1211  0.2168
 3844TIP3    H232948   1.479   1.969   5.128 -0.0806 -0.2996  0.0713
 3845TIP3   OH232949   4.891   6.145  14.285 -0.2099 -0.0525 -0.1732
 3845TIP3    H132950   4.907   6.155  14.191  0.0810  0.8606 -0.0300
 3845TIP3    H232951   4.892   6.234  14.319 -0.1028 -0.3988  0.7371
 3846TIP3   OH232952   1.058   3.112   2.132  0.4592  0.5555 -0.2625
 3846TIP3    H132953   1.126   3.115   2.199  0.2382 -0.0633 -0.0045
 3846TIP3    H232954   1.097   3.065   2.059 -0.2067 -1.2190  0.4963
 3847TIP3   OH232955   5.577   3.701   3.667  0.0120 -0.2297  0.7244
 3847TIP3    H132956   5.523   3.744   3.601  0.8119 -0.1876  0.0889
 3847TIP3    H232957   5.563   3.752   3.746 -0.4442  0.1156  0.4277
 3848TIP3   OH232958   2.826   3.706  11.204  0.0417  0.6119 -0.3754
 3848TIP3    H132959   2.810   3.639  11.271 -0.0588 -0.4710 -1.4529
 3848TIP3    H232960   2.807   3.789  11.247  0.7450 -0.0218  1.1660
 3849TIP3   OH232961   4.518   2.584   2.998  0.0890 -0.1595 -0.4315
 3849TIP3    H132962   4.575   2.518   2.959 -0.1346 -1.3169  1.1599
 3849TIP3    H232963   4.550   2.668   2.963  0.7592 -1.0490 -1.9860
 3850TIP3   OH232964   6.063   0.457  15.491  0.2590 -0.6127  0.4644
 3850TIP3    H132965   6.126   0.524  15.517  0.4620  0.0765 -1.6628
 3850TIP3    H232966   6.000   0.453  15.563  1.5378  0.2238  1.6331
 3851TIP3   OH232967   2.017   4.158   3.324 -0.1909  0.3324  0.0157
 3851TIP3    H132968   2.043   4.249   3.340  1.9436 -0.3775  0.7494
 3851TIP3    H232969   2.061   4.134   3.243 -0.8075 -0.0404 -0.2154
 3852TIP3   OH232970   6.332   5.520  14.823 -0.8404 -0.1748 -0.2982
 3852TIP3    H132971   6.266   5.499  14.890 -0.2868  1.1018  0.6734
 3852TIP3    H232972   6.281   5.528  14.742 -1.9065  0.8192  0.4394
 3853TIP3   OH232973   3.869   4.246   2.256 -0.0698 -0.3623  0.3010
 3853TIP3    H132974   3.942   4.229   2.315  1.1443 -1.3148 -1.4580
 3853TIP3    H232975   3.795   4.201   2.297  0.9145 -1.5855  0.7864
 3854TIP3   OH232976   1.745   5.511  11.880  0.2066  0.3375  0.0259
 3854TIP3    H132977   1.831   5.522  11.840  0.3312 -0.9797 -0.1035
 3854TIP3    H232978   1.683   5.526  11.809  0.3468  0.7802 -0.0018
 3855TIP3   OH232979   5.773   4.012   1.558  0.0391 -0.0436 -0.3728
 3855TIP3    H132980   5.774   3.924   1.596 -0.0830  0.7501  1.5539
 3855TIP3    H232981   5.840   4.060   1.609 -2.7002  2.0703  1.3753
 3856TIP3   OH232982   3.238   0.459   6.337 -0.1758  0.4851 -0.4615
 3856TIP3    H132983   3.311   0.417   6.382  0.0876  1.7799  0.3258
 3856TIP3    H232984   3.187   0.500   6.406 -1.4317 -0.0505 -1.0484
 3857TIP3   OH232985   2.251   2.089  15.529 -0.4213  0.1725 -0.3145
 3857TIP3    H132986   2.270   2.114  15.619  0.1683  0.3387 -0.4813
 3857TIP3    H232987   2.275   1.996  15.525 -2.5680 -0.4469  0.2928
 3858TIP3   OH232988   6.732   5.234  14.649  0.0074 -0.4681 -0.7568
 3858TIP3    H132989   6.756   5.146  14.677  1.1505  0.5085  1.4287
 3858TIP3    H232990   6.701   5.223  14.559  0.7148 -2.9977 -0.7217
 3859TIP3   OH232991   0.855   4.730  13.393 -0.4348  0.0323 -0.1425
 3859TIP3    H132992   0.790   4.715  13.325 -2.4713 -0.3924  1.8467
 3859TIP3    H232993   0.859   4.647  13.441  0.9468  0.3395  0.2959
 3860TIP3   OH232994   1.342   5.711  16.805  0.2614 -0.5396 -0.0121
 3860TIP3    H132995   1.385   5.767  16.739 -1.0868  0.1180 -0.3519
 3860TIP3    H232996   1.298   5.644  16.754 -0.4927 -0.2358  0.2268
 3861TIP3   OH232997   5.583   2.953   0.580  0.2761 -0.4888 -0.1266
 3861TIP3    H132998   5.647   3.022   0.564  0.2008 -0.2074  0.8092
 3861TIP3    H232999   5.557   2.924   0.492 -0.4951  1.3970 -0.5491
 3862TIP3   OH233000   0.756   5.889   0.415  0.2916 -0.8462  0.5547
 3862TIP3    H133001   0.715   5.890   0.501 -0.4300 -1.3983  0.2276
 3862TIP3    H233002   0.734   5.973   0.376  0.6260 -0.5946  0.9146
 3863TIP3   OH233003   3.711   5.700   6.170 -0.2769 -0.2675 -0.0152
 3863TIP3    H133004   3.663   5.619   6.189 -0.6623  0.0393  0.3318
 3863TIP3    H233005   3.783   5.700   6.233 -1.6187  0.8038  1.5332
 3864TIP3   OH233006   5.855   3.320  14.119  0.3286  0.1105 -0.1209
 3864TIP3    H133007   5.823   3.261  14.052  0.9238 -0.2908 -0.0560
 3864TIP3    H233008   5.863   3.405  14.075 -1.6405  0.4240  0.0887
 3865TIP3   OH233009   2.666   5.839   5.996 -0.2620  0.1220 -0.1064
 3865TIP3    H133010   2.587   5.842   6.050 -0.8454 -0.6873 -0.8991
 3865TIP3    H233011   2.656   5.760   5.943  1.0314  0.0719 -0.2946
 3866TIP3   OH233012   4.995   2.642  15.728 -0.1386 -0.1588 -0.5107
 3866TIP3    H133013   4.931   2.598  15.784 -0.1240 -0.5945 -0.8300
 3866TIP3    H233014   4.942   2.686  15.661 -0.0393 -2.0665 -1.8825
 3867TIP3   OH233015   5.223   0.856  16.006  0.7463  0.1828 -0.0518
 3867TIP3    H133016   5.241   0.764  16.027  1.8845 -0.1912 -2.5318
 3867TIP3    H233017   5.301   0.887  15.960 -0.4776  1.7636 -1.1560
 3868TIP3   OH233018   5.404   6.684  15.749 -0.4536 -0.5284  0.4587
 3868TIP3    H133019   5.456   6.717  15.676 -0.5964 -0.1683  0.5164
 3868TIP3    H233020   5.420   6.590  15.749  1.1778 -0.2781  1.2353
 3869TIP3   OH233021   1.639   5.707  12.612  0.1635  0.4538  0.6103
 3869TIP3    H133022   1.574   5.640  12.634 -2.3862  2.2058 -1.2530
 3869TIP3    H233023   1.662   5.687  12.521 -0.1469  1.7349  0.2502
 3870TIP3   OH233024   5.127   0.703   1.556  0.0963 -0.0380  0.5906
 3870TIP3    H133025   5.171   0.713   1.641  0.1675 -1.6410  0.7496
 3870TIP3    H233026   5.188   0.652   1.503 -1.0299 -1.2319  0.4157
 3871TIP3   OH233027   3.483   1.650  15.188 -0.1960  0.3952  0.4077
 3871TIP3    H133028   3.457   1.558  15.191  0.0604  0.3378  0.8303
 3871TIP3    H233029   3.463   1.684  15.275  0.2879  0.5883  0.4412
 3872TIP3   OH233030   4.799   4.465   3.815  0.1471 -0.3039  0.5246
 3872TIP3    H133031   4.804   4.498   3.725 -0.5669  1.3192  1.0530
 3872TIP3    H233032   4.880   4.495   3.856  1.0022 -2.0233  0.1227
 3873TIP3   OH233033   5.380   0.037   3.667  0.6172 -0.3357  0.4985
 3873TIP3    H133034   5.329   0.074   3.595 -0.3852  0.1182  1.4273
 3873TIP3    H233035   5.319   0.036   3.742  1.2647 -1.9180  1.0290
 3874TIP3   OH233036   2.574   3.099  12.709 -0.4196 -0.7476 -0.6394
 3874TIP3    H133037   2.623   3.041  12.767 -0.8860 -0.2478  0.2659
 3874TIP3    H233038   2.606   3.078  12.622  0.0080 -1.7807 -0.2408
 3875TIP3   OH233039   4.784   3.470   4.910 -0.5984 -0.1904 -0.7136
 3875TIP3    H133040   4.771   3.456   5.004  1.9057 -2.4185 -0.6464
 3875TIP3    H233041   4.800   3.564   4.902  1.2846 -0.3070  1.3604
 3876TIP3   OH233042   1.334   5.469   4.099 -0.7014 -0.2448  0.5478
 3876TIP3    H133043   1.353   5.404   4.031  1.4675  1.0858 -0.1770
 3876TIP3    H233044   1.348   5.553   4.055 -1.9145  0.6952  1.9203
 3877TIP3   OH233045   3.019   3.556   3.155 -0.1097  0.4937 -0.6182
 3877TIP3    H133046   3.011   3.498   3.079  0.8662  1.4093 -1.4318
 3877TIP3    H233047   3.105   3.537   3.191 -0.4767  0.2313  0.1371
 3878TIP3   OH233048   1.229   4.703  16.105 -0.1388  0.1839 -0.8720
 3878TIP3    H133049   1.308   4.686  16.054 -0.7668  0.9784 -2.1430
 3878TIP3    H233050   1.236   4.795  16.130  0.0220 -0.1233  0.2457
 3879TIP3   OH233051   1.458   3.960  16.648 -0.7547  0.3597 -0.0092
 3879TIP3    H133052   1.382   3.929  16.599 -0.8293 -0.3747  0.5679
 3879TIP3    H233053   1.464   4.053  16.625 -3.1202  0.9632  1.5816
 3880TIP3   OH233054   2.664   6.499   3.995 -0.1919  0.0583 -0.3557
 3880TIP3    H133055   2.684   6.592   3.994 -0.1263  0.0534 -2.3235
 3880TIP3    H233056   2.739   6.458   3.950 -1.3430 -0.6688 -1.6622
 3881TIP3   OH233057   0.597   2.303  17.041 -0.2075  0.1771  0.3571
 3881TIP3    H133058   0.513   2.343  17.065 -0.0433  1.0614 -0.5378
 3881TIP3    H233059   0.584   2.274  16.950  0.4458  0.2780  0.2338
 3882TIP3   OH233060   1.517   0.352  15.482  0.0172 -0.7408 -0.1247
 3882TIP3    H133061   1.474   0.395  15.408  3.1028  1.0659 -0.9252
 3882TIP3    H233062   1.515   0.417  15.552 -0.1176 -1.2989  0.3922
 3883TIP3   OH233063   1.054   4.712   4.411 -0.4082  0.1970 -0.3669
 3883TIP3    H133064   1.138   4.673   4.386  0.1818  0.4174  1.2123
 3883TIP3    H233065   1.077   4.795   4.452 -1.2959 -0.2673  1.1268
 3884TIP3   OH233066   2.439   0.155  14.706 -0.3628 -0.7423 -0.1653
 3884TIP3    H133067   2.454   0.085  14.643 -2.7816 -1.0199 -0.4894
 3884TIP3    H233068   2.407   0.111  14.785  0.2018 -0.1683  0.4057
 3885TIP3   OH233069   3.068   2.505  14.880  0.6452  0.4531  0.3421
 3885TIP3    H133070   3.010   2.436  14.847  0.6572  0.4049  0.4197
 3885TIP3    H233071   3.070   2.491  14.975  0.0784  0.9954  0.4364
 3886TIP3   OH233072   6.055   0.074  15.291 -0.0998 -0.2584 -0.1836
 3886TIP3    H133073   6.050   0.156  15.242 -1.2199 -0.5653 -0.5874
 3886TIP3    H233074   6.139   0.079  15.337 -0.0008  0.9567 -0.4828
 3887TIP3   OH233075   2.237   1.633   4.473  0.4163  0.7204  0.4576
 3887TIP3    H133076   2.278   1.696   4.532 -0.4455  0.6726  1.1237
 3887TIP3    H233077   2.146   1.626   4.504  0.0498  0.4087 -0.6380
 3888TIP3   OH233078   2.417   1.798  16.966  0.0261  0.5900  0.7671
 3888TIP3    H133079   2.452   1.721  17.011  0.8524  0.4715 -0.0814
 3888TIP3    H233080   2.360   1.762  16.898  0.7203  0.7122  0.1147
 3889TIP3   OH233081   5.477   1.324  16.318  0.1227  0.6441  0.0789
 3889TIP3    H133082   5.559   1.291  16.354  0.8380  1.5855 -0.6623
 3889TIP3    H233083   5.503   1.377  16.243 -0.9227  3.3005  1.5008
 3890TIP3   OH233084   0.313   5.301   0.307 -0.2585  0.0520  0.1899
 3890TIP3    H133085   0.266   5.265   0.382  1.1931 -0.8197  0.6955
 3890TIP3    H233086   0.299   5.238   0.236  0.1161 -0.1896  0.3304
 3891TIP3   OH233087   5.159   5.988  14.791 -0.0064  0.4754 -0.8404
 3891TIP3    H133088   5.239   6.041  14.791 -0.3231  0.9517 -0.2610
 3891TIP3    H233089   5.149   5.962  14.699  0.9750  0.1647 -0.8659
 3892TIP3   OH233090   4.792   4.505   5.861 -0.4592  0.3904 -0.1718
 3892TIP3    H133091   4.759   4.463   5.941 -1.2954  1.0715 -0.1565
 3892TIP3    H233092   4.831   4.586   5.891 -1.0700  0.8049 -0.4885
 3893TIP3   OH233093   1.767   5.267   5.728  0.0763  0.5306 -0.2168
 3893TIP3    H133094   1.816   5.345   5.703  0.0155  0.6100 -0.0874
 3893TIP3    H233095   1.772   5.265   5.824  0.6290  0.0246 -0.2487
 3894TIP3   OH233096   3.893   4.184  13.609 -0.2296 -0.3975 -0.1511
 3894TIP3    H133097   3.846   4.147  13.534 -0.1418 -0.2349 -0.2873
 3894TIP3    H233098   3.903   4.276  13.588 -1.3918 -0.0772  0.6702
 3895TIP3   OH233099   3.857   5.537   4.400  0.1888  0.3388 -0.2301
 3895TIP3    H133100   3.800   5.612   4.381 -0.4667 -0.1201 -0.1114
 3895TIP3    H233101   3.841   5.476   4.328  0.0325 -0.0714  0.1473
 3896TIP3   OH233102   4.421   0.770  17.160 -0.3853 -0.1582  0.1036
 3896TIP3    H133103   4.444   0.680  17.183 -1.3598 -0.8214 -1.4286
 3896TIP3    H233104   4.328   0.766  17.134 -0.6541  1.4177  0.7323
 3897TIP3   OH233105   3.932   0.903   1.379  0.0685  0.5001  0.4119
 3897TIP3    H133106   3.977   0.982   1.351  0.7157  0.4229  1.2052
 3897TIP3    H233107   3.853   0.935   1.423 -0.3140  0.6581 -0.3836
 3898TIP3   OH233108   1.752   5.273   0.317  0.6893 -0.2680 -0.8036
 3898TIP3    H133109   1.727   5.325   0.392 -0.0339 -0.8610 -0.6362
 3898TIP3    H233110   1.839   5.307   0.292  0.4186  0.7033 -0.4297
 3899TIP3   OH233111   6.486   4.529  13.150 -0.5263  0.3315 -0.5087
 3899TIP3    H133112   6.538   4.457  13.114  0.3001  1.3290 -1.3337
 3899TIP3    H233113   6.547   4.602  13.156 -1.5961  1.2418 -0.5870
 3900TIP3   OH233114   5.631   1.832   4.401  0.2670  0.2396  0.0992
 3900TIP3    H133115   5.610   1.921   4.372  0.0836  0.2902  0.3800
 3900TIP3    H233116   5.726   1.828   4.399  0.3077  0.7393  0.9512
 3901TIP3   OH233117   2.945   2.445   3.453  0.1649 -0.5708 -0.1737
 3901TIP3    H133118   2.971   2.500   3.379 -0.3521  0.6938  0.5594
 3901TIP3    H233119   2.853   2.424   3.437  0.0951 -0.4233  0.0260
 3902TIP3   OH233120   6.254   5.689   4.998  0.1086  0.0112  0.2958
 3902TIP3    H133121   6.185   5.682   5.063 -0.3123  0.1523 -0.1347
 3902TIP3    H233122   6.321   5.743   5.040 -0.8027  1.3301  0.0647
 3903TIP3   OH233123   4.646   5.159  15.285 -0.3598  0.2139  0.4302
 3903TIP3    H133124   4.709   5.228  15.265 -0.5352 -0.1813 -1.6039
 3903TIP3    H233125   4.611   5.183  15.370  2.6599  0.3506  1.6963
 3904TIP3   OH233126   1.860   0.287  11.296 -0.4269 -0.0905  0.8449
 3904TIP3    H133127   1.783   0.252  11.343  0.2748 -1.7222  0.8252
 3904TIP3    H233128   1.861   0.239  11.213 -0.4819  1.3201  0.0177
 3905TIP3   OH233129   0.363   4.588  15.317 -0.0888  0.3151 -0.4201
 3905TIP3    H133130   0.341   4.508  15.364 -0.4173  0.2846 -0.6280
 3905TIP3    H233131   0.338   4.571  15.226 -2.1283  1.4135 -0.0930
 3906TIP3   OH233132   3.438   6.168  15.455  0.2713 -0.4281  0.5954
 3906TIP3    H133133   3.515   6.112  15.458  1.1118  0.7687  1.6717
 3906TIP3    H233134   3.423   6.183  15.362  1.3722 -0.6085  0.3857
 3907TIP3   OH233135   2.115   4.859   2.868  0.3175  0.0404  0.0374
 3907TIP3    H133136   2.023   4.863   2.893  0.1109  1.2630 -0.8533
 3907TIP3    H233137   2.115   4.871   2.773  1.4124  0.3193  0.0627
 3908TIP3   OH233138   0.189   1.595   0.580 -0.0503 -0.3739 -0.1322
 3908TIP3    H133139   0.160   1.581   0.490  1.0797 -0.0111 -0.5610
 3908TIP3    H233140   0.145   1.527   0.631  1.9380 -2.7603 -1.4748
 3909TIP3   OH233141   5.162   3.204  15.020 -0.2017  0.0299 -0.0379
 3909TIP3    H133142   5.156   3.161  14.935 -1.0553 -1.5500  0.8087
 3909TIP3    H233143   5.118   3.288  15.007  0.7056  0.3077 -1.4648
 3910TIP3   OH233144   3.348   2.992  15.372 -0.1525 -0.5316  0.0744
 3910TIP3    H133145   3.441   2.986  15.350 -0.5542  0.7136 -2.1187
 3910TIP3    H233146   3.321   2.901  15.388  1.4972 -0.8615  1.0765
 3911TIP3   OH233147   6.683   2.308  14.848 -0.3562 -0.0195 -0.0948
 3911TIP3    H133148   6.627   2.353  14.911  0.7836  1.4874 -0.1180
 3911TIP3    H233149   6.637   2.226  14.828 -1.2369 -0.0333  1.8902
 3912TIP3   OH233150   6.683   6.252   3.984 -0.0992 -0.0075  0.1602
 3912TIP3    H133151   6.627   6.314   4.031 -1.0626 -0.5209 -0.2948
 3912TIP3    H233152   6.703   6.295   3.901  0.1123  0.1380  0.2858
 3913TIP3   OH233153   0.742   3.334  13.329 -0.1204  1.1954  0.3261
 3913TIP3    H133154   0.797   3.256  13.342  2.2813  2.7993  0.2340
 3913TIP3    H233155   0.664   3.318  13.382  1.1974 -0.4469  1.8489
 3914TIP3   OH233156   0.178   5.773   4.518 -0.5198  0.1486  0.6002
 3914TIP3    H133157   0.084   5.773   4.499 -0.2270  0.2479 -0.9498
 3914TIP3    H233158   0.218   5.737   4.439  0.6624 -1.0499  1.7210
 3915TIP3   OH233159   3.976   5.117   3.596  0.0231  0.3660  0.2068
 3915TIP3    H133160   3.902   5.178   3.595 -0.6487 -0.4324  0.5444
 3915TIP3    H233161   4.041   5.160   3.652  0.2645  1.5796 -0.9654
 3916TIP3   OH233162   0.386   0.589   0.174  0.2880  0.8683  0.1741
 3916TIP3    H133163   0.369   0.568   0.266 -0.2962 -2.1886 -0.5508
 3916TIP3    H233164   0.309   0.555   0.128  1.4137  0.7322 -1.6251
 3917TIP3   OH233165   1.237   6.718   6.175 -0.7653 -0.3215 -0.0291
 3917TIP3    H133166   1.168   6.654   6.157  0.0509 -1.1708 -0.1361
 3917TIP3    H233167   1.254   6.709   6.269 -0.4619 -0.4499 -0.0966
 3918TIP3   OH233168   3.713   6.157  16.399  0.2770  0.3263 -0.7519
 3918TIP3    H133169   3.649   6.184  16.465  0.4050 -0.3216 -0.3473
 3918TIP3    H233170   3.682   6.196  16.317  0.1559  1.1983 -0.2931
 3919TIP3   OH233171   3.790   0.205   5.378  0.0533  0.3298 -0.1023
 3919TIP3    H133172   3.778   0.270   5.309  0.7665  1.6917  1.0338
 3919TIP3    H233173   3.879   0.218   5.409 -0.9689  1.2548  2.5877
 3920TIP3   OH233174   5.211   3.706  13.632 -0.5874  0.1461  0.2171
 3920TIP3    H133175   5.141   3.643  13.650  1.1655 -2.1635 -0.7325
 3920TIP3    H233176   5.290   3.652  13.624  0.7000  2.2771 -2.2793
 3921TIP3   OH233177   5.411   4.348  11.873  0.2836  0.3733  0.0862
 3921TIP3    H133178   5.466   4.347  11.952  2.6327 -0.0327 -1.4985
 3921TIP3    H233179   5.386   4.256  11.860 -0.6504  0.5371  0.7254
 3922TIP3   OH233180   3.059   2.790  10.933 -0.0923 -0.1535  0.4509
 3922TIP3    H133181   3.101   2.719  10.884 -0.9501 -0.8076  0.6507
 3922TIP3    H233182   3.087   2.777  11.024  3.0058  2.1503 -0.0866
 3923TIP3   OH233183   2.919   1.885   5.913 -0.0322 -0.5052  0.3138
 3923TIP3    H133184   3.011   1.862   5.897  0.1258  1.0783 -1.1092
 3923TIP3    H233185   2.923   1.971   5.955 -0.8834 -0.1840 -0.2606
 3924TIP3   OH233186   3.072   2.455   0.857  0.1735  0.4362 -0.1941
 3924TIP3    H133187   3.072   2.464   0.761  0.6154 -0.5937 -0.2967
 3924TIP3    H233188   2.981   2.437   0.879  0.0257  0.9280 -0.3974
 3925TIP3   OH233189   1.096   1.467  13.483 -0.0084 -0.0164  0.0763
 3925TIP3    H133190   1.144   1.500  13.407  0.3496  0.9454  0.7049
 3925TIP3    H233191   1.043   1.396  13.449  0.6851 -0.0625 -0.9383
 3926TIP3   OH233192   6.253   6.271  16.953 -0.0702 -0.2282  0.3037
 3926TIP3    H133193   6.162   6.249  16.973  0.0216  0.1540  1.1516
 3926TIP3    H233194   6.249   6.315  16.868 -0.3977 -2.4189 -0.8603
 3927TIP3   OH233195   5.631   5.769   3.101 -0.0133  0.4348 -0.3674
 3927TIP3    H133196   5.701   5.832   3.119 -0.0190  1.0010 -2.2053
 3927TIP3    H233197   5.575   5.814   3.037 -0.6789 -0.9568 -0.7691
 3928TIP3   OH233198   1.332   4.661   0.605 -0.7436  0.2514  0.0698
 3928TIP3    H133199   1.393   4.674   0.532 -1.4642  0.1523 -0.5608
 3928TIP3    H233200   1.370   4.589   0.655  0.2431  0.9367  0.3283
 3929TIP3   OH233201   5.691   5.624   2.290 -0.0949 -0.4298  0.1368
 3929TIP3    H133202   5.604   5.602   2.325 -0.4731 -0.1509 -0.6188
 3929TIP3    H233203   5.744   5.642   2.368 -1.2086  1.2062  0.5547
 3930TIP3   OH233204   5.091   1.401  11.882 -0.5695 -0.1504 -0.3648
 3930TIP3    H133205   5.128   1.489  11.884  0.2758 -0.4999 -0.6093
 3930TIP3    H233206   5.087   1.374  11.974 -0.0772 -0.1699 -0.3475
 3931TIP3   OH233207   3.654   1.065   1.156  0.3401 -0.0177  0.1385
 3931TIP3    H133208   3.596   0.990   1.139  0.3479  0.1410 -0.6039
 3931TIP3    H233209   3.646   1.119   1.078  0.6591  0.5506  0.5006
 3932TIP3   OH233210   5.503   4.850  17.127  0.0967 -0.1242  0.4064
 3932TIP3    H133211   5.574   4.809  17.079  0.3791  1.1333 -0.2742
 3932TIP3    H233212   5.491   4.795  17.205  1.8043 -0.3349  0.5248
 3933TIP3   OH233213   0.829   5.478   1.310  0.3298 -0.4304 -0.2697
 3933TIP3    H133214   0.809   5.389   1.282 -0.5612 -0.1508 -0.5088
 3933TIP3    H233215   0.906   5.468   1.367  0.0599 -1.3818 -0.0671
 3934TIP3   OH233216   3.574   6.001  11.825 -0.3536  0.2959 -0.1490
 3934TIP3    H133217   3.623   5.921  11.807 -1.2946 -0.1653 -0.7020
 3934TIP3    H233218   3.493   5.992  11.774 -0.7805  1.2817  0.3323
 3935TIP3   OH233219   0.818   2.303  15.627  0.1724 -0.1632 -0.6701
 3935TIP3    H133220   0.805   2.368  15.558  0.9909  2.2499  1.3702
 3935TIP3    H233221   0.733   2.297  15.670  1.0499  2.6014  1.6329
 3936TIP3   OH233222   2.798   3.094  10.194 -0.3884  0.4207 -0.1988
 3936TIP3    H133223   2.773   3.168  10.251 -0.0489  0.4796 -0.1255
 3936TIP3    H233224   2.728   3.089  10.129  0.1155  1.4924 -0.8482
 3937TIP3   OH233225   2.776   3.234   2.947 -0.0125 -0.2917  0.1766
 3937TIP3    H133226   2.685   3.232   2.918 -0.1557  1.0434  0.5148
 3937TIP3    H233227   2.772   3.234   3.042  0.3082  0.5290  0.1989
 3938TIP3   OH233228   1.176   6.493   3.740  0.3460  0.4076 -0.1411
 3938TIP3    H133229   1.130   6.555   3.797  1.8731  1.6945 -0.2779
 3938TIP3    H233230   1.223   6.548   3.678  2.7956 -0.8271  0.5596
 3939TIP3   OH233231   0.827   1.394  10.944 -0.4447  0.0508  0.1800
 3939TIP3    H133232   0.876   1.449  10.884 -1.1374  2.3890  1.7005
 3939TIP3    H233233   0.891   1.331  10.977  0.1218 -0.7137 -2.3183
 3940TIP3   OH233234   2.024   5.660   5.823 -0.9853  0.1746  0.1843
 3940TIP3    H133235   2.002   5.623   5.909 -0.4641 -0.5483  0.0113
 3940TIP3    H233236   2.087   5.729   5.842  0.7038 -1.3483  0.2164
 3941TIP3   OH233237   6.646   3.488   3.453  0.7729  0.3142  0.1420
 3941TIP3    H133238   6.650   3.404   3.499  0.8631  1.0058  1.4458
 3941TIP3    H233239   6.643   3.465   3.360 -0.2613 -1.1554  0.5181
 3942TIP3   OH233240   5.582   6.041  14.682  0.4830  0.0654 -0.5877
 3942TIP3    H133241   5.594   6.053  14.588 -3.6011  0.2671 -1.1676
 3942TIP3    H233242   5.492   6.009  14.691  1.1925 -1.1719  3.1766
 3943TIP3   OH233243   3.181   3.974   0.795 -0.1535  0.0438  0.7412
 3943TIP3    H133244   3.143   3.985   0.708 -0.4174 -0.3488  0.8077
 3943TIP3    H233245   3.241   4.048   0.804 -0.8696  0.6396  0.6237
 3944TIP3   OH233246   4.848   2.717   5.278  1.0356  0.0817 -0.8899
 3944TIP3    H133247   4.774   2.775   5.260  1.1282  0.1177 -1.1532
 3944TIP3    H233248   4.835   2.643   5.219  0.9285 -0.1599 -0.5715
 3945TIP3   OH233249   6.355   0.055  14.763  0.2528 -0.3105  0.0860
 3945TIP3    H133250   6.268   0.058  14.803  0.8506  1.3116  1.3016
 3945TIP3    H233251   6.416   0.054  14.837  1.3028 -0.1645 -0.7615
 3946TIP3   OH233252   6.713   0.481   1.206  0.5295  0.4461  0.4876
 3946TIP3    H133253   6.775   0.465   1.135 -0.7549 -1.6932 -0.1966
 3946TIP3    H233254   6.689   0.573   1.197  1.1067  0.4438 -1.2706
 3947TIP3   OH233255   3.715   2.539   4.613  0.1467  0.1394  0.2228
 3947TIP3    H133256   3.621   2.553   4.627 -0.3127 -0.6959 -1.7957
 3947TIP3    H233257   3.745   2.496   4.693 -1.0859  0.8350  1.0897
 3948TIP3   OH233258   2.095   6.102   2.390  0.7965 -0.4238 -0.2197
 3948TIP3    H133259   2.108   6.110   2.296  0.0451 -3.8144 -0.6810
 3948TIP3    H233260   2.180   6.074   2.424  0.1993 -2.5341 -0.3996
 3949TIP3   OH233261   1.324   1.035   3.011 -0.2229  0.5791 -0.7367
 3949TIP3    H133262   1.273   1.108   3.046 -1.6663  0.0184 -1.5785
 3949TIP3    H233263   1.332   1.054   2.917  0.6545  0.3854 -0.7088
 3950TIP3   OH233264   3.559   5.913   6.000  0.0576 -0.0039 -0.1403
 3950TIP3    H133265   3.603   5.988   6.040  1.3759 -0.4986 -0.6472
 3950TIP3    H233266   3.584   5.838   6.054 -1.4650 -0.0641  0.5179
 3951TIP3   OH233267   2.857   5.687   2.325 -0.0199 -0.3249  0.1819
 3951TIP3    H133268   2.918   5.663   2.256 -0.0383  0.3723 -0.0788
 3951TIP3    H233269   2.892   5.768   2.362 -0.5930 -0.1074  0.2621
 3952TIP3   OH233270   6.256   6.739   3.624 -0.6806 -0.2892  0.0706
 3952TIP3    H133271   6.167   6.711   3.605 -0.6304 -0.1105 -0.4164
 3952TIP3    H233272   6.295   6.757   3.539 -0.7919  1.5247  0.3663
 3953TIP3   OH233273   3.172   5.174  15.703 -0.7708 -0.0246  0.3546
 3953TIP3    H133274   3.207   5.139  15.785 -0.6843 -0.7003  0.0293
 3953TIP3    H233275   3.183   5.269  15.711 -0.9652 -0.0723  1.2169
 3954TIP3   OH233276   5.512   3.049  16.577 -0.4297 -0.6054  0.0008
 3954TIP3    H133277   5.517   3.052  16.672  0.7351 -0.1801 -0.0677
 3954TIP3    H233278   5.517   3.140  16.549 -1.3051 -0.6857 -0.4553
 3955TIP3   OH233279   3.146   0.056   2.291 -0.2531  0.2490 -0.4723
 3955TIP3    H133280   3.066   0.033   2.340  1.4243  0.2940  2.4050
 3955TIP3    H233281   3.179   0.135   2.335  1.6689 -0.0626 -1.3018
 3956TIP3   OH233282   3.247   5.936  12.888  0.1807 -0.4482 -0.4111
 3956TIP3    H133283   3.297   5.881  12.828  0.0888 -0.2721 -0.6458
 3956TIP3    H233284   3.173   5.967  12.837 -0.0053 -0.4604 -0.1506
 3957TIP3   OH233285   0.658   2.150   4.122 -0.2320 -0.2552  0.3537
 3957TIP3    H133286   0.610   2.142   4.040  0.5355  1.0919 -0.2590
 3957TIP3    H233287   0.594   2.184   4.185 -0.7566 -1.0468  0.2498
 3958TIP3   OH233288   2.699   5.309  13.513  0.5015 -0.0412  0.2792
 3958TIP3    H133289   2.685   5.385  13.569  0.6741  1.2542 -1.3789
 3958TIP3    H233290   2.740   5.243  13.569  0.2886  1.0726  1.7460
 3959TIP3   OH233291   1.660   5.663  16.657 -0.7450 -0.2308 -0.0276
 3959TIP3    H133292   1.726   5.595  16.642 -1.0321 -0.4067 -0.5329
 3959TIP3    H233293   1.693   5.713  16.731  0.4967  0.3439 -0.9440
 3960TIP3   OH233294   3.613   0.752  15.085  0.1510 -0.4895  0.7758
 3960TIP3    H133295   3.547   0.789  15.027  1.7562 -0.1028 -0.8319
 3960TIP3    H233296   3.600   0.657  15.079  0.4312 -0.4589 -0.3760
 3961TIP3   OH233297   1.675   5.062  10.999 -0.3040 -0.0539  0.3802
 3961TIP3    H133298   1.659   5.146  10.956  0.0970 -0.1133  0.1163
 3961TIP3    H233299   1.757   5.031  10.962 -0.5844 -0.6876  0.2859
 3962TIP3   OH233300   0.208   0.061  12.512 -0.7528 -0.2695  0.6220
 3962TIP3    H133301   0.129   0.099  12.472 -1.8973 -1.7993  1.3847
 3962TIP3    H233302   0.185  -0.030  12.529  1.8780 -1.3228 -1.0262
 3963TIP3   OH233303   2.963   6.170   1.012 -0.1783 -0.1177  0.4837
 3963TIP3    H133304   3.036   6.231   1.012 -0.0064 -0.3156 -0.0727
 3963TIP3    H233305   2.885   6.226   1.004 -0.0987  0.0996  1.2233
 3964TIP3   OH233306   3.923   2.139   4.116 -0.6368  0.3655 -0.1240
 3964TIP3    H133307   4.018   2.145   4.124 -0.5209  0.4999 -1.3904
 3964TIP3    H233308   3.891   2.226   4.139 -0.3320  0.7437 -1.0862
 3965TIP3   OH233309   4.751   1.890   3.635  0.2347  0.2499 -0.1721
 3965TIP3    H133310   4.731   1.876   3.543 -1.5736  0.1968  0.2079
 3965TIP3    H233311   4.668   1.920   3.674  1.3980  1.9036  1.0991
 3966TIP3   OH233312   1.881   1.709   3.099  0.5591  0.2694 -0.5386
 3966TIP3    H133313   1.889   1.736   3.191 -1.2876  1.0648 -0.5869
 3966TIP3    H233314   1.947   1.641   3.088  0.0924 -0.6018  1.6871
 3967TIP3   OH233315   1.690   4.765  15.599  0.1267  0.1896 -0.0595
 3967TIP3    H133316   1.631   4.834  15.569  1.0111  1.8847  1.9586
 3967TIP3    H233317   1.734   4.735  15.520 -1.9198  0.3400 -1.2920
 3968TIP3   OH233318   1.502   6.423   3.658  0.2570 -0.5905  0.2745
 3968TIP3    H133319   1.447   6.488   3.613  1.7462  1.4169  1.2747
 3968TIP3    H233320   1.558   6.387   3.589  1.4896  1.3959  0.1827
 3969TIP3   OH233321   6.406   3.858   0.036 -0.8676  0.3321 -0.7939
 3969TIP3    H133322   6.433   3.778  -0.009 -1.3413  1.0010 -2.3262
 3969TIP3    H233323   6.480   3.918   0.026 -0.0248 -0.2946  1.4029
 3970TIP3   OH233324   3.275   6.559  13.521 -0.1870  0.0465 -0.0442
 3970TIP3    H133325   3.196   6.511  13.546 -0.3338  1.5139  2.4910
 3970TIP3    H233326   3.271   6.564  13.426 -1.7401 -2.2570 -0.1334
 3971TIP3   OH233327   4.946   5.893  15.058 -0.3519 -0.3839 -0.3547
 3971TIP3    H133328   4.921   5.978  15.094  0.8710  0.1334 -0.7057
 3971TIP3    H233329   4.873   5.870  15.000 -0.8287  0.2846 -0.0359
 3972TIP3   OH233330   5.204   0.482   5.328 -0.3303  0.2029 -0.1037
 3972TIP3    H133331   5.229   0.392   5.347  1.6239  0.8344  0.4087
 3972TIP3    H233332   5.170   0.517   5.411 -2.4294 -0.4579 -0.6440
 3973TIP3   OH233333   1.018   0.835  14.903  0.1057  0.1542 -0.0486
 3973TIP3    H133334   1.110   0.812  14.911  0.5188  1.8948  0.4323
 3973TIP3    H233335   0.983   0.774  14.838  1.2770 -1.3813  0.7393
 3974TIP3   OH233336   6.477   4.178   4.755 -0.1370 -0.6126 -0.2764
 3974TIP3    H133337   6.532   4.244   4.714  0.1516 -1.2072 -0.8428
 3974TIP3    H233338   6.406   4.228   4.796  0.1133  0.0474 -0.6559
 3975TIP3   OH233339   6.087   2.779  15.028  0.1499 -0.5224 -0.4156
 3975TIP3    H133340   6.062   2.869  15.005 -0.4461 -0.7587 -0.6811
 3975TIP3    H233341   6.008   2.740  15.065  0.8825 -0.4055  1.3319
 3976TIP3   OH233342   0.032   3.550  16.948 -0.3792  0.3041  0.0244
 3976TIP3    H133343   0.108   3.499  16.976 -1.0484 -0.3936  0.5862
 3976TIP3    H233344   0.029   3.624  17.009 -0.5388 -0.0270  0.4233
 3977TIP3   OH233345   1.880   5.334  17.203 -0.4838 -0.0305  0.6043
 3977TIP3    H133346   1.950   5.276  17.173 -0.0571  1.5078 -1.4921
 3977TIP3    H233347   1.887   5.334  17.298  2.5869  0.3675  0.4108
 3978TIP3   OH233348   5.564   4.441   4.095  0.1964 -0.2596 -0.0546
 3978TIP3    H133349   5.536   4.427   4.186  1.6659  0.4621  0.5248
 3978TIP3    H233350   5.483   4.462   4.048 -0.4474  0.2939  1.2745
 3979TIP3   OH233351   3.302   0.524  16.884 -0.5001 -0.3487  0.0003
 3979TIP3    H133352   3.359   0.453  16.853  0.2040  0.6194 -0.9615
 3979TIP3    H233353   3.249   0.547  16.808 -0.6646  0.2005  0.2791
 3980TIP3   OH233354   4.444   0.087  12.281  0.6040  0.0083 -0.2946
 3980TIP3    H133355   4.442   0.123  12.369  1.0801  0.4987 -0.4810
 3980TIP3    H233356   4.394   0.005  12.287  1.6574 -0.5771  0.7144
 3981TIP3   OH233357   4.434   3.824   2.381 -0.2773 -0.1432 -0.4773
 3981TIP3    H133358   4.352   3.871   2.391 -0.0056  0.3873 -0.7239
 3981TIP3    H233359   4.413   3.750   2.325 -0.2194  0.9219 -1.9105
 3982TIP3   OH233360   1.201   4.696  11.528 -0.1663  0.1305  0.4839
 3982TIP3    H133361   1.237   4.612  11.556  0.2701 -0.0864 -0.6845
 3982TIP3    H233362   1.254   4.720  11.452 -2.2288 -0.0097 -1.0384
 3983TIP3   OH233363   2.456   6.164   5.576 -0.0548 -0.0578  0.0161
 3983TIP3    H133364   2.500   6.096   5.627 -2.8224 -0.2929  2.2206
 3983TIP3    H233365   2.487   6.246   5.613 -1.0285 -0.2128  1.1816
 3984TIP3   OH233366   0.499   4.103   2.835  0.1330 -0.1208  0.0054
 3984TIP3    H133367   0.588   4.137   2.824  1.2603 -3.4451 -1.6983
 3984TIP3    H233368   0.449   4.145   2.765  1.1628 -0.8646 -1.1811
 3985TIP3   OH233369   0.227   5.306   6.538 -0.3885 -0.1989  0.7100
 3985TIP3    H133370   0.182   5.223   6.553  0.5015 -0.7430  0.3782
 3985TIP3    H233371   0.177   5.369   6.589 -1.6787 -0.7526  0.1551
 3986TIP3   OH233372   6.000   1.017  17.219 -0.1428 -0.1018 -0.0350
 3986TIP3    H133373   5.984   1.111  17.223  0.2212  0.0463 -1.4762
 3986TIP3    H233374   6.090   1.010  17.186  1.3014 -0.9346  3.8083
 3987TIP3   OH233375   2.167   2.049   0.842 -0.0384 -0.1786 -0.2502
 3987TIP3    H133376   2.237   1.985   0.837  1.8368  1.7426  0.6101
 3987TIP3    H233377   2.193   2.118   0.781 -1.7061  0.0653 -0.7047
 3988TIP3   OH233378   1.529   0.798   0.812 -0.1040 -0.4911  0.4562
 3988TIP3    H133379   1.456   0.764   0.762  1.0269 -1.4973 -0.5214
 3988TIP3    H233380   1.592   0.726   0.816  0.9942  0.4786  0.9641
 3989TIP3   OH233381   5.115   4.263  11.970  0.3607  0.8133 -0.3469
 3989TIP3    H133382   5.200   4.291  11.936  1.2006 -0.8470  0.3313
 3989TIP3    H233383   5.065   4.240  11.892  1.2508 -0.1660 -0.6382
 3990TIP3   OH233384   0.678   1.102   2.105 -0.3475 -0.1132  0.6414
 3990TIP3    H133385   0.671   1.028   2.044  0.4785 -1.3050  1.9535
 3990TIP3    H233386   0.691   1.179   2.049 -1.9467 -0.8565 -0.7752
 3991TIP3   OH233387   4.702   5.576   0.208  0.2645  0.0239  0.6627
 3991TIP3    H133388   4.785   5.581   0.161 -1.0503  0.5460 -1.7036
 3991TIP3    H233389   4.705   5.648   0.271  0.4797  1.7955 -1.3400
 3992TIP3   OH233390   4.570   5.913   6.229 -0.0585  0.2246  0.3113
 3992TIP3    H133391   4.620   5.956   6.299  2.0195 -0.4072 -0.7294
 3992TIP3    H233392   4.482   5.903   6.265  0.9507 -0.0633  2.8469
 3993TIP3   OH233393   6.583   4.918  13.456 -0.6112 -0.4559 -0.2360
 3993TIP3    H133394   6.544   4.998  13.422  0.8540  0.2875 -0.2206
 3993TIP3    H233395   6.575   4.924  13.551 -0.8000 -0.4828 -0.2509
 3994TIP3   OH233396   5.632   6.344  12.699  0.0040  0.1080  0.0536
 3994TIP3    H133397   5.683   6.343  12.618 -0.7336  1.4065 -0.4356
 3994TIP3    H233398   5.676   6.410  12.753 -1.5804  1.8035 -0.6713
 3995TIP3   OH233399   3.797   5.037  15.624  1.0110  0.3325 -0.1220
 3995TIP3    H133400   3.713   5.032  15.579  0.0295  1.2230  1.5914
 3995TIP3    H233401   3.835   4.949  15.612  0.8162  0.5410 -2.6757
 3996TIP3   OH233402   5.967   0.855   0.859 -0.0674 -0.6106  0.0201
 3996TIP3    H133403   5.997   0.824   0.945 -1.2986 -1.7176  0.0741
 3996TIP3    H233404   5.902   0.923   0.880  1.4397  0.8837 -0.0797
 3997TIP3   OH233405   4.729   4.646   4.111  0.3424  0.0901  0.0208
 3997TIP3    H133406   4.664   4.666   4.043  0.6709  1.1214  0.0058
 3997TIP3    H233407   4.684   4.664   4.193 -0.0006 -1.0030  0.0839
 3998TIP3   OH233408   6.719   3.363  15.689  0.1005  0.1268 -0.4161
 3998TIP3    H133409   6.659   3.293  15.663 -0.0751  0.5616 -1.2184
 3998TIP3    H233410   6.770   3.380  15.610  1.1774 -0.1298  0.2193
 3999TIP3   OH233411   0.535   6.352   1.568 -0.6473  0.1453  0.2251
 3999TIP3    H133412   0.499   6.274   1.610  3.1468 -2.2991 -0.7355
 3999TIP3    H233413   0.588   6.394   1.636  0.0556 -0.0443 -0.1984
 4000TIP3   OH233414   1.206   2.273   5.523 -0.3309 -0.4587  0.1319
 4000TIP3    H133415   1.174   2.239   5.439 -2.3168  1.0322  0.2578
 4000TIP3    H233416   1.181   2.207   5.587 -1.3427 -0.2575 -0.0585
 4001TIP3   OH233417   3.035   2.734   1.056  0.4811 -0.2773 -0.3911
 4001TIP3    H133418   2.939   2.732   1.051  0.5277 -2.5260 -0.6838
 4001TIP3    H233419   3.056   2.680   1.131  1.5479 -0.2668 -0.6781
 4002TIP3   OH233420   5.482   1.388   3.211 -0.1254 -0.0534  0.4424
 4002TIP3    H133421   5.506   1.302   3.179 -2.1913 -0.5964  0.2800
 4002TIP3    H233422   5.558   1.443   3.193  1.8144 -2.1579  1.9081
 4003TIP3   OH233423   0.039   4.087  16.924 -0.6364 -0.4873  0.1261
 4003TIP3    H133424  -0.008   4.011  16.890 -0.9689 -0.7282  1.1080
 4003TIP3    H233425   0.121   4.052  16.959 -0.8613 -0.4145  0.7242
 4004TIP3   OH233426   0.260   4.120   4.724  0.1098 -1.2675 -0.1724
 4004TIP3    H133427   0.316   4.129   4.648 -0.1472  0.1122 -0.2041
 4004TIP3    H233428   0.306   4.167   4.794 -1.1766  0.2116 -0.3016
 4005TIP3   OH233429   3.075   5.567  16.212 -0.9465 -0.5221  0.5050
 4005TIP3    H133430   3.060   5.646  16.160  1.6158  0.0200  0.5184
 4005TIP3    H233431   3.022   5.579  16.290 -1.1471  0.8594  0.1666
 4006TIP3   OH233432   6.274   2.393   1.013 -0.7608  0.5450 -0.1137
 4006TIP3    H133433   6.277   2.452   1.088  0.7351 -1.2381  1.2586
 4006TIP3    H233434   6.365   2.387   0.983 -0.8158 -1.4570  0.0837
 4007TIP3   OH233435   5.885   1.623  14.809  0.7786  0.5709  0.2738
 4007TIP3    H133436   5.872   1.587  14.897  0.5906  2.2620  0.9579
 4007TIP3    H233437   5.868   1.549  14.750 -2.1938  0.1777  1.5296
 4008TIP3   OH233438   6.364   2.285   4.058  0.5427  0.0438  0.4139
 4008TIP3    H133439   6.363   2.246   4.145  0.7619  0.7908  0.7516
 4008TIP3    H233440   6.272   2.300   4.037  0.4354 -1.0295  0.1134
 4009TIP3   OH233441   6.144   4.677  14.086  0.8082 -0.3555 -0.3886
 4009TIP3    H133442   6.238   4.663  14.090  0.6662 -1.5500 -0.9463
 4009TIP3    H233443   6.114   4.667  14.176  1.1246 -0.7152 -0.3216
 4010TIP3   OH233444   5.661   5.895   2.745 -0.2736 -0.3007  0.5602
 4010TIP3    H133445   5.726   5.829   2.768 -0.4483  0.0437  2.0734
 4010TIP3    H233446   5.653   5.888   2.650 -0.5775 -2.7516  0.7159
 4011TIP3   OH233447   3.241   3.249   0.271 -0.0756 -0.4416 -0.2553
 4011TIP3    H133448   3.185   3.173   0.284  1.4058 -1.7048 -1.0618
 4011TIP3    H233449   3.255   3.285   0.358 -1.8525 -0.3050 -0.0144
 4012TIP3   OH233450   2.113   5.096   6.903 -0.1228  0.2796 -0.3134
 4012TIP3    H133451   2.129   5.081   6.810  0.0406 -0.1074 -0.2214
 4012TIP3    H233452   2.179   5.160   6.929  0.2255 -0.0804 -0.3163
 4013TIP3   OH233453   0.925   4.949   1.559 -0.1573  0.0450 -0.0875
 4013TIP3    H133454   0.846   4.993   1.527 -0.3091  0.1087  0.3740
 4013TIP3    H233455   0.924   4.864   1.515 -0.7215 -0.1292  0.2488
 4014TIP3   OH233456   0.842   5.736  13.410 -0.0867 -0.5033 -0.3565
 4014TIP3    H133457   0.904   5.735  13.483 -1.3319 -0.1543  0.7088
 4014TIP3    H233458   0.889   5.691  13.339  0.3664 -2.7371  1.2931
 4015TIP3   OH233459   6.347   6.763   3.350 -0.7668  0.0395 -0.2456
 4015TIP3    H133460   6.262   6.784   3.312 -0.9501  0.2157  0.2540
 4015TIP3    H233461   6.410   6.811   3.297 -1.2581  2.6728  1.5100
 4016TIP3   OH233462   1.003   3.485   6.070 -1.0474  0.1891  0.8580
 4016TIP3    H133463   0.911   3.493   6.096 -1.0132 -0.6099  1.2423
 4016TIP3    H233464   1.029   3.399   6.103  0.1180  0.8336  1.6473
 4017TIP3   OH233465   4.351   3.267   4.700  0.5462 -0.1868 -0.1560
 4017TIP3    H133466   4.371   3.246   4.791  0.3938 -0.5316 -0.1996
 4017TIP3    H233467   4.257   3.253   4.692  0.5597 -0.1564 -0.3653
 4018TIP3   OH233468   5.385   5.062  16.126  0.0237  0.2497 -0.2057
 4018TIP3    H133469   5.345   5.005  16.060  0.5705 -1.2200  0.6889
 4018TIP3    H233470   5.457   5.105  16.080  0.6653 -1.0839 -0.4946
 4019TIP3   OH233471   2.787   0.714   3.038 -0.0447  0.0193 -0.2407
 4019TIP3    H133472   2.709   0.691   2.988  0.6639 -0.7972 -0.9888
 4019TIP3    H233473   2.768   0.800   3.074 -0.3517  0.8942 -2.4054
 4020TIP3   OH233474   0.763   6.566   4.544  0.0008 -0.0642  0.0179
 4020TIP3    H133475   0.781   6.560   4.638  0.0577 -0.6767 -0.0254
 4020TIP3    H233476   0.846   6.539   4.503 -0.7722 -2.2571 -0.1913
 4021TIP3   OH233477   5.191   0.916  11.648  0.2128 -0.1177 -0.0765
 4021TIP3    H133478   5.236   0.922  11.564 -1.6240 -0.6375 -1.1057
 4021TIP3    H233479   5.185   1.006  11.679  0.9424  0.0673 -0.4705
 4022TIP3   OH233480   1.931   3.505   5.702 -0.2098 -0.0575  0.3245
 4022TIP3    H133481   1.942   3.480   5.793 -0.3852  1.1309  0.6722
 4022TIP3    H233482   2.016   3.541   5.676 -0.1930 -0.2907  0.0495
 4023TIP3   OH233483   1.210   4.773  13.379  0.3086  0.4677  0.1712
 4023TIP3    H133484   1.256   4.855  13.395 -1.2271  1.1499  1.2720
 4023TIP3    H233485   1.174   4.781  13.291 -0.9593  1.5412  0.7796
 4024TIP3   OH233486   4.146   5.083  15.857  0.1550  0.0048  0.8742
 4024TIP3    H133487   4.162   5.168  15.899 -1.1585  0.6815  0.0657
 4024TIP3    H233488   4.051   5.070  15.866 -0.2054  0.2884 -2.0225
 4025TIP3   OH233489   5.063   3.333  14.472 -0.1956 -0.2726  0.1599
 4025TIP3    H133490   4.970   3.320  14.452 -0.4309  1.4506  0.0895
 4025TIP3    H233491   5.095   3.388  14.401  0.2001  1.5489  1.7208
 4026TIP3   OH233492   1.478   4.873   2.180  0.1215 -0.1265 -0.0673
 4026TIP3    H133493   1.493   4.855   2.273 -0.0149 -0.5148 -0.1211
 4026TIP3    H233494   1.564   4.899   2.147  0.5888 -1.8388 -0.2545
 4027TIP3   OH233495   6.591   5.979   6.157 -0.8001 -0.5148 -0.5888
 4027TIP3    H133496   6.530   5.929   6.211  0.9237  1.0774  3.0404
 4027TIP3    H233497   6.587   6.068   6.192  4.6340 -0.6641  0.8787
 4028TIP3   OH233498   2.280   1.279  11.779  0.3496  0.5999 -0.1141
 4028TIP3    H133499   2.354   1.229  11.744 -1.7841 -1.0438 -2.4796
 4028TIP3    H233500   2.203   1.232  11.748 -1.7349  4.0757 -0.4544
 4029TIP3   OH233501   1.606   0.350   4.409 -0.0220 -0.1446  0.9460
 4029TIP3    H133502   1.550   0.413   4.456 -0.6596  0.0688 -0.0740
 4029TIP3    H233503   1.651   0.403   4.343  0.5421 -0.5156  1.0312
 4030TIP3   OH233504   5.901   3.668   4.814 -0.0666  0.0284  0.3083
 4030TIP3    H133505   5.958   3.626   4.878 -0.3746 -0.5677  0.1937
 4030TIP3    H233506   5.955   3.676   4.735  1.3406  3.5260  1.4989
 4031TIP3   OH233507   3.866   1.050   3.675 -0.1793 -0.2935  0.0151
 4031TIP3    H133508   3.857   1.140   3.642  0.0101 -0.8364 -1.5661
 4031TIP3    H233509   3.919   1.006   3.608  1.4350 -1.0622  1.7777
 4032TIP3   OH233510   3.098   1.196   3.728  0.3480 -0.6142 -0.0825
 4032TIP3    H133511   3.087   1.177   3.821 -1.8130 -1.0712 -0.4081
 4032TIP3    H233512   3.073   1.115   3.684  3.1991 -1.0419 -1.0228
 4033TIP3   OH233513   3.667   3.198  14.517 -0.3731  0.2942  0.4932
 4033TIP3    H133514   3.637   3.242  14.438 -0.4328  0.2526  0.4930
 4033TIP3    H233515   3.741   3.250  14.547 -1.2716  1.1579  1.2409
 4034TIP3   OH233516   1.937   4.915   2.143 -0.1293 -0.3351 -0.2078
 4034TIP3    H133517   1.872   4.986   2.149  0.2292  0.0853 -1.0797
 4034TIP3    H233518   2.007   4.952   2.089 -0.0822 -1.4699 -0.9404
 4035TIP3   OH233519   4.920   0.500  15.964  0.1177  0.0385 -0.1709
 4035TIP3    H133520   4.942   0.550  16.042 -1.7536  0.5675  0.0566
 4035TIP3    H233521   4.874   0.423  15.998  1.5446 -1.0230 -0.6120
 4036TIP3   OH233522   3.591   4.380   3.115 -0.6666  0.1083  0.1664
 4036TIP3    H133523   3.602   4.287   3.137  5.8216  0.2279 -1.2673
 4036TIP3    H233524   3.634   4.426   3.186 -0.6892  1.7809 -0.8864
 4037TIP3   OH233525   3.283   5.852  14.768  0.0232  0.0542 -0.5274
 4037TIP3    H133526   3.377   5.832  14.760 -0.2265 -1.8260  0.7816
 4037TIP3    H233527   3.239   5.778  14.727 -0.9114  1.2371 -1.7113
 4038TIP3   OH233528   0.756   3.527  14.621  0.2635 -0.8748 -0.8856
 4038TIP3    H133529   0.849   3.537  14.636  0.0603 -0.9399  0.4311
 4038TIP3    H233530   0.749   3.507  14.527  1.4131  1.1686 -1.4328
 4039TIP3   OH233531   2.025   5.874   3.837 -0.1117 -0.1232  0.3857
 4039TIP3    H133532   1.990   5.962   3.825 -0.7355 -0.6490 -2.0209
 4039TIP3    H233533   2.117   5.888   3.860 -0.8475  1.1873  2.6752
 4040TIP3   OH233534   6.456   6.158  16.662  1.2418 -0.0131 -0.1783
 4040TIP3    H133535   6.524   6.171  16.729 -0.1496  0.3296  1.2066
 4040TIP3    H233536   6.385   6.115  16.709  0.0301  0.7100 -1.3276
 4041TIP3   OH233537   2.679   4.948  12.193  0.1016  0.4656  0.0888
 4041TIP3    H133538   2.586   4.974  12.191  0.1284  0.5322 -1.7405
 4041TIP3    H233539   2.724   5.024  12.230 -0.2609  1.6428 -1.7654
 4042TIP3   OH233540   0.763   3.652  11.718 -0.1244 -0.5777  0.5418
 4042TIP3    H133541   0.774   3.670  11.811 -0.5409  2.1050  0.1328
 4042TIP3    H233542   0.686   3.704  11.693 -0.4157 -1.7784 -1.1644
 4043TIP3   OH233543   2.520   1.388  12.370 -0.1537  0.5095  0.9952
 4043TIP3    H133544   2.425   1.384  12.369 -0.1309 -1.3474  2.9366
 4043TIP3    H233545   2.548   1.303  12.336  0.8548  1.4397 -0.5962
 4044TIP3   OH233546   3.649   5.688  14.428  0.0742 -0.1036  0.0314
 4044TIP3    H133547   3.592   5.616  14.456 -0.5677 -0.0431 -1.1165
 4044TIP3    H233548   3.694   5.655  14.350 -0.8646  1.0441 -1.0026
 4045TIP3   OH233549   3.715   2.222   1.603  0.4719  0.4736  0.6561
 4045TIP3    H133550   3.622   2.229   1.582 -0.0364  1.7742  3.2186
 4045TIP3    H233551   3.721   2.154   1.669  1.3787  0.1689  0.2715
 4046TIP3   OH233552   4.978   3.619  11.853  0.6356 -0.6979  0.5120
 4046TIP3    H133553   4.947   3.663  11.933  1.3353 -0.2699  0.5565
 4046TIP3    H233554   4.904   3.623  11.793 -0.0289 -1.3556  1.2705
 4047TIP3   OH233555   4.156   4.937   3.858  0.1208  0.1364  0.0141
 4047TIP3    H133556   4.190   5.026   3.873 -0.3453  0.1625  0.8843
 4047TIP3    H233557   4.231   4.880   3.876  0.8400  0.4051 -1.8882
 4048TIP3   OH233558   0.089   0.166  10.878  0.2601 -0.3036 -0.0617
 4048TIP3    H133559   0.011   0.193  10.830  0.7038  3.7865  1.3250
 4048TIP3    H233560   0.059   0.094  10.934 -1.7550 -0.8196 -1.7546
 4049TIP3   OH233561   1.391   2.355  11.207 -0.1136 -0.4997  0.2146
 4049TIP3    H133562   1.471   2.307  11.186 -1.0573 -1.4906 -1.2894
 4049TIP3    H233563   1.420   2.444  11.227  1.4440 -1.0918  0.6349
 4050TIP3   OH233564   5.314   4.070  13.065 -0.6690  0.1664  0.1738
 4050TIP3    H133565   5.246   4.055  12.999  0.6063  0.8101 -1.3241
 4050TIP3    H233566   5.381   4.005  13.046 -0.1620  0.5432  0.6407
 4051TIP3   OH233567   0.073   3.415   2.613  0.1735  0.4697  0.4261
 4051TIP3    H133568   0.082   3.348   2.681 -0.6598 -0.6617 -0.5376
 4051TIP3    H233569   0.060   3.365   2.532  1.6556  1.7778 -0.6491
 4052TIP3   OH233570   2.931   0.445   5.371  0.2060 -0.3368  0.2680
 4052TIP3    H133571   2.910   0.538   5.368  0.3542 -0.2782  0.9184
 4052TIP3    H233572   3.023   0.442   5.397  0.0028 -0.6745  0.9747
 4053TIP3   OH233573   2.821   3.522  14.197  0.3768  0.1730 -0.7541
 4053TIP3    H133574   2.884   3.510  14.267 -0.7887 -0.0276  0.2646
 4053TIP3    H233575   2.797   3.615  14.201 -0.4430 -0.0538 -0.2313
 4054TIP3   OH233576   6.329   1.028   5.797  0.9258  0.1771 -0.9817
 4054TIP3    H133577   6.411   1.075   5.811  1.8127 -1.3501 -0.9162
 4054TIP3    H233578   6.303   0.997   5.884  0.2876  0.6314 -1.0046
 4055TIP3   OH233579   5.786   0.182  12.383 -0.1262 -0.0424  0.6580
 4055TIP3    H133580   5.866   0.200  12.433 -0.5737  1.6699  0.8169
 4055TIP3    H233581   5.739   0.118  12.435  0.0727  0.6765  1.7539
 4056TIP3   OH233582   0.767   2.101   6.153  0.3021 -0.9689  0.0439
 4056TIP3    H133583   0.704   2.047   6.106  1.6193 -1.6439 -0.9452
 4056TIP3    H233584   0.849   2.091   6.105  1.1307  0.0519  1.2134
 4057TIP3   OH233585   1.154   4.092   1.027 -0.4613 -0.1074  0.5760
 4057TIP3    H133586   1.220   4.120   0.963 -0.9906 -0.1645 -0.0063
 4057TIP3    H233587   1.195   4.105   1.112 -0.2258  1.2413  0.2660
 4058TIP3   OH233588   3.562   5.374   4.724  0.0561  0.2143 -0.4520
 4058TIP3    H133589   3.603   5.317   4.659 -0.1009 -0.9727  0.4630
 4058TIP3    H233590   3.612   5.456   4.720  0.7978 -0.2723 -1.2172
 4059TIP3   OH233591   4.384   6.729   3.134  0.3174  0.3746 -0.0818
 4059TIP3    H133592   4.314   6.791   3.155  1.7600  1.8478  0.4164
 4059TIP3    H233593   4.441   6.776   3.075  1.6200 -0.3573  0.5781
 4060TIP3   OH233594   0.671   1.586   1.000  0.0998 -0.4545  0.0030
 4060TIP3    H133595   0.767   1.584   0.993  0.1057  0.0997 -0.1417
 4060TIP3    H233596   0.648   1.677   0.978 -0.3702 -0.3072  1.0846
 4061TIP3   OH233597   0.570   0.225  14.010 -0.1052 -0.3272 -0.7627
 4061TIP3    H133598   0.643   0.235  13.950 -0.2549 -0.4548 -0.9670
 4061TIP3    H233599   0.492   0.229  13.954 -0.1656 -2.8950 -0.8855
 4062TIP3   OH233600   5.609   3.172  13.143  0.3652  0.0999 -0.9174
 4062TIP3    H133601   5.670   3.201  13.075 -0.1301  2.9562 -0.1924
 4062TIP3    H233602   5.647   3.090  13.176  2.2521  0.3230 -2.4561
 4063TIP3   OH233603   5.776   1.931   1.351 -0.5890 -0.2459  0.1269
 4063TIP3    H133604   5.792   1.939   1.257 -0.6179 -0.1047  0.1352
 4063TIP3    H233605   5.752   1.839   1.363  0.8983 -0.6392  0.2077
 4064TIP3   OH233606   2.839   5.105  11.050  0.1179  0.1784  0.1379
 4064TIP3    H133607   2.854   5.193  11.013  0.2214  1.0203  2.1195
 4064TIP3    H233608   2.926   5.072  11.069  0.0291  0.0072  0.2476
 4065TIP3   OH233609   4.900   3.443  12.171  0.2927  0.0281 -0.2337
 4065TIP3    H133610   4.826   3.489  12.211 -0.1179 -1.3277  0.5934
 4065TIP3    H233611   4.974   3.460  12.230  0.4692  0.7769 -0.6709
 4066TIP3   OH233612   2.452   3.938   2.677 -0.4389 -0.1622  0.3216
 4066TIP3    H133613   2.410   3.913   2.594  0.6022  0.4578 -0.4105
 4066TIP3    H233614   2.530   3.987   2.650 -0.3673  0.4903  1.6854
 4067TIP3   OH233615   3.321   2.466   0.079 -0.3169  0.1835 -0.9272
 4067TIP3    H133616   3.293   2.493  -0.009 -2.0036 -0.7685 -0.6895
 4067TIP3    H233617   3.273   2.385   0.096  0.0817  0.2990  0.8358
 4068TIP3   OH233618   3.339   6.064  13.445  0.1550 -0.5209  0.0531
 4068TIP3    H133619   3.395   6.028  13.514 -1.7897 -0.7024  1.5934
 4068TIP3    H233620   3.267   6.001  13.438 -0.8528  0.6919 -0.5350
 4069TIP3   OH233621   6.071   2.401   4.858  0.2284 -0.3973  0.5250
 4069TIP3    H133622   5.980   2.400   4.828  0.6236 -2.5767 -0.7376
 4069TIP3    H233623   6.122   2.420   4.779  1.1612 -4.4235  0.0428
 4070TIP3   OH233624   0.123   2.359   0.164  0.2093 -0.0751 -0.1368
 4070TIP3    H133625   0.149   2.286   0.221  1.3461  0.7974  0.4714
 4070TIP3    H233626   0.179   2.432   0.191 -0.9202  1.0304 -0.7457
 4071TIP3   OH233627   6.154   3.572  15.878 -0.2187  0.0127  0.3587
 4071TIP3    H133628   6.105   3.652  15.861 -0.6829 -0.3741 -0.1881
 4071TIP3    H233629   6.137   3.551  15.970 -1.1184 -0.1362  0.1636
 4072TIP3   OH233630   0.569   2.825   2.639  0.0174 -0.2053 -0.2691
 4072TIP3    H133631   0.637   2.780   2.589  0.1477 -1.5781  1.1015
 4072TIP3    H233632   0.603   2.826   2.729 -0.8928  0.8552  0.0641
 4073TIP3   OH233633   2.999   1.700  11.546  0.3589 -0.1340 -1.0478
 4073TIP3    H133634   3.020   1.708  11.453 -0.2527 -1.8650 -1.3479
 4073TIP3    H233635   2.911   1.662  11.548 -0.1079  0.9882  0.2333
 4074TIP3   OH233636   5.181   4.546  15.981  0.5395  0.3355 -0.0376
 4074TIP3    H133637   5.108   4.513  16.033  0.4577  1.9359  0.9022
 4074TIP3    H233638   5.139   4.597  15.911  0.7314  0.3223 -0.1640
 4075TIP3   OH233639   6.373   5.294   0.301  0.4017 -0.2389 -0.5107
 4075TIP3    H133640   6.447   5.352   0.281  0.8664 -1.9809 -4.2463
 4075TIP3    H233641   6.414   5.215   0.337  0.2543 -0.6545 -1.2524
 4076TIP3   OH233642   5.105   0.146  13.921 -0.0486  0.0426  0.4064
 4076TIP3    H133643   5.092   0.061  13.963 -0.8033  0.5866  1.2950
 4076TIP3    H233644   5.022   0.164  13.876  0.3122  0.0479 -0.2676
 4077TIP3   OH233645   0.082   0.188  15.836 -0.2302 -0.1280  0.0934
 4077TIP3    H133646   0.017   0.152  15.775  1.9800 -1.7503 -1.4086
 4077TIP3    H233647   0.147   0.230  15.779  1.7183 -1.4062  1.3424
 4078TIP3   OH233648   1.071   4.987   5.754  0.4115  0.3360  0.0814
 4078TIP3    H133649   0.987   4.942   5.763  1.4491 -1.6799 -0.1484
 4078TIP3    H233650   1.129   4.922   5.715  2.3322  1.4077  1.0894
 4079TIP3   OH233651   6.482   2.894  10.755  0.3993  0.3265 -1.1231
 4079TIP3    H133652   6.425   2.906  10.679 -0.5400 -1.4370 -0.7161
 4079TIP3    H233653   6.428   2.849  10.819  1.6198  0.5266  0.0804
 4080TIP3   OH233654   0.559   5.970  11.112  0.4330  0.4394  0.0901
 4080TIP3    H133655   0.479   5.923  11.090  0.2373 -0.1328  1.9647
 4080TIP3    H233656   0.604   5.980  11.028 -0.0178 -2.1730 -0.5178
 4081TIP3   OH233657   1.886   6.363   2.460  0.6610  0.2247 -0.8251
 4081TIP3    H133658   1.817   6.305   2.492  0.0456  0.2540 -2.0728
 4081TIP3    H233659   1.960   6.305   2.441  0.9795  0.1873  0.4728
 4082TIP3   OH233660   2.087   5.763   5.133  0.1547 -1.0001 -0.4346
 4082TIP3    H133661   2.027   5.713   5.078 -0.4744 -0.6708 -0.0526
 4082TIP3    H233662   2.054   5.750   5.222  0.9760 -1.2688 -0.1620
 4083TIP3   OH233663   2.106   2.278   5.812  0.2451  0.2534 -0.3519
 4083TIP3    H133664   2.114   2.219   5.887  2.4100  1.3558  0.3246
 4083TIP3    H233665   2.190   2.324   5.809  0.7765 -0.7987 -4.3310
 4084TIP3   OH233666   6.433   6.466  13.207  0.8430 -0.1295 -0.7548
 4084TIP3    H133667   6.461   6.376  13.223  1.1349  0.0936  0.0726
 4084TIP3    H233668   6.342   6.469  13.238  1.6099  0.4641  1.5970
 4085TIP3   OH233669   0.507   4.266  16.689  0.1784 -0.1926 -0.2706
 4085TIP3    H133670   0.549   4.254  16.774 -2.0200 -0.4059  0.8207
 4085TIP3    H233671   0.574   4.239  16.625  1.1661 -1.9605  1.4482
 4086TIP3   OH233672   4.427   4.231  10.556 -0.0746 -0.2013 -0.1854
 4086TIP3    H133673   4.339   4.197  10.537 -0.4298 -1.0049  2.7423
 4086TIP3    H233674   4.483   4.154  10.557  0.2407  0.0323  0.2803
 4087TIP3   OH233675   1.165   6.285   4.819  0.3124  0.2706 -0.3759
 4087TIP3    H133676   1.158   6.232   4.898  1.4322  0.6959  0.0228
 4087TIP3    H233677   1.259   6.294   4.805  0.1271  1.3126 -0.9987
 4088TIP3   OH233678   3.799   4.013   1.212  0.3448 -0.6608 -0.0822
 4088TIP3    H133679   3.884   4.055   1.225  0.2560 -0.5750  0.2299
 4088TIP3    H233680   3.775   4.035   1.122  1.1049 -1.4983 -0.4936
 4089TIP3   OH233681   4.391   5.574  15.238 -0.7679  0.2387  0.6699
 4089TIP3    H133682   4.377   5.605  15.327  0.2230  0.9418  0.5790
 4089TIP3    H233683   4.477   5.606  15.213 -1.3602  0.7419 -0.8343
 4090TIP3   OH233684   2.932   4.752   5.200  0.1533  0.2915 -0.0811
 4090TIP3    H133685   2.948   4.846   5.209 -0.0990  0.4252 -0.9923
 4090TIP3    H233686   2.903   4.741   5.110 -0.6191 -0.5529  0.2631
 4091TIP3   OH233687   6.349   4.493  15.497  0.3697 -0.5360  0.1892
 4091TIP3    H133688   6.323   4.429  15.431  0.9054  0.2907 -0.8367
 4091TIP3    H233689   6.303   4.573  15.472  0.2984 -0.3044  1.0294
 4092TIP3   OH233690   4.857   6.062   2.544  0.1652  0.0066 -0.5843
 4092TIP3    H133691   4.780   6.104   2.506 -0.0941  0.7088  0.6983
 4092TIP3    H233692   4.823   5.984   2.588  0.6088 -1.4370 -2.7105
 4093TIP3   OH233693   2.182   0.450  11.851  0.3168 -0.5757 -0.2796
 4093TIP3    H133694   2.255   0.425  11.909 -0.1338 -0.4442  0.3519
 4093TIP3    H233695   2.225   0.487  11.774  0.9238  0.1220  0.3747
 4094TIP3   OH233696   3.574   2.543   1.438  0.2115 -0.4579 -0.0997
 4094TIP3    H133697   3.523   2.479   1.489  1.5820 -2.5656 -1.2936
 4094TIP3    H233698   3.655   2.553   1.487 -0.1035  0.5754  0.2134
 4095TIP3   OH233699   5.066   3.952  16.788 -0.0397 -0.1289  0.7437
 4095TIP3    H133700   5.116   3.983  16.713 -1.0546 -0.4114 -0.0561
 4095TIP3    H233701   5.121   3.975  16.864  1.3496 -0.5421 -0.1134
 4096TIP3   OH233702   2.271   4.675  15.823 -0.1130 -0.1382  0.3939
 4096TIP3    H133703   2.323   4.689  15.744  0.3989  1.6755  1.0253
 4096TIP3    H233704   2.180   4.691  15.796  0.2024  1.8760  0.4844
 4097TIP3   OH233705   2.941   4.472  14.019  0.2351 -0.2747 -0.1017
 4097TIP3    H133706   3.013   4.423  14.060 -0.0856  0.2298  1.0740
 4097TIP3    H233707   2.939   4.440  13.928  0.8579 -1.5162  0.3062
 4098TIP3   OH233708   2.094   4.185   0.255  0.4164 -0.4949 -0.5873
 4098TIP3    H133709   2.002   4.198   0.235  0.2705 -1.8779 -0.7977
 4098TIP3    H233710   2.131   4.147   0.175  0.8238 -1.5117  0.0765
 4099TIP3   OH233711   1.258   1.122   0.980  0.2506 -0.4196 -0.2791
 4099TIP3    H133712   1.188   1.156   1.036  1.0609  0.7626  0.0439
 4099TIP3    H233713   1.259   1.028   0.998 -3.0380 -0.9350 -2.2960
 4100TIP3   OH233714   6.330   4.021   1.392  0.2953 -0.5820 -0.1487
 4100TIP3    H133715   6.247   4.069   1.384 -0.7568 -2.3936 -0.2426
 4100TIP3    H233716   6.304   3.933   1.417  2.4132 -0.0099  4.6189
 4101TIP3   OH233717   5.005   0.726   4.689  0.4154 -0.2477  0.0187
 4101TIP3    H133718   4.926   0.747   4.739  0.9531 -0.6350  1.0330
 4101TIP3    H233719   5.077   0.746   4.748  1.0999  0.4077 -1.0176
 4102TIP3   OH233720   5.554   3.700   5.835 -0.8730  0.8968 -0.1007
 4102TIP3    H133721   5.623   3.660   5.888  0.0116  0.8571 -1.2546
 4102TIP3    H233722   5.472   3.664   5.871 -0.2782  0.6154  1.0055
 4103TIP3   OH233723   4.250   5.117  14.263 -0.3608 -0.7818 -0.0661
 4103TIP3    H133724   4.158   5.092  14.248 -0.8821  1.3620 -0.6752
 4103TIP3    H233725   4.258   5.122  14.358 -0.5198 -2.2258  0.0308
 4104TIP3   OH233726   5.835   2.570  16.067 -0.2325  0.4953  0.2301
 4104TIP3    H133727   5.780   2.641  16.034  1.1843  1.5472  0.0428
 4104TIP3    H233728   5.919   2.612  16.085  0.8038 -1.2468 -0.4272
 4105TIP3   OH233729   3.205   1.813   2.516  0.8503  0.2647  0.2430
 4105TIP3    H133730   3.221   1.809   2.610  1.2140  0.3039  0.1860
 4105TIP3    H233731   3.114   1.787   2.505  1.2568 -1.3003  0.4628
 4106TIP3   OH233732   4.575   5.883  15.457  0.0743 -0.4776  0.1959
 4106TIP3    H133733   4.658   5.883  15.409  0.8058 -1.3826  1.4400
 4106TIP3    H233734   4.513   5.923  15.396  1.6535  1.2841 -0.3257
 4107TIP3   OH233735   1.073   4.295   0.572 -0.4436 -0.1155  0.2751
 4107TIP3    H133736   1.167   4.308   0.584 -0.8219  2.0167  1.2371
 4107TIP3    H233737   1.061   4.200   0.574  1.6816 -0.4053  0.1735
 4108TIP3   OH233738   1.551   5.718   1.137 -0.2523  0.6367 -0.4540
 4108TIP3    H133739   1.551   5.736   1.231  1.3924 -0.7302 -0.1773
 4108TIP3    H233740   1.639   5.741   1.108 -0.5389  0.4043 -1.5353
 4109TIP3   OH233741   4.036   5.480  16.250 -0.6822  0.5605  0.3887
 4109TIP3    H133742   4.111   5.468  16.191 -0.2525 -0.0714  1.0556
 4109TIP3    H233743   4.012   5.572  16.240  0.5294  0.9033  0.5715
 4110TIP3   OH233744   3.235   3.813   2.760 -0.0348 -0.0252 -0.0768
 4110TIP3    H133745   3.227   3.724   2.793  1.4971 -0.5387 -1.0207
 4110TIP3    H233746   3.176   3.865   2.815 -1.2079 -1.6712  0.2358
 4111TIP3   OH233747   5.310   0.401  17.238 -0.0159 -0.0711 -0.1281
 4111TIP3    H133748   5.356   0.388  17.322  1.3214  1.4190 -0.5965
 4111TIP3    H233749   5.292   0.495  17.235 -1.2115 -0.3159 -0.9439
 4112TIP3   OH233750   3.007   0.509   1.809  0.5344  0.1424 -0.5145
 4112TIP3    H133751   3.085   0.564   1.802  0.0678  0.6997 -1.5881
 4112TIP3    H233752   2.970   0.530   1.895  1.9638 -0.6685  0.3046
 4113TIP3   OH233753   3.988   5.225  12.865  0.7053 -0.0702 -0.2926
 4113TIP3    H133754   3.970   5.283  12.791 -2.0868  0.4521  0.7492
 4113TIP3    H233755   4.046   5.157  12.828  1.2351  1.4459 -2.3563
 4114TIP3   OH233756   6.138   1.579  14.041  0.0125  0.9204 -0.1228
 4114TIP3    H133757   6.202   1.650  14.043 -0.5171  1.3692  1.3425
 4114TIP3    H233758   6.122   1.558  14.133  0.8473 -1.7416 -0.5497
 4115TIP3   OH233759   0.910   4.424  10.314  0.2969  0.3547 -0.5026
 4115TIP3    H133760   0.943   4.494  10.369 -3.9000  1.8817  0.2671
 4115TIP3    H233761   0.949   4.440  10.228  0.4235  2.8530 -0.0039
 4116TIP3   OH233762   1.715   5.077   1.534 -0.1375  0.2403  0.0355
 4116TIP3    H133763   1.703   4.999   1.588  1.1482  0.0409  0.0589
 4116TIP3    H233764   1.627   5.112   1.522 -0.5898 -0.5338  1.0377
 4117TIP3   OH233765   5.504   4.296   3.077 -0.3302  0.7960 -0.0872
 4117TIP3    H133766   5.565   4.224   3.094 -0.9070  0.3794  0.2456
 4117TIP3    H233767   5.558   4.366   3.042  0.0004 -0.3681 -1.9512
 4118TIP3   OH233768   0.120   2.259  15.281 -0.0162  0.7958 -0.5496
 4118TIP3    H133769   0.066   2.198  15.232  0.4329  0.4671 -0.6419
 4118TIP3    H233770   0.100   2.345  15.244 -1.5880  0.8744  0.4294
 4119TIP3   OH233771   4.344   4.012   6.029  0.1358 -0.0775 -0.4287
 4119TIP3    H133772   4.422   3.959   6.012  0.0739 -0.2363 -0.2126
 4119TIP3    H233773   4.313   3.983   6.115  1.8731  2.3986  1.1194
 4120TIP3   OH233774   1.530   1.168  15.847  0.4549  0.0436 -0.4463
 4120TIP3    H133775   1.581   1.140  15.770  1.9329 -1.6473  1.0883
 4120TIP3    H233776   1.595   1.173  15.917 -0.7310  2.4045  0.5130
 4121TIP3   OH233777   0.490   2.708   1.074 -0.7943 -0.5683 -0.8626
 4121TIP3    H133778   0.475   2.669   0.989  1.7134 -0.6882 -1.3000
 4121TIP3    H233779   0.534   2.791   1.055  2.2040 -1.7900  0.3268
 4122TIP3   OH233780   4.250   1.075  16.399 -0.2078 -0.1114 -0.2894
 4122TIP3    H133781   4.340   1.092  16.425  0.1203  0.6459 -1.8627
 4122TIP3    H233782   4.200   1.084  16.480  1.1080 -0.4805  0.5882
 4123TIP3   OH233783   4.855   3.930   3.543 -0.3540 -0.3549 -0.7029
 4123TIP3    H133784   4.816   3.881   3.615  0.0739 -1.1899 -1.0262
 4123TIP3    H233785   4.797   4.005   3.531 -1.4826 -1.2107 -0.7179
 4124TIP3   OH233786   0.638   2.253  15.039  0.0479 -0.4788 -0.4689
 4124TIP3    H133787   0.633   2.316  14.967 -0.9330  0.5393  0.4600
 4124TIP3    H233788   0.663   2.305  15.115 -2.9730 -0.7414  0.8027
 4125TIP3   OH233789   6.652   6.427   3.776  0.1842  0.3438  0.1121
 4125TIP3    H133790   6.569   6.402   3.736  0.1279  0.4035  0.1927
 4125TIP3    H233791   6.691   6.489   3.714  0.5006 -0.2381 -0.2792
 4126TIP3   OH233792   0.564   0.524  12.442  0.3033 -0.3273  0.2077
 4126TIP3    H133793   0.473   0.505  12.464  0.2178 -0.5518 -0.3182
 4126TIP3    H233794   0.579   0.613  12.475 -0.0112 -0.4108  0.5775
 4127TIP3   OH233795   2.861   2.521  12.027  0.3468  0.0914  0.0313
 4127TIP3    H133796   2.916   2.595  12.051  1.3876 -0.7013  0.1240
 4127TIP3    H233797   2.773   2.547  12.054  0.2935  2.2406 -1.9793
 4128TIP3   OH233798   4.959   4.381   1.487  0.3998  0.1678  0.0016
 4128TIP3    H133799   4.964   4.348   1.577 -0.9715  3.0854  1.2206
 4128TIP3    H233800   5.037   4.436   1.478  0.6218 -0.2525 -0.6612
 4129TIP3   OH233801   0.740   5.145  12.904  0.4854 -0.3633  0.7487
 4129TIP3    H133802   0.726   5.077  12.970  2.3770 -0.7452  0.7907
 4129TIP3    H233803   0.692   5.221  12.937 -0.8395 -1.3847  1.1917
 4130TIP3   OH233804   5.516   5.257  17.136 -0.0660  0.1377 -0.5938
 4130TIP3    H133805   5.445   5.192  17.127  0.1391 -0.0983 -0.5099
 4130TIP3    H233806   5.546   5.247  17.227 -0.2027  0.5270 -0.5059
 4131TIP3   OH233807   2.789   3.944   2.460  0.5873 -0.5633 -0.0568
 4131TIP3    H133808   2.848   3.904   2.397  1.6721 -0.0351  0.6150
 4131TIP3    H233809   2.836   4.021   2.492 -1.0128  0.6320 -0.5134
 4132TIP3   OH233810   2.877   2.321  16.374  0.0249  0.6674 -1.0264
 4132TIP3    H133811   2.839   2.389  16.318 -0.8466  0.5585 -0.5619
 4132TIP3    H233812   2.839   2.239  16.344 -0.0325  0.5456 -0.6277
 4133TIP3   OH233813   3.803   4.559  12.861 -0.3260 -0.1676  0.0194
 4133TIP3    H133814   3.828   4.558  12.953 -0.4808  0.4947  0.0712
 4133TIP3    H233815   3.817   4.469  12.831  1.8812  0.1185  0.1026
 4134TIP3   OH233816   5.570   5.579  14.520  0.6422 -0.1426  0.3697
 4134TIP3    H133817   5.513   5.525  14.466  0.3454 -0.7456  1.2758
 4134TIP3    H233818   5.630   5.517  14.560  1.3548  0.3881  0.1371
 4135TIP3   OH233819   5.544   1.616   1.214 -0.3121  0.1044 -0.5662
 4135TIP3    H133820   5.605   1.542   1.223 -1.5902 -1.3546 -3.1207
 4135TIP3    H233821   5.558   1.669   1.292  2.5087 -1.4723  0.0601
 4136TIP3   OH233822   2.224   3.817   3.867  0.0000  0.0218 -0.0459
 4136TIP3    H133823   2.223   3.894   3.923  1.6938  1.3983 -1.8295
 4136TIP3    H233824   2.295   3.763   3.903  0.4043  0.4287 -0.2219
 4137TIP3   OH233825   5.678   6.748   0.824  0.0954  0.1207  0.1300
 4137TIP3    H133826   5.675   6.836   0.860 -1.2600 -0.0761  0.5472
 4137TIP3    H233827   5.689   6.760   0.730  0.8549  0.7053  0.2907
 4138TIP3   OH233828   0.647   4.703  12.763 -0.4935 -0.2609 -0.5149
 4138TIP3    H133829   0.574   4.756  12.795  0.6072  1.0292 -0.1072
 4138TIP3    H233830   0.641   4.621  12.813 -0.6039  0.5426  0.8098
 4139TIP3   OH233831   3.579   6.461  12.478 -0.2599 -0.0846  0.9540
 4139TIP3    H133832   3.489   6.456  12.510 -1.3433  0.8660 -1.8340
 4139TIP3    H233833   3.592   6.553  12.455 -0.1633 -0.9711 -2.9596
 4140TIP3   OH233834   5.442   1.180   4.664  0.3681  1.3070 -0.1816
 4140TIP3    H133835   5.391   1.102   4.642  2.4051  0.0237 -0.4680
 4140TIP3    H233836   5.379   1.238   4.707 -1.9224  0.8243 -2.7275
 4141TIP3   OH233837   1.591   4.621   0.820  0.3798 -0.4993  0.5029
 4141TIP3    H133838   1.554   4.619   0.909 -1.5511 -0.2517 -0.2563
 4141TIP3    H233839   1.576   4.533   0.786 -1.4236  0.1922 -0.5424
 4142TIP3   OH233840   1.479   0.224  16.839 -0.2590  0.6087  0.1727
 4142TIP3    H133841   1.437   0.151  16.792  0.1405  0.9576 -0.7275
 4142TIP3    H233842   1.524   0.274  16.771  1.3456  0.4427  1.0803
 4143TIP3   OH233843   3.056   0.567  13.289 -0.1591 -0.7190  0.1782
 4143TIP3    H133844   3.037   0.481  13.326  0.3608 -0.4720  1.0426
 4143TIP3    H233845   3.147   0.585  13.315 -0.1171 -0.1033 -0.3712
 4144TIP3   OH233846   6.260   4.667  15.828  0.8261 -0.7564 -0.3887
 4144TIP3    H133847   6.239   4.688  15.919  2.8521  0.4160 -0.1683
 4144TIP3    H233848   6.244   4.573  15.821  1.1179 -0.9484  1.3113
 4145TIP3   OH233849   6.267   6.515  11.278  0.0895  0.1782  0.3720
 4145TIP3    H133850   6.240   6.433  11.320  0.3960  0.3970  1.0045
 4145TIP3    H233851   6.346   6.493  11.230 -0.9817 -0.3726 -1.1510
 4146TIP3   OH233852   3.717   6.149   6.868  0.2848  0.0798 -0.1378
 4146TIP3    H133853   3.658   6.211   6.825 -0.2557  0.8981  1.6984
 4146TIP3    H233854   3.804   6.186   6.854  0.0927  0.4609 -0.3539
 4147TIP3   OH233855   5.436   4.797  15.931 -0.9306 -0.1733  0.2475
 4147TIP3    H133856   5.341   4.790  15.947 -1.2119  0.7396 -0.9614
 4147TIP3    H233857   5.445   4.876  15.878  0.1763 -2.0017 -2.3940
 4148TIP3   OH233858   2.941   6.181   5.429  0.4282  0.0823  0.4351
 4148TIP3    H133859   3.011   6.140   5.379  1.5592  0.9160  1.2891
 4148TIP3    H233860   2.985   6.216   5.506 -1.1202 -0.3179  1.5185
 4149TIP3   OH233861   4.915   4.902   4.185 -0.3423  0.0584 -0.3902
 4149TIP3    H133862   4.999   4.898   4.232 -0.5885 -0.7809 -0.0044
 4149TIP3    H233863   4.853   4.861   4.245 -1.1200  1.0824 -0.4934
 4150TIP3   OH233864   4.274   5.528   3.775 -0.1588  0.4124  0.5340
 4150TIP3    H133865   4.333   5.478   3.832  1.4670  1.0390 -0.5635
 4150TIP3    H233866   4.256   5.609   3.823 -0.2500  0.1550  0.9338
 4151TIP3   OH233867   2.985   1.187   2.261 -0.5044 -0.3878  0.0112
 4151TIP3    H133868   2.988   1.281   2.243 -1.8615 -0.2879  0.2999
 4151TIP3    H233869   3.023   1.147   2.183 -0.9699  0.3406 -0.5992
 4152TIP3   OH233870   5.335   0.695  15.108 -0.5758  0.6460  0.1382
 4152TIP3    H133871   5.309   0.609  15.139  0.0097  0.3075 -0.3094
 4152TIP3    H233872   5.367   0.740  15.187 -1.1890  0.5775  0.4320
 4153TIP3   OH233873   3.444   4.175   1.102 -0.0159  0.0198  0.1669
 4153TIP3    H133874   3.393   4.256   1.112 -1.8880 -1.2175  1.0729
 4153TIP3    H233875   3.535   4.202   1.117 -0.4662  2.1417 -0.6818
 4154TIP3   OH233876   1.872   5.772   0.873 -0.0633 -0.1104  0.5022
 4154TIP3    H133877   1.903   5.744   0.787  0.5035  1.1632  0.2695
 4154TIP3    H233878   1.808   5.841   0.853  1.0733  1.1593  1.1003
 4155TIP3   OH233879   4.822   1.699   5.991  0.0763 -0.0459 -0.0761
 4155TIP3    H133880   4.789   1.719   5.904 -1.3016  0.7308  0.6099
 4155TIP3    H233881   4.874   1.620   5.979 -0.9609 -0.5456 -1.4169
 4156TIP3   OH233882   6.490   4.020   5.467  0.2139  0.3042  0.6616
 4156TIP3    H133883   6.399   4.047   5.455 -0.2324  0.7975  4.4284
 4156TIP3    H233884   6.539   4.102   5.467  0.2697  0.2768  1.4000
 4157TIP3   OH233885   6.070   3.552   3.238 -0.1600 -0.6546  0.0565
 4157TIP3    H133886   5.987   3.562   3.192 -0.4343 -1.6808  0.3164
 4157TIP3    H233887   6.067   3.464   3.275 -0.4826  0.5462  3.0766
 4158TIP3   OH233888   0.797   4.167  13.687 -0.1530 -0.1966  0.3979
 4158TIP3    H133889   0.878   4.117  13.698  1.3159  1.8267 -0.9461
 4158TIP3    H233890   0.774   4.156  13.594 -1.1456 -0.3436  0.6529
 4159TIP3   OH233891   1.601   1.285  14.372 -0.2391 -0.8831 -0.2324
 4159TIP3    H133892   1.526   1.258  14.426 -0.9317 -0.4691 -0.9802
 4159TIP3    H233893   1.574   1.367  14.333  1.7468  0.8142  1.7882
 4160TIP3   OH233894   5.613   5.903  12.215  0.5753 -0.1713  0.0006
 4160TIP3    H133895   5.685   5.865  12.266 -0.1508 -0.9674  0.4425
 4160TIP3    H233896   5.583   5.978  12.268 -1.1670 -1.8916  1.5200
 4161TIP3   OH233897   0.489   5.648  14.393 -0.4984  0.6560 -0.5500
 4161TIP3    H133898   0.413   5.600  14.428 -0.3011  1.3150  0.7956
 4161TIP3    H233899   0.460   5.677  14.306 -2.1420  1.6928  0.3060
 4162TIP3   OH233900   0.479   0.796  12.191 -0.0788  0.1410  0.5907
 4162TIP3    H133901   0.427   0.731  12.238 -0.9400  0.7170  0.4365
 4162TIP3    H233902   0.522   0.847  12.259 -1.8083  1.3712  0.7857
 4163TIP3   OH233903   4.959   0.329  13.011 -0.5394  0.5634  0.1783
 4163TIP3    H133904   4.894   0.334  13.080 -1.6651 -1.2860 -0.7032
 4163TIP3    H233905   5.032   0.281  13.050 -0.7759  0.3814  0.3986
 4164TIP3   OH233906   1.150   0.131   1.963  0.6154 -0.2388  0.3758
 4164TIP3    H133907   1.220   0.129   1.898  0.7287  0.1185  0.4872
 4164TIP3    H233908   1.085   0.190   1.925  0.0856 -1.0639 -0.0228
 4165TIP3   OH233909   6.761   5.087  12.731 -0.1343 -0.2541  0.1582
 4165TIP3    H133910   6.814   5.009  12.748  0.5213  0.1784  0.1225
 4165TIP3    H233911   6.800   5.126  12.652 -0.9332 -0.3075 -0.2767
 4166TIP3   OH233912   3.729   1.054  16.020  0.9670  0.0821  0.0421
 4166TIP3    H133913   3.783   0.981  16.050 -0.0262 -0.3087  0.8943
 4166TIP3    H233914   3.784   1.131  16.031  1.2008 -0.2593  1.3104
 4167TIP3   OH233915   3.932   0.059   1.528 -0.9356  0.2684  0.3011
 4167TIP3    H133916   3.950   0.030   1.439  0.0689 -1.9625  1.1755
 4167TIP3    H233917   3.839   0.040   1.541 -1.4901  2.1396 -0.7965
 4168TIP3   OH233918   6.166   3.507  16.931 -0.1352  0.7530 -0.0210
 4168TIP3    H133919   6.174   3.561  17.009 -0.4009  0.4571  0.2139
 4168TIP3    H233920   6.084   3.536  16.890  0.4825  1.5637 -0.7029
 4169TIP3   OH233921   5.279   2.640  13.314  0.4292  0.1722  0.1328
 4169TIP3    H133922   5.183   2.638  13.318  0.4106  0.9020  0.1542
 4169TIP3    H233923   5.306   2.640  13.406  0.3504  3.4298  0.1958
 4170TIP3   OH233924   0.594   0.910  11.975 -0.1754  0.2195 -0.2631
 4170TIP3    H133925   0.547   0.859  12.041  0.2187 -0.3382 -0.4048
 4170TIP3    H233926   0.609   0.995  12.016  1.7078 -0.7230  1.0943
 4171TIP3   OH233927   3.605   6.281  11.710 -0.6477  0.4050  0.8394
 4171TIP3    H133928   3.596   6.201  11.657  3.0430  1.1932 -1.1248
 4171TIP3    H233929   3.583   6.252  11.799  2.4436 -3.3450  0.5409
 4172TIP3   OH233930   1.796   3.429  15.291 -0.3541 -0.3717  0.1026
 4172TIP3    H133931   1.700   3.433  15.298 -0.3579 -0.1563 -0.0534
 4172TIP3    H233932   1.815   3.468  15.205 -0.3082 -2.7755 -1.0286
 4173TIP3   OH233933   0.383   3.289   2.936  0.0845 -0.1104 -0.3040
 4173TIP3    H133934   0.393   3.194   2.943  1.8053 -0.0016 -0.8691
 4173TIP3    H233935   0.448   3.324   2.998 -1.2296  0.6936  0.6338
 4174TIP3   OH233936   5.150   2.486  13.534 -0.3232 -0.7663  0.4426
 4174TIP3    H133937   5.197   2.554  13.583  0.5394 -0.0954 -1.2625
 4174TIP3    H233938   5.066   2.526  13.511 -0.5329 -0.9104  0.9570
 4175TIP3   OH233939   2.775   0.027  15.940  0.0465  0.3097  0.1731
 4175TIP3    H133940   2.843   0.094  15.929 -0.5304  1.4348  3.0660
 4175TIP3    H233941   2.824  -0.054  15.954  0.7664  0.5126 -1.1413
 4176TIP3   OH233942   3.577   1.457  11.107  0.3133 -0.4409  0.2545
 4176TIP3    H133943   3.536   1.507  11.036  0.6921 -0.0914  0.2816
 4176TIP3    H233944   3.639   1.399  11.062  0.1620 -0.6049  0.2558
 4177TIP3   OH233945   4.283   4.024   0.162  0.0837  0.1365  0.1215
 4177TIP3    H133946   4.294   4.093   0.228 -2.3361 -0.2262  0.9366
 4177TIP3    H233947   4.199   4.044   0.121 -0.5065 -2.1550  0.1545
 4178TIP3   OH233948   2.893   0.684   4.440  0.1135  0.0321  0.2537
 4178TIP3    H133949   2.959   0.646   4.498  1.1042  2.5609  0.8429
 4178TIP3    H233950   2.931   0.767   4.412 -0.5800 -0.8680 -3.6242
 4179TIP3   OH233951   1.156   0.247   5.710 -0.0104  0.6029  0.7382
 4179TIP3    H133952   1.209   0.314   5.753  2.2795  0.5420 -1.8779
 4179TIP3    H233953   1.196   0.236   5.624 -1.2224 -3.1067  0.5803
 4180TIP3   OH233954   5.008   1.564   0.064  0.1424 -0.0846 -0.5750
 4180TIP3    H133955   4.921   1.599   0.082  0.9789  1.2854  0.8986
 4180TIP3    H233956   5.043   1.541   0.150  2.1638  1.6329 -0.9025
 4181TIP3   OH233957   4.470   4.505   4.016  0.6224 -0.3217 -0.0203
 4181TIP3    H133958   4.485   4.478   4.107  0.6440  0.6994  0.2769
 4181TIP3    H233959   4.375   4.504   4.007  0.6523 -1.7539 -0.4004
 4182TIP3   OH233960   0.094   5.080   3.461  0.5577 -0.0867 -0.4960
 4182TIP3    H133961   0.124   5.170   3.445  0.5434 -0.2033 -1.1644
 4182TIP3    H233962   0.145   5.026   3.401 -0.4081 -0.3803 -1.0639
 4183TIP3   OH233963   5.410   5.462  15.394  0.0675 -0.2756  0.2753
 4183TIP3    H133964   5.331   5.443  15.344 -0.9934  0.7263  1.5510
 4183TIP3    H233965   5.459   5.523  15.338 -0.8208  0.3651  0.1775
 4184TIP3   OH233966   3.983   3.859   5.848  0.0499 -0.2205  0.3576
 4184TIP3    H133967   3.965   3.952   5.834 -1.3128 -0.6744 -1.0278
 4184TIP3    H233968   4.073   3.848   5.819  0.0596  0.5733  0.0635
 4185TIP3   OH233969   2.424   0.576   0.336  0.5190 -0.4962 -0.0182
 4185TIP3    H133970   2.415   0.512   0.266  0.4586  0.0478 -0.5118
 4185TIP3    H233971   2.452   0.656   0.291 -2.9777  0.8754  0.0965
 4186TIP3   OH233972   2.416   3.819  15.477 -0.1335  0.6937  0.0327
 4186TIP3    H133973   2.471   3.746  15.505  0.2603  1.4672  1.3561
 4186TIP3    H233974   2.408   3.808  15.383  0.8499 -0.4247  0.0595
 4187TIP3   OH233975   3.644   0.763   1.984  0.0354  0.0397 -0.0455
 4187TIP3    H133976   3.708   0.811   1.932 -0.2237 -0.1881 -0.5760
 4187TIP3    H233977   3.694   0.732   2.060  0.8904 -1.2512 -1.0946
 4188TIP3   OH233978   3.328   5.720   3.926 -0.1794 -0.4633  0.0989
 4188TIP3    H133979   3.277   5.763   3.857  1.0178  0.0288 -0.4834
 4188TIP3    H233980   3.303   5.767   4.006  1.1236  1.3665 -0.5278
 4189TIP3   OH233981   1.022   5.730  12.515 -0.4016  0.1527 -0.3262
 4189TIP3    H133982   0.949   5.777  12.553  0.5634 -0.2238  2.1010
 4189TIP3    H233983   1.017   5.642  12.554  0.1644 -0.4908 -1.6728
 4190TIP3   OH233984   2.844   6.646   3.537  0.6962 -0.4865  0.3068
 4190TIP3    H133985   2.791   6.581   3.490 -0.0314  0.3118  0.0083
 4190TIP3    H233986   2.934   6.626   3.513  0.4846 -1.4707  0.3237
 4191TIP3   OH233987   1.253   4.110  15.799 -0.0244  0.3524 -0.3070
 4191TIP3    H133988   1.294   4.047  15.741 -0.7889  0.0590 -0.5400
 4191TIP3    H233989   1.320   4.131  15.864 -0.2185 -1.8202  0.6371
 4192TIP3   OH233990   5.201   2.150   1.095  0.4440  0.2688 -0.0405
 4192TIP3    H133991   5.184   2.081   1.032 -1.6700  3.0835 -2.6679
 4192TIP3    H233992   5.158   2.120   1.176 -0.3375 -1.5207 -1.0964
 4193TIP3   OH233993   5.541   1.313   2.876 -0.1330 -0.2732  0.2566
 4193TIP3    H133994   5.622   1.348   2.914 -0.1920 -0.2011  0.3141
 4193TIP3    H233995   5.513   1.380   2.814 -0.3819 -0.1042  0.5541
 4194TIP3   OH233996   5.816   1.489  14.157  0.1735 -0.2742 -0.3040
 4194TIP3    H133997   5.829   1.466  14.249  2.2772  1.0331 -0.2413
 4194TIP3    H233998   5.872   1.427  14.108  0.5208  0.2535 -0.5777
 4195TIP3   OH233999   3.440   6.176   5.233 -0.2801  0.5150 -0.8682
 4195TIP3    H134000   3.511   6.116   5.211 -1.1523 -1.4643  1.4194
 4195TIP3    H234001   3.442   6.243   5.164  0.6397 -2.1936 -3.5716
 4196TIP3   OH234002   6.433   0.471   4.312 -0.1919 -0.2376  0.7086
 4196TIP3    H134003   6.396   0.544   4.363  0.7732  1.4810 -0.9658
 4196TIP3    H234004   6.517   0.454   4.353 -0.2498 -0.1289  0.8723
 4197TIP3   OH234005   6.625   4.095  11.543  0.0395 -0.2511 -0.0345
 4197TIP3    H134006   6.676   4.014  11.535  0.2577 -0.0842 -0.3529
 4197TIP3    H234007   6.584   4.090  11.630  2.4054  0.6516  1.1783
 4198TIP3   OH234008   4.856   5.149  17.012  0.4421  0.5244 -0.6541
 4198TIP3    H134009   4.936   5.112  17.051  0.4190 -0.1767 -1.2664
 4198TIP3    H234010   4.805   5.179  17.087  0.5449 -0.5233 -0.1631
 4199TIP3   OH234011   3.689   2.942   5.271  0.1589  0.0724  0.1795
 4199TIP3    H134012   3.768   2.975   5.313 -0.6984  0.3707  1.5983
 4199TIP3    H234013   3.673   2.857   5.313 -0.7577  0.4220  0.5610
 4200TIP3   OH234014   2.696   2.022   2.879  0.0623  1.0717  0.6012
 4200TIP3    H134015   2.761   2.070   2.930 -0.3434  0.3184  1.8758
 4200TIP3    H234016   2.637   1.985   2.945  0.7434 -1.7220 -0.2643
 4201TIP3   OH234017   1.823   5.396  12.604  0.6035  0.3192 -0.0826
 4201TIP3    H134018   1.761   5.436  12.664  0.3935 -0.0045 -0.0825
 4201TIP3    H234019   1.880   5.468  12.577  1.9212  0.1021  2.0129
 4202TIP3   OH234020   3.520   6.284   0.388 -0.0717  0.3700 -0.3357
 4202TIP3    H134021   3.455   6.222   0.420 -0.5608  0.6491 -0.7632
 4202TIP3    H234022   3.495   6.299   0.297  0.2778  0.8857 -0.3491
 4203TIP3   OH234023   6.320   4.782   0.211 -0.1563 -0.1764  0.0556
 4203TIP3    H134024   6.338   4.820   0.125  1.8649  0.2516  0.6277
 4203TIP3    H234025   6.230   4.752   0.206 -1.0347  2.5488 -1.2141
 4204TIP3   OH234026   3.082   2.867   6.175  0.3357 -0.0057  0.4352
 4204TIP3    H134027   3.003   2.902   6.133 -1.2878 -2.0141  1.7467
 4204TIP3    H234028   3.153   2.923   6.142 -1.1576 -0.1885 -3.2664
 4205TIP3   OH234029   0.101   3.662  15.964 -0.1735  0.3961 -0.3506
 4205TIP3    H134030   0.099   3.599  15.893  0.4627 -2.1180  1.8050
 4205TIP3    H234031   0.036   3.729  15.938 -0.7030 -0.9899 -2.7551
 4206TIP3   OH234032   2.353   4.242  16.559 -0.0485  0.1187  0.1197
 4206TIP3    H134033   2.351   4.330  16.521 -1.5976  0.4621  0.9670
 4206TIP3    H234034   2.445   4.229  16.583  0.2057  1.4778 -0.0724
 4207TIP3   OH234035   5.800   5.294  14.125  0.3214  0.1640  0.3812
 4207TIP3    H134036   5.864   5.354  14.164  0.3111  0.0720  0.5371
 4207TIP3    H234037   5.848   5.250  14.055 -0.3954  2.3152 -1.5483
 4208TIP3   OH234038   2.457   1.561   2.717  0.0808 -0.5916 -0.0574
 4208TIP3    H134039   2.548   1.582   2.693  1.1011 -1.4191  2.8877
 4208TIP3    H234040   2.459   1.466   2.732 -0.6833 -0.2256  2.4266
 4209TIP3   OH234041   5.125   6.084  16.724  0.7990 -0.0358 -0.3237
 4209TIP3    H134042   5.116   6.179  16.718  1.4270  0.0305 -0.2837
 4209TIP3    H234043   5.098   6.052  16.638 -1.7405 -0.0241  0.4221
 4210TIP3   OH234044   5.732   4.416  16.824 -0.1338 -0.3550  0.1130
 4210TIP3    H134045   5.777   4.365  16.892  1.0272  0.8225  0.2476
 4210TIP3    H234046   5.640   4.415  16.851  0.1568 -0.7957  1.1326
 4211TIP3   OH234047   3.276   1.450   5.668  0.4504  0.4346  0.5400
 4211TIP3    H134048   3.210   1.468   5.735  0.9377  2.4184  0.5033
 4211TIP3    H234049   3.226   1.419   5.592 -0.0694 -2.4099  1.9665
 4212TIP3   OH234050   0.253   2.975  12.052  0.5542 -0.0214  0.4197
 4212TIP3    H134051   0.247   2.880  12.048 -0.2979 -0.0152  1.2021
 4212TIP3    H234052   0.277   2.993  12.143  0.4486  0.5273  0.3394
 4213TIP3   OH234053   0.831   0.128  11.157 -0.0053  0.6341  0.9113
 4213TIP3    H134054   0.776   0.070  11.105  0.7813  0.0483  0.7192
 4213TIP3    H234055   0.800   0.216  11.136 -0.2664  0.3575  0.1144
 4214TIP3   OH234056   4.144   3.539  16.555 -0.9457 -0.6705 -0.2346
 4214TIP3    H134057   4.074   3.520  16.619 -2.3238  1.4509 -1.0695
 4214TIP3    H234058   4.225   3.526  16.604 -1.9700 -0.2841  1.6174
 4215TIP3   OH234059   6.535   2.512   0.405 -0.0947 -0.1749  0.0185
 4215TIP3    H134060   6.618   2.502   0.451 -0.0837 -0.1633  0.0011
 4215TIP3    H234061   6.482   2.438   0.436  0.3368 -0.8732 -0.8562
 4216TIP3   OH234062   0.329   2.637   2.095 -0.2905 -0.0897 -0.6717
 4216TIP3    H134063   0.272   2.678   2.031 -0.7712 -2.4242 -1.8076
 4216TIP3    H234064   0.414   2.631   2.052 -0.0822  0.2317 -0.3044
 4217TIP3   OH234065   3.105   1.458   5.985 -0.2396  0.0529  0.1190
 4217TIP3    H134066   3.168   1.506   6.039  0.0555  0.2450 -0.3973
 4217TIP3    H234067   3.035   1.433   6.046  0.3799 -0.2374  0.7095
 4218TIP3   OH234068   6.524   6.263  11.407 -0.3375  0.3497 -0.2147
 4218TIP3    H134069   6.494   6.244  11.496  2.1111 -1.8990  0.1841
 4218TIP3    H234070   6.468   6.210  11.351 -0.6712  0.3493  0.1146
 4219TIP3   OH234071   6.484   1.296   0.300  0.1497  0.0181  0.2949
 4219TIP3    H134072   6.438   1.247   0.368 -0.8495  1.1991  0.5015
 4219TIP3    H234073   6.456   1.256   0.217  0.6343 -0.8162  0.5371
 4220TIP3   OH234074   0.237   2.134   2.075 -0.3395 -0.4390  0.3084
 4220TIP3    H134075   0.196   2.049   2.091  0.6123 -1.3172 -1.6636
 4220TIP3    H234076   0.322   2.128   2.118 -0.0082 -0.7458 -0.3774
 4221TIP3   OH234077   3.041   2.433  17.116 -0.3126 -0.0761 -0.5006
 4221TIP3    H134078   3.090   2.491  17.058  0.3598  0.2637  0.3880
 4221TIP3    H234079   3.069   2.345  17.091 -1.0740 -0.0045 -1.6242
 4222TIP3   OH234080   5.893   3.422  17.093  0.1302  0.2922  0.1166
 4222TIP3    H134081   5.885   3.360  17.021  0.0917  0.1925  0.2080
 4222TIP3    H234082   5.971   3.474  17.071 -0.4733  0.9493 -0.5239
 4223TIP3   OH234083   2.358   6.691  14.231  0.1859 -0.0170 -0.3222
 4223TIP3    H134084   2.267   6.707  14.206  0.4847  2.1283 -0.2067
 4223TIP3    H234085   2.393   6.635  14.162 -0.7727  0.5184 -1.2635
 4224TIP3   OH234086   6.092   3.262   5.497 -0.3496  0.1045 -0.5956
 4224TIP3    H134087   6.091   3.337   5.557  0.7270  1.5652 -2.3481
 4224TIP3    H234088   6.002   3.229   5.499 -0.8720  1.5046  0.1423
 4225TIP3   OH234089   2.819   5.770   4.694  0.3473 -0.0157 -0.3353
 4225TIP3    H134090   2.745   5.741   4.641  0.2499  0.1227 -0.2776
 4225TIP3    H234091   2.882   5.699   4.688 -0.6939 -1.1200  1.4275
 4226TIP3   OH234092   5.771   0.519  17.082  0.9556  0.1728 -0.5486
 4226TIP3    H134093   5.851   0.536  17.132  0.8971  1.4542 -0.8589
 4226TIP3    H234094   5.802   0.479  17.001  1.3647  1.4214 -1.0255
 4227TIP3   OH234095   5.625   0.485  15.733  0.0341 -0.2934  0.8948
 4227TIP3    H134096   5.570   0.546  15.683  1.5511  0.3508 -0.0138
 4227TIP3    H234097   5.590   0.490  15.822  0.6342  2.5502  1.0274
 4228TIP3   OH234098   6.104   1.565  16.707 -0.0481 -0.4420 -0.6195
 4228TIP3    H134099   6.192   1.602  16.702 -0.0104  0.2838  3.3477
 4228TIP3    H234100   6.047   1.641  16.720 -0.9402 -1.0872 -0.6739
 4229TIP3   OH234101   6.600   6.042   2.167 -0.6151 -0.0436 -0.4871
 4229TIP3    H134102   6.507   6.027   2.152 -0.3103 -0.0204 -2.6132
 4229TIP3    H234103   6.614   6.132   2.138  0.2369 -0.3567 -1.0663
 4230TIP3   OH234104   1.459   3.765   1.446 -0.2175  0.3131  0.6114
 4230TIP3    H134105   1.368   3.777   1.419 -0.2031 -0.7452  0.0610
 4230TIP3    H234106   1.459   3.686   1.500  0.2727  0.6674  1.1387
 4231TIP3   OH234107   3.234   3.256  14.604 -0.1928 -0.0144 -0.5469
 4231TIP3    H134108   3.273   3.343  14.603  0.8543 -0.4893 -3.3471
 4231TIP3    H234109   3.143   3.271  14.629  0.0301  1.8620 -0.8001
 4232TIP3   OH234110   6.283   4.413  14.254 -0.2663 -0.1154 -0.7053
 4232TIP3    H134111   6.348   4.436  14.189 -1.0182  0.8633 -1.1335
 4232TIP3    H234112   6.233   4.341  14.215 -0.0624 -0.2222 -0.7685
 4233TIP3   OH234113   1.176   0.825   4.969 -0.5529  0.4031 -0.1155
 4233TIP3    H134114   1.263   0.815   5.007  0.0789  3.2108 -0.7826
 4233TIP3    H234115   1.165   0.746   4.915  2.4924  1.0548 -1.8079
 4234TIP3   OH234116   2.227   0.034  12.305  0.3319 -0.6555 -0.0405
 4234TIP3    H134117   2.170   0.079  12.367  1.8198 -0.6566  1.3571
 4234TIP3    H234118   2.236  -0.055  12.340  2.1286 -0.3170  0.3826
 4235TIP3   OH234119   2.258   3.332  15.709  0.3000  0.5928 -0.0602
 4235TIP3    H134120   2.227   3.242  15.716 -0.9001  0.7934 -2.3312
 4235TIP3    H234121   2.306   3.347  15.790 -1.9787 -1.1134  1.6762
 4236TIP3   OH234122   4.019   2.774   4.017  0.1435  0.1068  0.2444
 4236TIP3    H134123   4.077   2.766   3.941 -1.7588  0.8234 -1.3074
 4236TIP3    H234124   3.938   2.731   3.991 -0.1582 -0.6798  2.3127
 4237TIP3   OH234125   5.962   0.381   3.909  0.0262 -0.3847 -0.1160
 4237TIP3    H134126   5.868   0.374   3.892  0.1893 -0.0934 -1.1659
 4237TIP3    H234127   5.976   0.331   3.990 -1.3671  1.4283  1.2804
 4238TIP3   OH234128   5.898   6.612  14.735  0.0320  0.7067  0.0238
 4238TIP3    H134129   5.984   6.638  14.702 -0.4897  0.8023 -1.2862
 4238TIP3    H234130   5.840   6.618  14.659 -1.1227  0.5736  0.8778
 4239TIP3   OH234131   5.543   6.332   6.281 -0.2308  0.0788  0.0564
 4239TIP3    H134132   5.592   6.414   6.281 -0.8209  0.4410 -1.3129
 4239TIP3    H234133   5.608   6.265   6.302  0.7223  0.6307 -1.1042
 4240TIP3   OH234134   3.976   0.833   3.924  0.0613 -0.3852 -0.0902
 4240TIP3    H134135   4.059   0.829   3.876 -0.0086 -0.1901 -0.2252
 4240TIP3    H234136   4.003   0.847   4.015  0.2308 -1.8167  0.0939
 4241TIP3   OH234137   2.170   2.553  16.412  0.2930 -0.2249  0.2193
 4241TIP3    H134138   2.210   2.639  16.408 -3.0007  1.5608  2.9252
 4241TIP3    H234139   2.202   2.516  16.494  0.6675 -1.0546 -0.2937
 4242TIP3   OH234140   4.980   1.039   4.828  0.0735  0.1523 -0.1342
 4242TIP3    H134141   4.975   1.117   4.883  0.0346  2.5153 -3.3156
 4242TIP3    H234142   5.072   1.011   4.834  0.4603  1.3841 -0.1677
 4243TIP3   OH234143   5.173   3.476  12.004  0.1206 -0.6264 -0.3593
 4243TIP3    H134144   5.222   3.426  11.939  0.3436 -0.5406 -0.2585
 4243TIP3    H234145   5.116   3.534  11.952  1.3492  0.4798 -0.4938
 4244TIP3   OH234146   5.210   1.695  13.776 -0.1704  0.8473 -0.1703
 4244TIP3    H134147   5.296   1.661  13.752 -0.5563 -0.9092  0.7815
 4244TIP3    H234148   5.149   1.638  13.728 -0.8023  2.2834 -1.0941
 4245TIP3   OH234149   2.934   0.669  14.512  0.0454  0.6401  0.5673
 4245TIP3    H134150   2.984   0.590  14.490  1.4770  0.8358  2.9585
 4245TIP3    H234151   2.842   0.643  14.501  0.5449 -0.8243 -0.3034
 4246TIP3   OH234152   3.863   1.921   0.250  0.0237  0.1326  0.0197
 4246TIP3    H134153   3.945   1.969   0.241 -0.2909  0.9415  1.2739
 4246TIP3    H234154   3.845   1.923   0.344 -0.3109 -1.9208  0.0186
 4247TIP3   OH234155   3.125   1.381   5.374 -0.2202  0.0937 -0.3647
 4247TIP3    H134156   3.080   1.459   5.407 -0.4558  0.6721 -2.0307
 4247TIP3    H234157   3.130   1.394   5.280  0.7574 -1.3880 -0.5324
 4248TIP3   OH234158   2.228   2.618  12.516 -0.4354  1.0020 -0.7061
 4248TIP3    H134159   2.132   2.616  12.521 -0.4244 -0.9825 -0.9506
 4248TIP3    H234160   2.257   2.564  12.590  0.4629  0.5120 -1.4122
 4249TIP3   OH234161   1.303   5.114  10.611  0.1702 -0.5314 -0.8392
 4249TIP3    H134162   1.357   5.078  10.682  1.3003  1.2628 -0.7774
 4249TIP3    H234163   1.227   5.150  10.656  1.0402  0.8984 -0.4822
 4250TIP3   OH234164   2.578   0.711  17.019  0.3638 -0.1039  0.2233
 4250TIP3    H134165   2.513   0.752  16.963  0.5345 -1.0912 -0.7173
 4250TIP3    H234166   2.534   0.699  17.103  0.0220  1.1366  0.2290
 4251TIP3   OH234167   4.110   3.000   3.744 -0.0893 -0.0333  0.1239
 4251TIP3    H134168   4.027   2.993   3.697 -0.3375  1.8653  0.2745
 4251TIP3    H234169   4.174   3.024   3.677 -0.2144  1.4305  0.5090
 4252TIP3   OH234170   0.036   1.821   5.122  0.9762 -0.4590 -0.2592
 4252TIP3    H134171   0.044   1.737   5.167 -1.5444 -1.5145 -1.6435
 4252TIP3    H234172  -0.008   1.878   5.186 -0.4994 -1.2610 -0.5401
 4253TIP3   OH234173   2.359   0.495  11.598 -0.2141  0.3366  0.4927
 4253TIP3    H134174   2.370   0.581  11.557 -0.6728  0.9882  1.7040
 4253TIP3    H234175   2.347   0.435  11.525  0.1282  1.3076 -0.3687
 4254TIP3   OH234176   1.050   5.671  14.708 -0.5670  0.2169  0.0010
 4254TIP3    H134177   1.025   5.604  14.644 -1.0368 -1.1342  1.5558
 4254TIP3    H234178   1.129   5.636  14.749 -0.1991  1.1299  0.0891
 4255TIP3   OH234179   3.098   5.457   2.396  0.0443 -0.4669 -0.1427
 4255TIP3    H134180   3.066   5.508   2.321 -0.4524 -1.0379 -0.3252
 4255TIP3    H234181   3.193   5.465   2.391  0.0409 -0.9407 -1.1522
 4256TIP3   OH234182   0.960   6.527  16.719 -0.1242  0.8343  0.6096
 4256TIP3    H134183   0.870   6.553  16.738 -1.5658 -1.8100 -2.1638
 4256TIP3    H234184   0.971   6.547  16.625  1.6145 -0.3995  0.5296
 4257TIP3   OH234185   1.781   2.554   4.012  0.4051 -0.5806  0.3611
 4257TIP3    H134186   1.782   2.559   4.108 -0.1791  1.3595  0.2954
 4257TIP3    H234187   1.869   2.581   3.986 -0.0854  0.9868  0.2926
 4258TIP3   OH234188   2.125   2.068   6.015  0.1963 -0.4216 -0.1123
 4258TIP3    H134189   2.189   2.001   5.991  2.8613  1.8336  0.4233
 4258TIP3    H234190   2.074   2.029   6.085  1.5259 -2.0111  0.0014
 4259TIP3   OH234191   6.491   4.107  16.944 -0.2251 -0.0534  0.0211
 4259TIP3    H134192   6.413   4.152  16.913 -1.4725 -2.3261 -0.2314
 4259TIP3    H234193   6.487   4.020  16.903  0.9702 -1.1922  2.2223
 4260TIP3   OH234194   0.610   6.349  10.740 -1.0062 -0.0726 -0.6701
 4260TIP3    H134195   0.594   6.272  10.794 -2.5881  0.9218  0.3032
 4260TIP3    H234196   0.608   6.422  10.800 -0.6364  0.8486 -1.7558
 4261TIP3   OH234197   2.846   6.072  10.960  0.1487 -0.0233 -0.4167
 4261TIP3    H134198   2.849   6.167  10.955  0.5297  0.1901  2.7926
 4261TIP3    H234199   2.938   6.046  10.965 -0.0206 -0.4463  0.4623
 4262TIP3   OH234200   5.887   4.048  14.951  0.5467  0.2285  0.7322
 4262TIP3    H134201   5.846   4.135  14.953  0.7429  0.3076  1.5049
 4262TIP3    H234202   5.835   3.999  14.887  0.4035  0.8955  0.3292
 4263TIP3   OH234203   2.339   4.109  11.279  0.2427 -0.2523 -0.2299
 4263TIP3    H134204   2.387   4.112  11.362  0.8817  2.4446 -0.6728
 4263TIP3    H234205   2.407   4.096  11.213  0.2439  2.0446 -0.7152
 4264TIP3   OH234206   0.883   0.230  13.151  0.1118  0.5489  0.3726
 4264TIP3    H134207   0.901   0.158  13.211  1.9057  1.1461  0.5951
 4264TIP3    H234208   0.969   0.254  13.116 -0.6128  1.7674 -0.6353
 4265TIP3   OH234209   5.093   3.595   2.268 -0.3954 -0.6556  0.3971
 4265TIP3    H134210   5.058   3.583   2.356  0.2804 -0.0718  0.7462
 4265TIP3    H234211   5.101   3.506   2.233 -0.8013 -0.8777  0.8680
 4266TIP3   OH234212   6.393   6.370   3.698  0.1744  0.5501  0.0910
 4266TIP3    H134213   6.344   6.423   3.635  1.1271  2.8585  1.2417
 4266TIP3    H234214   6.327   6.338   3.759 -0.4309  0.2615 -0.7073
 4267TIP3   OH234215   2.460   1.794  11.337  0.5965  0.1410  0.4777
 4267TIP3    H134216   2.483   1.714  11.386  0.0741 -1.3342 -1.6294
 4267TIP3    H234217   2.519   1.793  11.261 -1.4909  0.1228 -1.1804
 4268TIP3   OH234218   4.249   3.777   4.505  0.0046  0.8420  0.6548
 4268TIP3    H134219   4.241   3.706   4.568 -0.4068 -0.9013 -1.3179
 4268TIP3    H234220   4.342   3.801   4.507  0.2693 -0.1992  0.8623
 4269TIP3   OH234221   3.801   2.775  13.586  0.2141 -0.7350  0.2266
 4269TIP3    H134222   3.831   2.764  13.676  0.8412  0.8324  0.2208
 4269TIP3    H234223   3.827   2.694  13.542 -0.4363 -1.6737  1.5360
 4270TIP3   OH234224   6.416   5.630  11.464  0.0407  0.3994  0.0743
 4270TIP3    H134225   6.346   5.681  11.506 -0.6859 -0.0855 -0.5211
 4270TIP3    H234226   6.495   5.683  11.475 -0.2206  0.4784  1.6679
 4271TIP3   OH234227   3.383   2.868  12.184 -0.2353  0.0710  0.2124
 4271TIP3    H134228   3.395   2.803  12.254 -0.4528 -0.8344 -0.5837
 4271TIP3    H234229   3.463   2.921  12.187  0.2189 -0.6125  0.4810
 4272TIP3   OH234230   5.052   0.014   4.763  0.8312 -0.0826  0.3289
 4272TIP3    H134231   5.001   0.091   4.786 -1.3549 -0.8807 -1.6419
 4272TIP3    H234232   5.073   0.026   4.670  4.9100  0.5520  1.2111
 4273TIP3   OH234233   5.614   1.772   4.741 -0.0279  0.6056 -0.1738
 4273TIP3    H134234   5.601   1.702   4.677  0.7120 -1.1079  1.5294
 4273TIP3    H234235   5.564   1.845   4.705  0.5787 -0.2169 -2.8472
 4274TIP3   OH234236   5.667   0.379  15.469  0.3780  0.5157 -0.1209
 4274TIP3    H134237   5.572   0.377  15.479  0.1249  1.2083 -2.1975
 4274TIP3    H234238   5.700   0.400  15.557 -1.2395 -2.1389  1.1651
 4275TIP3   OH234239   5.713   2.141   2.840  0.6458 -0.1483  0.0218
 4275TIP3    H134240   5.691   2.057   2.800 -0.1225  0.6064 -1.1951
 4275TIP3    H234241   5.798   2.163   2.803  1.6361 -1.1668  1.6349
 4276TIP3   OH234242   3.147   4.250   4.139  0.2669  0.4371 -0.3891
 4276TIP3    H134243   3.111   4.202   4.214  1.2475  1.1438  0.5412
 4276TIP3    H234244   3.082   4.237   4.070  1.0099 -3.0567 -0.4797
 4277TIP3   OH234245   3.888   3.697   5.463  0.0662  0.7492 -0.1961
 4277TIP3    H134246   3.828   3.742   5.404 -2.1676 -2.1680 -0.2844
 4277TIP3    H234247   3.859   3.722   5.551 -0.9901 -0.2214 -0.2496
 4278TIP3   OH234248   3.554   2.774  16.677 -0.1019  0.3471  0.2064
 4278TIP3    H134249   3.539   2.819  16.594 -1.8158 -0.1917  0.1875
 4278TIP3    H234250   3.545   2.681  16.655 -1.3062  0.2311  1.1092
 4279TIP3   OH234251   5.196   6.146   1.301 -0.1625  0.2551 -0.3183
 4279TIP3    H134252   5.273   6.092   1.283  0.7046  0.9703  1.1688
 4279TIP3    H234253   5.126   6.083   1.318  0.3430 -0.3943 -0.6203
 4280TIP3   OH234254   5.196   2.981   6.507  0.1932 -0.4922 -0.7624
 4280TIP3    H134255   5.248   3.048   6.464  0.9042  0.4882  1.5541
 4280TIP3    H234256   5.113   3.024   6.526  0.5526 -0.3367  0.4821
 4281TIP3   OH234257   6.197   5.528   1.424 -0.9652  0.3264  0.2083
 4281TIP3    H134258   6.111   5.568   1.410 -1.5268 -1.1439 -0.5453
 4281TIP3    H234259   6.182   5.434   1.421  0.7386  0.0459 -0.2924
 4282TIP3   OH234260   4.308   0.084  11.848 -0.1050 -0.1891 -0.3344
 4282TIP3    H134261   4.356   0.120  11.923  1.6145 -1.8064 -0.6327
 4282TIP3    H234262   4.293   0.159  11.791  0.6608  0.6296  0.5207
 4283TIP3   OH234263   2.524   4.703   1.742 -0.0808  0.1128 -0.0188
 4283TIP3    H134264   2.585   4.712   1.668  0.1054 -0.6884  0.0255
 4283TIP3    H234265   2.581   4.693   1.818 -0.2571 -0.6799  0.0180
 4284TIP3   OH234266   3.081   0.259   4.249 -0.2207  0.3297 -0.3202
 4284TIP3    H134267   3.034   0.246   4.331 -1.8507 -1.5960 -1.5109
 4284TIP3    H234268   3.114   0.349   4.254  1.8701 -0.5500  3.4898
 4285TIP3   OH234269   4.752   0.580  13.959  0.4921 -0.1427  0.3358
 4285TIP3    H134270   4.726   0.536  14.040  1.9428 -0.9656  0.3678
 4285TIP3    H234271   4.843   0.605  13.973  0.1733  1.4672 -0.3049
 4286TIP3   OH234272   2.858   6.437   1.480 -0.2995 -0.1562  0.6808
 4286TIP3    H134273   2.779   6.487   1.502  0.4563  0.8119  1.2116
 4286TIP3    H234274   2.929   6.483   1.525  1.0071  0.7642 -2.2295
 4287TIP3   OH234275   2.195   1.580   2.848 -1.0929 -0.0921 -0.0169
 4287TIP3    H134276   2.134   1.537   2.787  1.3638 -2.2893 -1.0211
 4287TIP3    H234277   2.280   1.576   2.803  0.1695  1.1623  2.1897
 4288TIP3   OH234278   5.720   3.295  15.861  0.4246  0.1964  0.5303
 4288TIP3    H134279   5.752   3.347  15.788  1.8780  1.2650  1.8839
 4288TIP3    H234280   5.659   3.353  15.907  1.6688  0.5682  1.7577
 4289TIP3   OH234281   3.025   6.725   2.069 -0.5301 -0.3272  0.0912
 4289TIP3    H134282   3.094   6.745   2.132 -0.0923  0.8686 -0.7703
 4289TIP3    H234283   2.980   6.809   2.055 -1.0958 -0.7461 -0.6250
 4290TIP3   OH234284   0.812   3.164   4.268 -0.1586 -0.2409 -0.2427
 4290TIP3    H134285   0.781   3.224   4.200  0.2007 -0.4989 -0.6350
 4290TIP3    H234286   0.732   3.131   4.310 -0.4185 -0.8303 -1.1854
 4291TIP3   OH234287   6.749   4.535  15.964 -0.1962 -0.1354 -0.0408
 4291TIP3    H134288   6.804   4.559  15.889 -0.4235  1.8428  0.4048
 4291TIP3    H234289   6.764   4.441  15.975  0.6017 -0.2607 -1.9480
 4292TIP3   OH234290   5.343   4.907   1.556  0.2611 -0.3082 -0.2072
 4292TIP3    H134291   5.399   4.855   1.614  0.6976 -0.1496 -0.4858
 4292TIP3    H234292   5.368   4.997   1.574 -1.2237 -0.1044  1.0435
 4293TIP3   OH234293   0.331   2.506   3.819 -0.7896 -0.1346  0.6681
 4293TIP3    H134294   0.403   2.568   3.812 -0.0086 -1.1046  0.0297
 4293TIP3    H234295   0.347   2.460   3.902 -1.4365  0.5817  1.2034
 4294TIP3   OH234296   4.179   0.237  12.144  0.0839 -0.0114  0.2944
 4294TIP3    H134297   4.245   0.217  12.078 -1.7651 -2.3981 -0.9136
 4294TIP3    H234298   4.171   0.155  12.194 -1.3591  0.5096  0.9336
 4295TIP3   OH234299   4.627   3.754   4.356 -0.1803 -0.4474  0.3663
 4295TIP3    H134300   4.712   3.771   4.315  0.2902 -0.8810  1.1486
 4295TIP3    H234301   4.596   3.674   4.314 -0.0507 -0.4687  0.3099
 4296TIP3   OH234302   3.416   4.967   0.744 -0.5875  0.1413  0.9202
 4296TIP3    H134303   3.469   4.995   0.819  1.6436 -0.0408 -0.5207
 4296TIP3    H234304   3.367   5.045   0.719  2.2578  1.6093 -0.3362
 4297TIP3   OH234305   4.134   5.948   1.996 -0.6313  0.5029 -0.0498
 4297TIP3    H134306   4.138   6.041   2.020 -0.6871  0.8042 -1.1454
 4297TIP3    H234307   4.060   5.943   1.935 -2.1798 -0.7096  1.8882
 4298TIP3   OH234308   4.107   6.780   3.718  0.1169  0.2670 -0.2788
 4298TIP3    H134309   4.177   6.800   3.780 -1.6567  1.2783  1.4777
 4298TIP3    H234310   4.135   6.819   3.635  0.7408  2.3565  0.8879
 4299TIP3   OH234311   2.933   5.877   4.473 -0.3501 -0.1451 -0.1159
 4299TIP3    H134312   2.852   5.925   4.456  0.6430  1.5250 -0.2594
 4299TIP3    H234313   2.916   5.830   4.555 -1.8296 -0.6770 -0.7047
 4300TIP3   OH234314   4.291   1.947   4.871  0.9040 -0.4478  0.5458
 4300TIP3    H134315   4.345   2.023   4.849 -0.3632 -0.0292 -1.2642
 4300TIP3    H234316   4.208   1.985   4.901  0.7979 -1.1131  1.1184
 4301TIP3   OH234317   6.154   2.441   0.163  0.5184  0.2915  0.8048
 4301TIP3    H134318   6.121   2.498   0.233 -0.7480 -0.5952  0.9286
 4301TIP3    H234319   6.102   2.465   0.086  1.1481  0.4840  0.4350
 4302TIP3   OH234320   0.581   2.241   2.832  0.5149 -0.0248  0.6920
 4302TIP3    H134321   0.554   2.329   2.809  0.2392 -0.4951 -0.8225
 4302TIP3    H234322   0.506   2.186   2.808  1.2391 -0.8389  0.2868
 4303TIP3   OH234323   4.384   0.053   0.959  0.8784 -0.1061  0.1762
 4303TIP3    H134324   4.378   0.014   0.871  0.1051 -1.4547  0.8022
 4303TIP3    H234325   4.477   0.048   0.981  0.9662 -0.4651 -0.2535
 4304TIP3   OH234326   4.232   3.289  15.204  0.1913  0.2721 -0.1672
 4304TIP3    H134327   4.267   3.320  15.120  0.9765 -2.0561 -0.7445
 4304TIP3    H234328   4.264   3.199  15.211 -1.8834 -0.3702  1.4899
 4305TIP3   OH234329   1.714   3.084  16.236  0.0325 -0.5715  0.3130
 4305TIP3    H134330   1.696   3.173  16.204  1.2251 -0.5122 -0.2305
 4305TIP3    H234331   1.802   3.065  16.203 -0.9761 -2.7062 -1.2785
 4306TIP3   OH234332   6.174   3.540   1.017  0.1245 -0.3023  0.3388
 4306TIP3    H134333   6.238   3.524   0.948  0.1446  0.2694  0.2287
 4306TIP3    H234334   6.129   3.620   0.991 -1.6366 -1.4886 -0.3190
 4307TIP3   OH234335   2.866   3.659  15.293  0.5464 -0.2068 -0.0118
 4307TIP3    H134336   2.811   3.643  15.217 -0.9172  2.9425  0.2822
 4307TIP3    H234337   2.945   3.699  15.257  1.1518 -1.5240 -0.1402
 4308TIP3   OH234338   5.910   4.222   4.110  0.5531  0.1718 -0.5790
 4308TIP3    H134339   5.874   4.220   4.021 -0.4311 -1.1040 -0.1608
 4308TIP3    H234340   5.836   4.201   4.166  1.8456 -2.1795  0.3100
 4309TIP3   OH234341   2.179   6.671   0.276  0.3095  0.6901  0.0165
 4309TIP3    H134342   2.253   6.631   0.229  0.5845  0.1304  0.9174
 4309TIP3    H234343   2.101   6.634   0.235  0.5668 -1.0844  1.1222
 4310TIP3   OH234344   3.018   0.288  11.383 -0.2263  0.3378 -0.1586
 4310TIP3    H134345   3.108   0.262  11.403 -0.8580 -0.8266  1.2953
 4310TIP3    H234346   3.012   0.379  11.412  0.7001  0.6862 -1.0202
 4311TIP3   OH234347   3.742   3.872  11.793 -0.1672 -0.3042  0.3714
 4311TIP3    H134348   3.791   3.872  11.710 -1.1661  1.5824 -0.2366
 4311TIP3    H234349   3.691   3.791  11.790  1.0055 -1.0446 -0.1170
 4312TIP3   OH234350   4.517   1.143  16.446 -0.0327 -0.6175  0.1997
 4312TIP3    H134351   4.558   1.176  16.526 -1.1138  1.5752 -0.0991
 4312TIP3    H234352   4.589   1.139  16.383  0.2580  0.6578  0.4250
 4313TIP3   OH234353   0.949   3.754   3.351 -0.3991 -0.1088  0.7955
 4313TIP3    H134354   0.920   3.664   3.363  0.5375 -0.6773 -0.9779
 4313TIP3    H234355   1.034   3.758   3.396 -1.5590  0.6130  3.0246
 4314TIP3   OH234356   4.099   2.559   3.447 -0.5976  0.0204 -0.2488
 4314TIP3    H134357   4.006   2.549   3.427 -0.6608  1.2340 -0.6008
 4314TIP3    H234358   4.134   2.610   3.374  0.2297  0.0613  0.1702
 4315TIP3   OH234359   0.649   0.552  11.819  0.2086  0.1596  0.0534
 4315TIP3    H134360   0.642   0.602  11.738 -0.9120  1.3843  0.8895
 4315TIP3    H234361   0.737   0.513  11.816  0.3048  0.4943 -1.5634
 4316TIP3   OH234362   6.705   6.478  13.403 -0.2472  0.1693 -0.5030
 4316TIP3    H134363   6.672   6.395  13.366  0.9883 -0.8830  0.7023
 4316TIP3    H234364   6.766   6.510  13.337 -2.3169  1.2331 -1.9467
 4317TIP3   OH234365   5.461   6.548  14.449 -0.6765 -0.2963  0.1131
 4317TIP3    H134366   5.553   6.535  14.471 -0.7139  0.1286  0.5368
 4317TIP3    H234367   5.416   6.474  14.490 -0.2360 -1.8805 -2.2073
 4318TIP3   OH234368   1.308   6.012   1.152 -0.1922  0.0791 -0.0296
 4318TIP3    H134369   1.319   6.027   1.058  0.5941  1.7073  0.3137
 4318TIP3    H234370   1.216   6.036   1.169 -0.2192  0.1708 -0.3023
 4319TIP3   OH234371   3.020   5.472   3.143 -0.1836 -0.6987 -0.4085
 4319TIP3    H134372   3.105   5.515   3.157  0.2430 -2.3314  2.2677
 4319TIP3    H234373   3.039   5.403   3.079  0.7686 -1.8234  1.0725
 4320TIP3   OH234374   3.523   3.790   1.823 -0.9197 -0.3671  0.1718
 4320TIP3    H134375   3.464   3.717   1.838  0.1805 -1.4276 -0.5331
 4320TIP3    H234376   3.533   3.794   1.728 -0.6273  0.4058  0.2322
 4321TIP3   OH234377   2.262   2.081   4.147  0.7712 -0.1116  0.0449
 4321TIP3    H134378   2.248   1.992   4.181  3.6758  0.5182  3.0792
 4321TIP3    H234379   2.357   2.091   4.145  0.4811  2.8233 -0.5887
 4322TIP3   OH234380   1.544   0.184  14.597 -0.7557 -0.2030 -0.4313
 4322TIP3    H134381   1.454   0.214  14.584 -1.7393 -3.2733 -1.1331
 4322TIP3    H234382   1.535   0.099  14.639  1.9268  0.4294  1.5462
 4323TIP3   OH234383   4.039   5.538   6.205  0.1738  0.2246 -0.0641
 4323TIP3    H134384   4.066   5.561   6.117  0.3810  0.6528  0.1115
 4323TIP3    H234385   4.021   5.622   6.248  0.3010  0.0303  0.3723
 4324TIP3   OH234386   2.353   3.016   0.226  0.3385 -0.3814  0.2137
 4324TIP3    H134387   2.337   2.963   0.148  0.8409  1.2908 -1.0761
 4324TIP3    H234388   2.297   2.978   0.293  0.8251 -2.6402 -0.6085
 4325TIP3   OH234389   2.579   4.067  13.920  0.1844 -0.1871 -0.2237
 4325TIP3    H134390   2.599   4.070  14.013 -0.6071  2.0429 -0.1085
 4325TIP3    H234391   2.644   4.007  13.883  1.8779  0.6309  1.4168
 4326TIP3   OH234392   5.714   3.505  13.271 -0.3465  0.0076  0.0095
 4326TIP3    H134393   5.768   3.534  13.197  1.0535  0.5610  1.2108
 4326TIP3    H234394   5.744   3.416  13.290  0.2036  0.3308  0.7075
 4327TIP3   OH234395   6.689   6.022  15.631  0.1653  0.0052 -0.1678
 4327TIP3    H134396   6.685   6.057  15.720  0.1102 -1.1235  0.2782
 4327TIP3    H234397   6.608   5.973  15.621  0.9233 -1.2608 -0.2405
 4328TIP3   OH234398   0.351   5.509  16.306 -0.4231  0.2339  0.1957
 4328TIP3    H134399   0.286   5.577  16.323  0.5382  0.9617  1.0321
 4328TIP3    H234400   0.306   5.446  16.251 -2.2260  0.1004  1.7970
 4329TIP3   OH234401   3.775   3.408   1.276  0.4534 -0.0092 -0.2874
 4329TIP3    H134402   3.692   3.437   1.237  0.6845 -0.2668 -0.9598
 4329TIP3    H234403   3.842   3.460   1.231  0.6301  0.4613  0.5098
 4330TIP3   OH234404   6.282   5.581   2.643  0.2663 -0.0320  0.5204
 4330TIP3    H134405   6.206   5.575   2.585  1.3769 -0.6311 -0.9051
 4330TIP3    H234406   6.355   5.550   2.589  1.3998 -0.1193  2.0954
 4331TIP3   OH234407   2.174   5.949  13.475 -0.4604 -0.4701 -0.2567
 4331TIP3    H134408   2.081   5.929  13.477 -0.3458 -1.0099 -0.1862
 4331TIP3    H234409   2.214   5.884  13.533  0.0447 -0.6888 -0.8434
 4332TIP3   OH234410   4.822   0.770   4.461 -0.0101 -0.7184  0.0326
 4332TIP3    H134411   4.887   0.827   4.502  0.2941 -0.8570 -0.2554
 4332TIP3    H234412   4.761   0.750   4.532  0.5320 -0.9826  0.4355
 4333TIP3   OH234413   3.379   6.649   3.319 -0.4440 -0.2397 -0.0755
 4333TIP3    H134414   3.334   6.574   3.279  0.7222 -1.0966  0.2033
 4333TIP3    H234415   3.472   6.633   3.302 -0.1510  0.8474  0.4982
 4334TIP3   OH234416   5.981   4.650   1.894  0.2995  0.0344 -0.0287
 4334TIP3    H134417   6.020   4.563   1.882 -0.4034 -0.5117  1.5191
 4334TIP3    H234418   5.894   4.632   1.929 -0.2712  1.3437 -0.7379
 4335TIP3   OH234419   2.536   0.275  12.986  0.4811 -0.3965 -0.2442
 4335TIP3    H134420   2.561   0.245  13.073  3.1049 -1.6252 -1.3387
 4335TIP3    H234421   2.537   0.370  12.992 -0.3270 -0.4814  1.3175
 4336TIP3   OH234422   6.615   1.735  15.949 -0.1008 -0.4650  0.3892
 4336TIP3    H134423   6.617   1.692  15.863  3.7813  0.1840  0.0674
 4336TIP3    H234424   6.592   1.826  15.929  0.2494 -0.4385  0.0919
 4337TIP3   OH234425   4.387   6.056   0.158  0.1544  0.2882  0.3673
 4337TIP3    H134426   4.478   6.033   0.179  0.0592 -0.2278  0.2241
 4337TIP3    H234427   4.387   6.151   0.153  0.7412  0.2776  0.1312
 4338TIP3   OH234428   0.574   0.352  11.511  0.0109 -0.0178 -0.5486
 4338TIP3    H134429   0.652   0.325  11.559 -0.8666 -0.9549  0.3771
 4338TIP3    H234430   0.505   0.294  11.543 -1.6993  2.5814  0.6661
 4339TIP3   OH234431   2.112   2.531   1.652 -1.3190 -0.0062  0.1336
 4339TIP3    H134432   2.170   2.592   1.607  0.1177 -1.4284  0.0300
 4339TIP3    H234433   2.079   2.580   1.727  0.5533  0.6003  0.5755
 4340TIP3   OH234434   4.962   4.512  16.145  0.3175 -0.5366 -0.2276
 4340TIP3    H134435   4.960   4.416  16.149  2.3303 -0.5645  0.4111
 4340TIP3    H234436   4.870   4.537  16.134 -0.0722 -2.6152 -2.2608
 4341TIP3   OH234437   3.152   5.850  15.813 -0.3605 -0.4506  0.0028
 4341TIP3    H134438   3.155   5.944  15.793 -1.2067 -0.3806  0.1867
 4341TIP3    H234439   3.169   5.807  15.730  0.3717 -0.1318 -0.0143
 4342TIP3   OH234440   1.086   3.557  10.858 -0.2427  0.6710  0.4171
 4342TIP3    H134441   1.037   3.613  10.797 -1.0609  0.3497  0.7768
 4342TIP3    H234442   1.170   3.543  10.815 -0.8803  0.2956 -0.7288
 4343TIP3   OH234443   1.927   1.856   0.228  0.0025 -0.2075 -0.8427
 4343TIP3    H134444   1.860   1.892   0.286  1.9368  1.4872  0.4207
 4343TIP3    H234445   1.896   1.877   0.140 -1.5999 -0.3467 -0.3358
 4344TIP3   OH234446   1.220   0.084  14.272 -0.2123  0.2346  0.4629
 4344TIP3    H134447   1.238  -0.006  14.300 -0.3134  0.3515  0.9022
 4344TIP3    H234448   1.306   0.119  14.249 -0.3151 -0.3569 -0.8469
 4345TIP3   OH234449   1.658   2.680  12.312  0.3600 -0.5596  0.3167
 4345TIP3    H134450   1.597   2.720  12.250  0.1984  0.7083  1.2835
 4345TIP3    H234451   1.699   2.609  12.262 -0.4980 -0.1990 -0.9306
 4346TIP3   OH234452   3.632   6.674  15.965 -0.2085 -0.0518  0.0749
 4346TIP3    H134453   3.719   6.638  15.983 -2.0064 -3.2016  3.2309
 4346TIP3    H234454   3.607   6.635  15.881  0.5612 -0.8489  0.2063
 4347TIP3   OH234455   3.156   1.762  12.892  0.1080 -0.2640  0.0247
 4347TIP3    H134456   3.151   1.840  12.948 -0.3654 -0.9329  0.9365
 4347TIP3    H234457   3.064   1.736  12.880  0.2094 -0.1260 -1.0700
 4348TIP3   OH234458   1.449   2.244  12.881 -0.5563 -0.6272 -0.1074
 4348TIP3    H134459   1.407   2.239  12.967 -0.7937  1.6708 -0.0342
 4348TIP3    H234460   1.534   2.203  12.893  0.4451  1.8788  1.9587
 4349TIP3   OH234461   2.382   0.715  15.235  0.2276 -0.2909 -0.1447
 4349TIP3    H134462   2.466   0.733  15.279  0.1191  1.1543 -0.5112
 4349TIP3    H234463   2.375   0.619  15.237  2.3895 -0.5018 -1.0552
 4350TIP3   OH234464   4.667   4.069   5.244  0.5000  0.6975  0.2114
 4350TIP3    H134465   4.683   4.162   5.229 -0.0672  0.8678  0.6451
 4350TIP3    H234466   4.747   4.026   5.215  1.0035  1.3715  0.5884
 4351TIP3   OH234467   6.629   3.135   4.028 -0.0596  0.7938 -0.2148
 4351TIP3    H134468   6.602   3.224   4.053 -0.0718  1.0528 -1.1257
 4351TIP3    H234469   6.553   3.099   3.981 -0.0378  0.3208  0.1105
 4352TIP3   OH234470   2.660   2.553  15.565  0.0543 -0.2057 -0.2939
 4352TIP3    H134471   2.595   2.593  15.507 -1.3929 -0.7874  0.8780
 4352TIP3    H234472   2.609   2.492  15.620  1.4167  0.1146  1.3873
 4353TIP3   OH234473   0.907   0.169   5.635  1.1519  0.3864  0.1135
 4353TIP3    H134474   0.868   0.250   5.671  0.4332  0.3499 -0.5655
 4353TIP3    H234475   0.997   0.170   5.666  1.9568  2.8312 -2.1092
 4354TIP3   OH234476   2.781   4.259  10.930  0.5001  0.3279  0.5268
 4354TIP3    H134477   2.738   4.328  10.880  1.1925  0.5752  0.2664
 4354TIP3    H234478   2.765   4.179  10.879 -0.3395  0.2894  0.8506
 4355TIP3   OH234479   4.052   4.629  14.089  0.6417  0.4875 -0.4866
 4355TIP3    H134480   4.090   4.544  14.111 -2.3769 -1.1958 -1.5244
 4355TIP3    H234481   4.115   4.668  14.028  0.3776 -2.5940 -2.8416
 4356TIP3   OH234482   1.205   4.533  16.341  0.4689 -0.0121 -0.2950
 4356TIP3    H134483   1.243   4.588  16.410 -0.5653  1.0857 -0.5737
 4356TIP3    H234484   1.209   4.588  16.262 -1.5832  0.1017 -0.3561
 4357TIP3   OH234485   0.001   4.114   1.250 -0.1764  0.7159 -0.3785
 4357TIP3    H134486   0.052   4.173   1.195  2.0121  0.2281  1.0755
 4357TIP3    H234487   0.005   4.152   1.337 -2.1818  0.5709 -0.2056
 4358TIP3   OH234488   6.288   2.611  14.043  0.3296  0.4692  0.9476
 4358TIP3    H134489   6.336   2.621  13.960  2.7857 -0.9490  2.1286
 4358TIP3    H234490   6.301   2.519  14.067 -2.1594  0.3251  1.8736
 4359TIP3   OH234491   0.035   3.614  13.886 -0.2473  0.3299  0.7458
 4359TIP3    H134492   0.091   3.539  13.868 -0.6029  0.0968  0.5926
 4359TIP3    H234493   0.030   3.618  13.981 -0.9778 -0.4069  0.7387
 4360TIP3   OH234494   2.656   5.103   5.661  0.2112 -0.2961 -1.0595
 4360TIP3    H134495   2.571   5.111   5.618 -0.0444 -0.7889 -0.6451
 4360TIP3    H234496   2.640   5.046   5.736  1.0542 -0.9476 -1.3700
 4361TIP3   OH234497   6.468   2.787  14.450  0.3871  0.4343  0.3511
 4361TIP3    H134498   6.432   2.824  14.531  0.4147 -1.4222  1.2331
 4361TIP3    H234499   6.563   2.796  14.459  0.3168  3.0950 -0.9004
 4362TIP3   OH234500   0.893   1.464   0.167  0.2113 -0.2112  0.3788
 4362TIP3    H134501   0.849   1.503   0.091 -0.5571 -2.3844 -0.3135
 4362TIP3    H234502   0.986   1.481   0.152 -0.0555  0.7386 -0.2529
 4363TIP3   OH234503   2.682   1.407   0.291 -0.2918 -0.0539  0.1278
 4363TIP3    H134504   2.594   1.422   0.325 -0.3782 -1.5544  0.5833
 4363TIP3    H234505   2.722   1.494   0.290 -1.8520  0.6639 -0.3151
 4364TIP3   OH234506   5.043   3.350   3.615 -0.5941 -0.4123  0.1127
 4364TIP3    H134507   5.023   3.257   3.625  1.3418 -0.6573  1.8010
 4364TIP3    H234508   5.055   3.382   3.704  3.5587  0.3720 -0.6237
 4365TIP3   OH234509   0.676   2.659   5.668 -0.1274 -0.1141 -0.3332
 4365TIP3    H134510   0.594   2.619   5.639 -0.8666  0.9808  0.2010
 4365TIP3    H234511   0.740   2.588   5.662 -1.0640 -0.9337 -0.9466
 4366TIP3   OH234512   2.847   5.460   4.128  0.1753 -0.0198 -0.5029
 4366TIP3    H134513   2.834   5.400   4.201 -0.9125 -0.0743 -0.7334
 4366TIP3    H234514   2.937   5.491   4.138 -0.0007  0.0595  0.9186
 4367TIP3   OH234515   6.656   6.464   0.147 -0.3728  0.3141  0.1911
 4367TIP3    H134516   6.619   6.430   0.229 -0.9538 -1.2832 -0.6959
 4367TIP3    H234517   6.646   6.391   0.085 -0.8388  1.8358 -1.5564
 4368TIP3   OH234518   2.268   5.255  12.066  0.3088  0.0787 -0.3518
 4368TIP3    H134519   2.172   5.255  12.061  0.0688 -1.0007  2.9113
 4368TIP3    H234520   2.292   5.347  12.068 -0.9112  0.3815  1.8761
 4369TIP3   OH234521   3.580   3.318   1.585 -0.2142 -0.2339  0.2140
 4369TIP3    H134522   3.671   3.348   1.588  0.0328 -0.9645  0.1555
 4369TIP3    H234523   3.542   3.366   1.511  1.2466 -2.9315 -2.4088
 4370TIP3   OH234524   3.530   5.860  14.234  0.7341 -0.1135 -0.0554
 4370TIP3    H134525   3.596   5.817  14.179  0.8787 -0.4608  0.3879
 4370TIP3    H234526   3.568   5.859  14.322  0.8063  1.0739 -0.0665
 4371TIP3   OH234527   6.171   0.918  15.394 -0.1417  0.0009 -0.1585
 4371TIP3    H134528   6.191   0.828  15.368  0.2871 -0.2010  0.8360
 4371TIP3    H234529   6.226   0.972  15.337  1.9745 -0.4902  1.3481
 4372TIP3   OH234530   3.792   1.372  12.056  0.4577 -0.2005 -0.9399
 4372TIP3    H134531   3.868   1.332  12.013 -0.9038 -1.2924 -2.3690
 4372TIP3    H234532   3.768   1.310  12.125  1.3480  0.5403  0.0524
 4373TIP3   OH234533   5.762   4.107  15.294 -0.5663 -0.3346 -0.2023
 4373TIP3    H134534   5.693   4.066  15.346 -0.5567  0.1721  0.2149
 4373TIP3    H234535   5.715   4.161  15.230 -0.5428  1.0842  0.9637
 4374TIP3   OH234536   6.243   3.857   2.040 -0.5054  0.6481  0.1436
 4374TIP3    H134537   6.312   3.868   1.974 -0.6334 -1.7041 -0.4566
 4374TIP3    H234538   6.290   3.845   2.122 -0.2537  0.7491  0.0157
 4375TIP3   OH234539   5.797   2.029   3.153  0.2120  0.4358  0.1808
 4375TIP3    H134540   5.775   1.936   3.148 -1.6312  0.8789 -0.1630
 4375TIP3    H234541   5.738   2.071   3.090 -0.9010  2.1841  2.3316
 4376TIP3   OH234542   4.080   2.523  13.633  0.1778 -0.0270 -0.1302
 4376TIP3    H134543   4.141   2.497  13.702 -0.2298  0.5689  0.4580
 4376TIP3    H234544   4.097   2.616  13.620  1.4034 -0.4809 -1.9992
 4377TIP3   OH234545   2.837   5.866   5.599 -0.3605  0.3429  0.3283
 4377TIP3    H134546   2.807   5.849   5.510  1.5153 -2.4788  0.1684
 4377TIP3    H234547   2.764   5.912   5.641 -2.0222 -0.0313 -2.0869
 4378TIP3   OH234548   3.058   1.646  14.691 -0.2522 -0.0426 -0.1199
 4378TIP3    H134549   3.030   1.587  14.622  0.7471 -0.5811 -0.0777
 4378TIP3    H234550   3.065   1.731  14.649 -0.7727 -0.1469 -0.4102
 4379TIP3   OH234551   2.100   5.166  16.606  0.3306  0.1276  0.4346
 4379TIP3    H134552   2.088   5.261  16.596  1.4987  0.1664 -0.7680
 4379TIP3    H234553   2.032   5.127  16.551 -1.4333  0.2337  2.4904
 4380TIP3   OH234554   4.812   0.147  11.832 -0.2407 -0.8256 -0.1277
 4380TIP3    H134555   4.730   0.128  11.787 -0.5263  0.8138 -0.3579
 4380TIP3    H234556   4.807   0.097  11.914 -2.9123  1.6752  1.3320
 4381TIP3   OH234557   4.075   1.323   5.633 -0.0653  0.1835 -0.3893
 4381TIP3    H134558   4.017   1.283   5.698 -1.0991  0.1457 -1.3234
 4381TIP3    H234559   4.156   1.270   5.638 -0.0546  0.2952  0.9770
 4382TIP3   OH234560   0.991   5.762  16.836  0.0011  0.2152 -0.2391
 4382TIP3    H134561   1.074   5.716  16.848  0.4221  1.5212  2.2848
 4382TIP3    H234562   0.924   5.696  16.856  0.4370 -0.5223 -1.1489
 4383TIP3   OH234563   4.783   0.798   0.636  0.0369  0.3154  0.6033
 4383TIP3    H134564   4.820   0.874   0.590  0.3952 -0.3226 -0.1727
 4383TIP3    H234565   4.836   0.791   0.715  1.1721 -0.1944 -0.1847
 4384TIP3   OH234566   2.596   2.617   0.823  0.1346  0.0395  0.0498
 4384TIP3    H134567   2.589   2.709   0.796 -1.0757  0.0108  0.2159
 4384TIP3    H234568   2.510   2.580   0.801  1.1347 -1.4535 -1.4861
 4385TIP3   OH234569   2.041   6.536  15.465  0.0265 -0.5874  0.1609
 4385TIP3    H134570   2.122   6.497  15.434  2.1252  2.7240  1.1539
 4385TIP3    H234571   2.042   6.625  15.429 -1.2953  0.7282  3.1856
 4386TIP3   OH234572   3.529   3.508  15.168 -0.0014 -0.4329  0.3357
 4386TIP3    H134573   3.478   3.455  15.230  0.4310 -1.2165  0.0360
 4386TIP3    H234574   3.616   3.467  15.168  0.0146 -0.4080 -0.7516
 4387TIP3   OH234575   6.332   2.395   2.488  1.0771 -0.3418  0.5290
 4387TIP3    H134576   6.343   2.469   2.546 -2.8291 -0.8255  2.0635
 4387TIP3    H234577   6.354   2.318   2.541 -2.3441 -0.7718  1.4511
 4388TIP3   OH234578   4.583   0.241  15.935  0.1667 -0.4228 -0.1591
 4388TIP3    H134579   4.493   0.270  15.922  0.3784  0.3540  0.0791
 4388TIP3    H234580   4.619   0.302  16.000  0.9924 -0.4631 -0.5692
 4389TIP3   OH234581   2.151   1.055  12.261  0.0347  0.7918  0.4007
 4389TIP3    H134582   2.197   1.100  12.190  0.3932  1.6643  1.1912
 4389TIP3    H234583   2.188   1.092  12.341 -1.9780  1.4367  1.0500
 4390TIP3   OH234584   5.459   6.748  16.983  0.0395 -0.0340  0.2742
 4390TIP3    H134585   5.386   6.724  17.040 -1.1945  0.8500 -0.8824
 4390TIP3    H234586   5.482   6.666  16.938 -1.2907 -0.0189 -0.4859
 4391TIP3   OH234587   0.934   2.666   2.616 -0.8238 -0.1587 -0.2568
 4391TIP3    H134588   0.974   2.592   2.661  0.2741  0.7541  0.3078
 4391TIP3    H234589   0.847   2.674   2.656 -0.3319 -0.1404  0.8301
 4392TIP3   OH234590   4.394   2.955  15.767  0.2723  0.7356  0.1531
 4392TIP3    H134591   4.427   2.870  15.796 -0.8804  0.3751  0.4142
 4392TIP3    H234592   4.306   2.961  15.803 -0.2719  1.3287 -1.2263
 4393TIP3   OH234593   4.279   5.982  14.013  0.1254 -0.2609 -0.2374
 4393TIP3    H134594   4.317   5.898  13.985  1.3123  0.2838 -0.2949
 4393TIP3    H234595   4.351   6.028  14.055 -1.0031 -0.0307  1.5205
 4394TIP3   OH234596   4.355   5.905   0.844  0.6525 -0.0182  0.1846
 4394TIP3    H134597   4.283   5.957   0.807  0.1865 -1.4657 -1.0189
 4394TIP3    H234598   4.433   5.937   0.799  0.6807  1.0877  0.9987
 4395TIP3   OH234599   3.900   1.653  16.442  0.1711 -0.0248  0.3248
 4395TIP3    H134600   3.939   1.678  16.359 -0.6504 -3.1761 -1.0585
 4395TIP3    H234601   3.814   1.695  16.442  0.1224 -0.1293 -0.4538
 4396TIP3   OH234602   2.339   2.673  16.115  0.1991  0.1253 -0.8394
 4396TIP3    H134603   2.405   2.646  16.052  0.8194  2.2976 -1.1611
 4396TIP3    H234604   2.302   2.754  16.079 -0.3945  0.6634  0.8994
 4397TIP3   OH234605   3.024   3.275   5.928 -0.1818 -0.4361  0.3201
 4397TIP3    H134606   2.963   3.345   5.953 -0.8394 -0.7579 -0.3520
 4397TIP3    H234607   3.091   3.276   5.996 -0.5138  0.4502  0.6435
 4398TIP3   OH234608   5.678   5.415  16.971  0.5471 -0.3312 -0.2225
 4398TIP3    H134609   5.607   5.362  17.007 -0.3914  0.8667 -0.3070
 4398TIP3    H234610   5.727   5.445  17.047  2.0748 -2.6367 -0.2256
 4399TIP3   OH234611   3.677   2.464   2.749 -0.0456 -0.4693  0.3625
 4399TIP3    H134612   3.698   2.556   2.733 -1.3706 -0.2114  0.0755
 4399TIP3    H234613   3.673   2.424   2.662 -0.2683 -0.6201  0.4404
 4400TIP3   OH234614   6.051   2.278   5.180  0.2376  0.0442 -0.4590
 4400TIP3    H134615   6.134   2.263   5.224 -0.1991 -1.3701 -0.1142
 4400TIP3    H234616   6.045   2.209   5.114 -1.0092 -0.3117  0.0172
 4401TIP3   OH234617   5.438   6.527   1.815 -0.6885  0.3105  0.5039
 4401TIP3    H134618   5.486   6.449   1.843 -0.9626  0.2549  0.8273
 4401TIP3    H234619   5.497   6.571   1.753  0.2278  0.8048  1.6912
 4402TIP3   OH234620   5.026   4.193   0.229  0.1634 -0.2124 -0.7641
 4402TIP3    H134621   4.931   4.182   0.230  0.1337  0.0631 -0.4290
 4402TIP3    H234622   5.060   4.107   0.254 -0.0125 -0.1600 -0.3362
 4403TIP3   OH234623   6.679   4.238  13.476  0.0162 -0.1185 -0.6012
 4403TIP3    H134624   6.721   4.226  13.561  0.4820 -0.0549 -0.8241
 4403TIP3    H234625   6.739   4.198  13.414 -0.1237  0.2218 -0.9529
 4404TIP3   OH234626   6.670   3.261   5.875 -0.3354  0.3921  0.2565
 4404TIP3    H134627   6.639   3.182   5.831  1.2845 -0.2558  0.2532
 4404TIP3    H234628   6.735   3.230   5.937  0.8245  1.8045 -0.2394
 4405TIP3   OH234629   4.504   3.076   0.112 -0.4973 -0.0833 -0.3342
 4405TIP3    H134630   4.432   3.123   0.070  1.9518  2.3045 -2.0532
 4405TIP3    H234631   4.492   3.093   0.206 -1.5410  1.2405 -0.6837
 4406TIP3   OH234632   6.695   5.644  15.072 -0.2954 -0.3676 -0.1193
 4406TIP3    H134633   6.619   5.668  15.126 -1.3238 -0.2361 -1.5904
 4406TIP3    H234634   6.735   5.570  15.119 -0.0277  0.9834  1.8139
 4407TIP3   OH234635   5.852   1.639  12.755 -0.0100  0.4364  0.5911
 4407TIP3    H134636   5.855   1.597  12.669 -3.3833  0.6505  0.3163
 4407TIP3    H234637   5.820   1.570  12.813 -1.9438  1.5516  0.8517
 4408TIP3   OH234638   6.749   2.149  16.016 -0.6605  0.5322 -0.1198
 4408TIP3    H134639   6.706   2.085  16.073  0.5550  1.5139  1.9496
 4408TIP3    H234640   6.683   2.217  16.000 -0.5533  0.9709  1.3000
 4409TIP3   OH234641   1.353   0.649  16.520 -0.2505 -0.2789 -0.3475
 4409TIP3    H134642   1.396   0.718  16.571 -1.1046  0.8228 -1.0891
 4409TIP3    H234643   1.305   0.598  16.585  2.0687 -1.4737  0.4814
 4410TIP3   OH234644   4.877   3.257   2.400 -0.0095 -0.4281  0.0440
 4410TIP3    H134645   4.826   3.328   2.440  0.0617  0.7506 -1.9299
 4410TIP3    H234646   4.968   3.277   2.424  0.2072  1.1460 -1.9235
 4411TIP3   OH234647   2.111   1.483   2.000 -0.2769 -0.0514 -0.3325
 4411TIP3    H134648   2.117   1.439   2.085  1.3462  0.5391 -0.1317
 4411TIP3    H234649   2.042   1.436   1.953 -2.0508  0.3842  1.7751
 4412TIP3   OH234650   6.299   2.355  12.238  0.0662 -0.0734 -0.2437
 4412TIP3    H134651   6.370   2.408  12.203 -1.6389  1.1608 -1.9567
 4412TIP3    H234652   6.328   2.265  12.227 -0.5741  0.2021 -5.4683
 4413TIP3   OH234653   5.091   3.982   1.217  0.2553 -0.4044  0.1831
 4413TIP3    H134654   5.042   3.911   1.259 -0.5436  0.8519  1.4141
 4413TIP3    H234655   5.070   4.059   1.269  2.4429  0.4273 -0.1303
 4414TIP3   OH234656   3.481   6.616  11.578 -0.7777 -0.2935 -0.3024
 4414TIP3    H134657   3.515   6.577  11.497  1.2478  2.3991 -0.8307
 4414TIP3    H234658   3.550   6.600  11.642 -0.9521  0.3977  0.0572
 4415TIP3   OH234659   6.389   5.117  12.599  0.2004  0.4438 -0.8139
 4415TIP3    H134660   6.428   5.043  12.646 -0.8264 -1.6622 -3.1349
 4415TIP3    H234661   6.314   5.143  12.653  0.1653 -0.6845 -0.3075
 4416TIP3   OH234662   4.982   2.219   2.674  0.0457  0.0968  0.2849
 4416TIP3    H134663   5.044   2.263   2.615 -1.1166  0.7793 -0.4440
 4416TIP3    H234664   5.013   2.240   2.762  1.2546 -0.1444 -0.0795
 4417TIP3   OH234665   0.933   1.164   2.631 -0.1311 -0.1261  0.5499
 4417TIP3    H134666   1.020   1.203   2.628  0.3663 -1.2553 -0.0043
 4417TIP3    H234667   0.908   1.153   2.539 -0.3971 -0.8183  0.7005
 4418TIP3   OH234668   0.022   0.467  14.936  0.6028  0.2629 -0.1057
 4418TIP3    H134669  -0.070   0.459  14.961  1.0780  0.4075  1.7890
 4418TIP3    H234670   0.048   0.378  14.913  0.3568 -0.0399  0.7560
 4419TIP3   OH234671   0.021   0.169  12.336  0.4843  0.3108  0.3633
 4419TIP3    H134672  -0.039   0.232  12.297  0.6703  0.3140  0.0806
 4419TIP3    H234673  -0.016   0.084  12.314  1.3767  0.2909 -1.0775
 4420TIP3   OH234674   3.619   1.232  13.741  0.0937  0.4318  0.0393
 4420TIP3    H134675   3.589   1.145  13.770  0.6059  0.2439  0.0120
 4420TIP3    H234676   3.710   1.236  13.769 -0.0653  1.1509  0.4506
 4421TIP3   OH234677   4.586   0.294  13.969  0.3235 -0.2347 -0.3220
 4421TIP3    H134678   4.632   0.317  13.888 -0.4405  0.4591 -0.5714
 4421TIP3    H234679   4.493   0.309  13.949  0.0039 -1.3311  0.2619
 4422TIP3   OH234680   3.190   2.617  10.689 -0.1594  0.1419  0.2146
 4422TIP3    H134681   3.131   2.555  10.731 -0.5658 -1.1770 -2.2046
 4422TIP3    H234682   3.256   2.563  10.646  0.6912  1.4717 -0.1845
 4423TIP3   OH234683   6.716   6.115  16.827  0.1677 -0.4018  0.2402
 4423TIP3    H134684   6.769   6.081  16.754  0.2303  0.8881 -0.3468
 4423TIP3    H234685   6.761   6.197  16.852 -1.5310  0.7074 -0.2614
 4424TIP3   OH234686   3.499   4.748   1.603 -0.2975 -0.2395 -0.5477
 4424TIP3    H134687   3.429   4.738   1.539 -0.6902  1.7230 -0.4666
 4424TIP3    H234688   3.579   4.731   1.554 -0.7657 -1.5054 -0.8864
 4425TIP3   OH234689   1.062   4.931   3.244  0.0289 -0.6728 -0.5399
 4425TIP3    H134690   1.128   4.958   3.181 -0.4182 -0.1778 -0.8040
 4425TIP3    H234691   1.042   4.840   3.221  0.7251 -0.8751 -0.3576
 4426TIP3   OH234692   1.783   3.252  13.941  0.0028  0.1220 -0.5785
 4426TIP3    H134693   1.714   3.305  13.981  1.5464 -0.3124  2.8429
 4426TIP3    H234694   1.815   3.198  14.013  3.2199 -0.3846 -2.3404
 4427TIP3   OH234695   4.225   4.471  10.951  0.3164 -0.2289 -1.0285
 4427TIP3    H134696   4.174   4.526  11.010  0.8052  0.9124 -1.6351
 4427TIP3    H234697   4.187   4.384  10.960 -0.4402  0.1928  0.0023
 4428TIP3   OH234698   4.381   6.361  14.531 -0.3219  0.1530 -0.5721
 4428TIP3    H134699   4.297   6.403  14.551 -0.2774 -0.2753  0.5315
 4428TIP3    H234700   4.419   6.342  14.616  1.0653  0.6667 -1.0669
 4429TIP3   OH234701   3.488   6.192  15.746 -0.0320 -0.0907  0.2717
 4429TIP3    H134702   3.427   6.119  15.744 -0.7289  0.4432  1.4684
 4429TIP3    H234703   3.465   6.245  15.669 -0.0203 -0.7205 -0.1690
 4430TIP3   OH234704   3.540   0.136  11.467 -0.1438 -0.7899 -0.3308
 4430TIP3    H134705   3.614   0.115  11.524 -0.1180 -2.1086 -0.8387
 4430TIP3    H234706   3.535   0.232  11.469  1.0032 -0.7360  0.4295
 4431TIP3   OH234707   0.763   1.202   1.721  0.2050 -0.2575  0.7232
 4431TIP3    H134708   0.780   1.158   1.637 -0.7637  0.5214  0.1171
 4431TIP3    H234709   0.753   1.294   1.698 -0.7488 -0.1382  1.6147
 4432TIP3   OH234710   6.034   2.110   1.152  0.6102 -0.4586  0.2995
 4432TIP3    H134711   6.055   2.024   1.189 -0.7066 -0.6089  0.7115
 4432TIP3    H234712   6.063   2.104   1.061  3.0709 -0.3831  1.0180
 4433TIP3   OH234713   4.606   2.328  11.330 -0.2745  0.0059 -0.4133
 4433TIP3    H134714   4.633   2.386  11.401  0.4092 -0.7048 -0.0831
 4433TIP3    H234715   4.584   2.246  11.373  1.3204 -0.8258 -1.1161
 4434TIP3   OH234716   1.148   0.195  15.687  0.0622  0.3446 -0.0532
 4434TIP3    H134717   1.092   0.247  15.629  0.0553  0.4934  0.0870
 4434TIP3    H234718   1.120   0.104  15.671 -0.3100  0.4265  0.1110
 4435TIP3   OH234719   3.964   1.018  11.563  0.3185  0.6722 -0.2768
 4435TIP3    H134720   4.000   0.930  11.569  0.3998  0.7408  0.3082
 4435TIP3    H234721   3.987   1.048  11.475  2.4984  1.0729  0.3963
 4436TIP3   OH234722   6.682   0.060  14.163 -0.2881  0.3368  0.5948
 4436TIP3    H134723   6.690   0.153  14.143 -0.8883  0.4024  0.6532
 4436TIP3    H234724   6.636   0.023  14.088 -0.0558  0.0876  0.5753
 4437TIP3   OH234725   1.384   3.851   1.070 -0.4017 -0.0071  0.5126
 4437TIP3    H134726   1.475   3.853   1.099 -0.1935 -1.8391  0.0360
 4437TIP3    H234727   1.342   3.785   1.126 -1.1993  0.0892  0.0454
 4438TIP3   OH234728   3.214   3.350  13.211  0.2984 -0.5258 -0.1953
 4438TIP3    H134729   3.215   3.294  13.288  0.4598  0.4471  0.5316
 4438TIP3    H234730   3.146   3.415  13.230  0.5828 -0.0694 -0.7212
 4439TIP3   OH234731   4.089   4.860   2.619  0.3311  0.0824  0.0504
 4439TIP3    H134732   4.063   4.783   2.568  1.1255  1.0747 -1.9314
 4439TIP3    H234733   4.179   4.878   2.591  0.6155  0.9407  1.4767
 4440TIP3   OH234734   5.907   4.815   5.299 -0.4812 -0.5089  0.2557
 4440TIP3    H134735   5.981   4.874   5.315  1.2796 -1.4966 -3.4345
 4440TIP3    H234736   5.881   4.785   5.386  3.2848  0.1435  1.7345
 4441TIP3   OH234737   6.055   4.080   0.677  0.0836 -0.1586  0.2599
 4441TIP3    H134738   5.987   4.021   0.643  0.8526  0.2812 -2.1273
 4441TIP3    H234739   6.135   4.028   0.676  0.4202  0.3588 -0.1835
 4442TIP3   OH234740   3.955   2.894   2.017 -0.1332 -0.0490  0.1784
 4442TIP3    H134741   3.984   2.808   1.986  0.8049  0.7586 -1.3109
 4442TIP3    H234742   3.875   2.912   1.967  0.5265  0.5846 -0.6855
 4443TIP3   OH234743   6.539   2.518   1.835 -0.6242 -0.0674  0.5098
 4443TIP3    H134744   6.583   2.453   1.890 -1.4650  1.3195  2.8570
 4443TIP3    H234745   6.571   2.602   1.867 -0.5153  0.7537 -1.6732
 4444TIP3   OH234746   1.864   4.053  13.405 -0.0347 -0.7009  0.4840
 4444TIP3    H134747   1.884   3.960  13.403  0.7142 -0.5343 -0.0562
 4444TIP3    H234748   1.826   4.068  13.492 -1.3902 -1.7469  0.0843
 4445TIP3   OH234749   6.696   3.278   5.482 -0.2046 -0.0574  0.0624
 4445TIP3    H134750   6.619   3.324   5.449 -1.3536  0.1110  2.7924
 4445TIP3    H234751   6.743   3.343   5.534  0.4398 -0.8263  0.4679
 4446TIP3   OH234752   3.483   3.836  13.624 -0.3215  0.5420  0.4839
 4446TIP3    H134753   3.559   3.893  13.635 -0.3498  0.4894  0.9626
 4446TIP3    H234754   3.420   3.866  13.691 -0.0276 -0.5505  1.2588
 4447TIP3   OH234755   4.335   5.426  13.495 -0.7303 -0.0759 -0.3792
 4447TIP3    H134756   4.330   5.519  13.475 -4.8377  0.0204  0.5077
 4447TIP3    H234757   4.256   5.389  13.456 -0.2261 -2.8133  1.0741
 4448TIP3   OH234758   2.670   2.781  16.355  0.8216 -0.0602 -0.6407
 4448TIP3    H134759   2.691   2.690  16.378  0.9009  0.4731  1.5374
 4448TIP3    H234760   2.718   2.796  16.273  2.9909 -1.1819  0.3587
 4449TIP3   OH234761   3.541   3.434   2.520 -0.6336  0.1445 -0.1881
 4449TIP3    H134762   3.496   3.488   2.455 -0.7830  0.6595  0.3448
 4449TIP3    H234763   3.529   3.480   2.603  0.3549 -0.0254  0.0619
 4450TIP3   OH234764   2.938   3.748  16.179 -0.1363 -0.1316  0.4150
 4450TIP3    H134765   3.009   3.730  16.241  0.8269  2.1266  0.0323
 4450TIP3    H234766   2.891   3.821  16.218  1.4851  2.4248 -2.2583
 4451TIP3   OH234767   4.599   6.775   6.199  0.4554 -0.2067  0.3406
 4451TIP3    H134768   4.606   6.868   6.176 -2.0606  0.4871  2.2203
 4451TIP3    H234769   4.648   6.768   6.281 -1.0496 -0.0961  1.2644
 4452TIP3   OH234770   3.306   1.796  12.658 -0.1326  0.1234 -0.0920
 4452TIP3    H134771   3.305   1.734  12.731  1.3579  0.8878  0.6085
 4452TIP3    H234772   3.295   1.882  12.699 -0.2206  0.4865 -0.8656
 4453TIP3   OH234773   0.348   0.477   4.510 -0.3747  0.6067 -0.3880
 4453TIP3    H134774   0.380   0.414   4.445  0.7642 -0.5687  1.2732
 4453TIP3    H234775   0.296   0.539   4.460 -0.3604 -0.8707 -2.2710
 4454TIP3   OH234776   5.222   1.649  14.036 -0.2051 -0.1510 -0.5256
 4454TIP3    H134777   5.199   1.557  14.040  1.3303 -0.5549 -0.8767
 4454TIP3    H234778   5.205   1.675  13.946 -0.9052 -0.0017 -0.3569
 4455TIP3   OH234779   1.619   4.987   1.768 -0.5300 -0.2096 -0.3898
 4455TIP3    H134780   1.644   4.918   1.829 -1.7494 -1.2932 -1.0982
 4455TIP3    H234781   1.615   5.066   1.823  4.1542  0.0298 -0.2199
 4456TIP3   OH234782   6.595   1.169   3.532 -0.2805  0.2395  0.0087
 4456TIP3    H134783   6.553   1.255   3.523  1.1237  1.2493  2.6739
 4456TIP3    H234784   6.549   1.127   3.605  0.1751 -0.5936 -0.1793
 4457TIP3   OH234785   5.903   1.672   6.615  0.3104 -0.5270 -0.7594
 4457TIP3    H134786   5.855   1.593   6.637 -0.8805  0.1309 -0.9454
 4457TIP3    H234787   5.875   1.693   6.526 -0.2914  0.7466 -0.2867
 4458TIP3   OH234788   4.285   0.302  10.414  0.1556 -0.0138 -0.9502
 4458TIP3    H134789   4.306   0.302  10.321  2.3467  0.6318 -0.4889
 4458TIP3    H234790   4.321   0.384  10.447 -3.5687  1.3920 -0.1182
 4459TIP3   OH234791   5.443   4.299  14.478  0.0084  0.0038  0.3804
 4459TIP3    H134792   5.514   4.274  14.537 -0.2290  0.1930  0.7484
 4459TIP3    H234793   5.483   4.363  14.419  0.5716 -1.1028 -0.4616
 4460TIP3   OH234794   0.864   5.147  13.609 -0.2141  0.1167 -0.0260
 4460TIP3    H134795   0.902   5.065  13.640  1.4718  0.8118 -0.2278
 4460TIP3    H234796   0.824   5.125  13.525  1.7976 -0.1081 -0.9398
 4461TIP3   OH234797   3.553   1.317   3.807 -0.3580  0.1209 -0.3289
 4461TIP3    H134798   3.522   1.245   3.753 -0.5441  0.1086 -0.2035
 4461TIP3    H234799   3.512   1.304   3.892  1.2586 -0.8136  0.3293
 4462TIP3   OH234800   0.300   3.610  11.322 -0.4058  0.5259  0.3333
 4462TIP3    H134801   0.303   3.574  11.411 -0.6586 -1.0517 -0.2939
 4462TIP3    H234802   0.336   3.541  11.267 -1.4336  1.0094 -0.9511
 4463TIP3   OH234803   0.129   0.184  15.498 -0.1916  0.1043 -0.0816
 4463TIP3    H134804   0.114   0.089  15.504  0.4864 -0.0653 -0.9658
 4463TIP3    H234805   0.042   0.223  15.504 -0.5644 -0.6279 -0.6674
 4464TIP3   OH234806   2.273   3.674  13.854 -0.0272 -0.8218  0.0554
 4464TIP3    H134807   2.307   3.760  13.881 -2.0683  0.0569 -0.1421
 4464TIP3    H234808   2.223   3.644  13.930 -0.5425 -1.1825 -0.4288
 4465TIP3   OH234809   1.703   5.056  10.501  0.0800 -0.0961  0.8870
 4465TIP3    H134810   1.689   4.985  10.564 -2.6820  0.0101  0.4331
 4465TIP3    H234811   1.700   5.136  10.553  2.7900 -0.2337  1.3353
 4466TIP3   OH234812   3.864   0.116   5.944  0.2751  0.0952 -0.3518
 4466TIP3    H134813   3.817   0.095   5.864  2.2080 -0.0312 -1.4959
 4466TIP3    H234814   3.852   0.210   5.956  0.4894  0.2264 -1.1419
 4467TIP3   OH234815   6.604   2.995  14.264  0.6096  0.3951 -0.1486
 4467TIP3    H134816   6.569   2.937  14.332 -0.5103 -0.4939 -1.4387
 4467TIP3    H234817   6.530   3.048  14.237  0.9009  0.3400 -1.0757
 4468TIP3   OH234818   4.637   6.192  11.238  0.2336  0.1487 -0.0674
 4468TIP3    H134819   4.729   6.214  11.224  0.5014  0.4320  2.0407
 4468TIP3    H234820   4.628   6.104  11.202  0.9263  0.7240 -1.7376
 4469TIP3   OH234821   4.294   3.747   0.230  0.2983  0.5492 -0.4423
 4469TIP3    H134822   4.290   3.839   0.203 -1.9834  0.9124  0.9976
 4469TIP3    H234823   4.249   3.745   0.315  2.3828 -1.5134  0.6557
 4470TIP3   OH234824   0.676   6.313   1.962 -0.0294 -0.0218  0.0406
 4470TIP3    H134825   0.712   6.240   1.911  0.6709  0.9982 -0.9489
 4470TIP3    H234826   0.634   6.369   1.897  1.2499  1.5223  0.5149
 4471TIP3   OH234827   6.306   1.212  13.606 -0.5353 -0.0069  0.5250
 4471TIP3    H134828   6.251   1.207  13.684 -1.8581 -2.1989 -0.4970
 4471TIP3    H234829   6.386   1.165  13.629 -0.8739 -0.5407  0.6089
 4472TIP3   OH234830   4.987   6.783   1.246  0.0224  0.0412  0.4558
 4472TIP3    H134831   4.993   6.749   1.335  0.4663  0.8705  0.7430
 4472TIP3    H234832   5.070   6.760   1.206 -1.1452 -2.5807 -0.5520
 4473TIP3   OH234833   6.507   1.379  17.180  0.0148 -0.3419  0.0560
 4473TIP3    H134834   6.590   1.390  17.225 -0.3202 -0.7948  0.7872
 4473TIP3    H234835   6.450   1.335  17.243 -0.7139 -0.2348 -0.5101
 4474TIP3   OH234836   2.082   3.774   2.171  0.4304 -0.1137  0.1927
 4474TIP3    H134837   2.080   3.700   2.231  2.6652  0.2069  0.7037
 4474TIP3    H234838   2.165   3.765   2.125  0.6151  1.9277  0.0881
 4475TIP3   OH234839   3.929   0.366  15.597  0.3413 -0.4073 -0.0704
 4475TIP3    H134840   4.013   0.363  15.550  0.5687  0.9204  0.2436
 4475TIP3    H234841   3.942   0.309  15.672  0.6788 -0.8793 -0.4784
 4476TIP3   OH234842   5.192   6.780  17.105  0.1139  0.1225 -0.3138
 4476TIP3    H134843   5.212   6.686  17.110 -2.0204 -0.2830  1.4481
 4476TIP3    H234844   5.125   6.793  17.173 -0.1464  2.7739 -1.0584
 4477TIP3   OH234845   0.384   3.278  16.494  0.6471 -0.4555 -0.1874
 4477TIP3    H134846   0.440   3.305  16.422 -1.5436 -0.6638 -2.0322
 4477TIP3    H234847   0.437   3.216  16.544  2.2168 -0.2889 -1.6014
 4478TIP3   OH234848   0.839   4.171  11.750  0.5659 -0.0369  0.1790
 4478TIP3    H134849   0.768   4.232  11.730 -0.9769 -1.3155  1.6315
 4478TIP3    H234850   0.842   4.113  11.673  0.4180  0.3592 -0.1322
 4479TIP3   OH234851   2.280   6.063  14.477  0.5026  0.3297  0.2798
 4479TIP3    H134852   2.322   6.135  14.525 -1.9508  1.9829  0.0548
 4479TIP3    H234853   2.206   6.038  14.532  1.4178 -2.2101  0.4461
 4480TIP3   OH234854   1.456   2.646  14.406 -0.2692 -1.0490  0.4642
 4480TIP3    H134855   1.439   2.556  14.378 -1.5466 -0.9325  0.8205
 4480TIP3    H234856   1.537   2.670  14.362 -1.6859 -1.2311 -2.3310
 4481TIP3   OH234857   4.547   2.320   5.844 -0.4364 -0.2003  0.0479
 4481TIP3    H134858   4.463   2.299   5.884 -0.5330 -1.0356 -0.5728
 4481TIP3    H234859   4.566   2.409   5.873 -1.4436 -0.0781  0.3539
 4482TIP3   OH234860   2.411   3.330  15.946 -0.3577  0.0216  0.3915
 4482TIP3    H134861   2.465   3.405  15.921 -2.4992  1.2272 -0.7431
 4482TIP3    H234862   2.363   3.360  16.023 -0.0967 -0.7288  0.8538
 4483TIP3   OH234863   6.127   4.179  12.245  0.6126 -0.1367 -0.5199
 4483TIP3    H134864   6.206   4.127  12.229  1.6140 -0.0364  3.5859
 4483TIP3    H234865   6.055   4.115  12.245  0.9864 -0.5709 -1.8164
 4484TIP3   OH234866   1.890   2.448  17.147  0.0619 -0.3089 -0.3479
 4484TIP3    H134867   1.872   2.405  17.064 -1.1146 -0.1145 -0.1975
 4484TIP3    H234868   1.974   2.492  17.133 -0.0359 -0.4279 -1.3639
 4485TIP3   OH234869   4.780   5.171  12.881 -0.4010  0.4352 -0.3935
 4485TIP3    H134870   4.787   5.131  12.968 -0.0155  0.5506 -0.3697
 4485TIP3    H234871   4.837   5.247  12.885  1.4245 -0.8316 -1.4497
 4486TIP3   OH234872   3.400   4.174   0.492 -0.2349 -0.2745 -0.1865
 4486TIP3    H134873   3.318   4.211   0.461 -0.8053 -0.3008  1.2639
 4486TIP3    H234874   3.429   4.233   0.562  1.5990  0.4000 -1.4549
 4487TIP3   OH234875   6.267   4.694  17.052 -0.6463  0.0978  0.1300
 4487TIP3    H134876   6.272   4.788  17.068 -1.0938  0.0910  0.3016
 4487TIP3    H234877   6.359   4.667  17.041 -0.4064  0.2688  1.6598
 4488TIP3   OH234878   1.865   5.444  16.504 -0.1475 -0.1327 -0.6510
 4488TIP3    H134879   1.831   5.524  16.464 -0.6069  0.2191  0.4178
 4488TIP3    H234880   1.948   5.428  16.461 -0.4165  0.5000 -1.4077
 4489TIP3   OH234881   6.536   2.739   3.425 -0.0145  0.9717 -0.2145
 4489TIP3    H134882   6.549   2.661   3.371 -1.5087  0.7991 -0.3615
 4489TIP3    H234883   6.613   2.743   3.482  0.9366  0.4112 -1.4426
 4490TIP3   OH234884   6.763   1.532  13.511  0.3108 -0.0561  0.0824
 4490TIP3    H134885   6.839   1.474  13.506 -0.3240 -1.0370  1.6081
 4490TIP3    H234886   6.690   1.480  13.479 -0.0401  0.3057  0.2833
 4491TIP3   OH234887   3.549   5.843   2.535  0.0790 -0.3774 -0.4761
 4491TIP3    H134888   3.456   5.855   2.553  0.3998  1.3822  0.0932
 4491TIP3    H234889   3.553   5.823   2.442 -0.7873  0.6120 -0.7378
 4492TIP3   OH234890   2.842   3.379   0.007  0.5990  0.3037 -0.2205
 4492TIP3    H134891   2.881   3.408   0.089  1.2723  0.2101 -0.4996
 4492TIP3    H234892   2.885   3.295  -0.012  0.3835  0.2818 -0.6201
 4493TIP3   OH234893   1.247   0.714   3.842 -0.0276 -0.5087  0.2764
 4493TIP3    H134894   1.237   0.682   3.752  0.8795  0.8011 -0.2963
 4493TIP3    H234895   1.309   0.786   3.836 -3.4943  2.7457  1.2475
 4494TIP3   OH234896   5.789   5.647  11.890  0.2376 -0.5470 -0.4210
 4494TIP3    H134897   5.744   5.699  11.823 -0.9105 -1.0413 -0.0480
 4494TIP3    H234898   5.812   5.711  11.958 -1.4969 -0.5555  0.2042
 4495TIP3   OH234899   3.822   2.917  15.190 -0.2300 -0.0419 -0.4211
 4495TIP3    H134900   3.875   2.839  15.175 -2.0515 -1.0397 -1.8374
 4495TIP3    H234901   3.770   2.898  15.267 -0.1685  0.0513 -0.3559
 4496TIP3   OH234902   5.362   1.028  14.917 -0.4134  0.1033  0.4673
 4496TIP3    H134903   5.346   1.097  14.981  0.8437  0.4194  0.4617
 4496TIP3    H234904   5.275   0.995  14.895 -1.0349  1.6955  0.4473
 4497TIP3   OH234905   1.166   2.933  15.838  0.0400 -0.3483  0.2432
 4497TIP3    H134906   1.175   3.019  15.796  0.9585 -1.1507 -1.2180
 4497TIP3    H234907   1.084   2.940  15.888 -1.5114  0.3581 -2.2923
 4498TIP3   OH234908   0.596   5.087  12.005  0.2134 -0.6135 -0.3061
 4498TIP3    H134909   0.542   5.128  12.073  0.3547 -1.1204  0.1098
 4498TIP3    H234910   0.657   5.155  11.979  0.1703 -0.4227  0.0871
 4499TIP3   OH234911   3.759   1.977   5.216 -0.3444  0.0445 -0.0686
 4499TIP3    H134912   3.674   1.993   5.174 -0.6203 -1.2519 -0.0211
 4499TIP3    H234913   3.767   1.882   5.219 -0.2738  0.0997  2.7167
 4500TIP3   OH234914   2.554   4.043  12.455 -0.3009 -0.1426  0.5902
 4500TIP3    H134915   2.611   4.095  12.399 -0.7649  0.6320  0.8238
 4500TIP3    H234916   2.575   4.073  12.544  0.0257 -0.9507  0.7835
 4501TIP3   OH234917   4.301   2.038  17.153 -0.2430  0.4142  0.2107
 4501TIP3    H134918   4.313   2.017  17.246 -0.0893  0.4936  0.2103
 4501TIP3    H234919   4.206   2.047  17.142 -0.4004 -1.4802 -0.0582
 4502TIP3   OH234920   2.740   1.374   3.250 -0.7168  0.0688  0.1420
 4502TIP3    H134921   2.760   1.308   3.316  0.5755 -0.7576 -1.0701
 4502TIP3    H234922   2.668   1.336   3.199  0.0914 -0.4521 -0.6162
 4503TIP3   OH234923   2.010   1.681  16.600  0.5626 -0.2976  0.2995
 4503TIP3    H134924   2.092   1.644  16.633 -0.0680 -2.9304 -0.9141
 4503TIP3    H234925   2.030   1.705  16.509  0.2693 -0.0194  0.3062
 4504TIP3   OH234926   4.746   5.648  12.956 -0.5553  0.2262  0.0715
 4504TIP3    H134927   4.653   5.671  12.951 -0.8613 -1.0213 -0.0202
 4504TIP3    H234928   4.770   5.668  13.047 -0.5840  1.7344 -0.2290
 4505TIP3   OH234929   4.576   0.205  11.319 -0.4356 -0.0357 -0.0621
 4505TIP3    H134930   4.527   0.212  11.236 -0.2708  0.7079 -0.1060
 4505TIP3    H234931   4.571   0.113  11.342  1.5207 -0.7183 -2.1422
 4506TIP3   OH234932   4.151   4.547   1.688 -0.4149  0.4382  0.3531
 4506TIP3    H134933   4.232   4.594   1.708 -0.5670  0.2280  1.4835
 4506TIP3    H234934   4.132   4.570   1.597  0.7407  0.7421  0.1834
 4507TIP3   OH234935   3.504   4.968  15.770  0.5577 -0.2007 -0.6103
 4507TIP3    H134936   3.468   4.887  15.807  0.4222  0.8022  1.5229
 4507TIP3    H234937   3.515   4.949  15.677 -3.4375 -1.2600 -0.9507
 4508TIP3   OH234938   2.800   4.640  14.155  0.3017 -0.1142 -0.2072
 4508TIP3    H134939   2.708   4.632  14.130  0.2231  0.9695 -0.3067
 4508TIP3    H234940   2.848   4.595  14.085  0.0134  2.0018 -1.8327
 4509TIP3   OH234941   5.943   3.148   2.772 -0.0018  0.1961 -0.1952
 4509TIP3    H134942   5.939   3.112   2.684  0.4824 -2.0338  0.6680
 4509TIP3    H234943   6.005   3.092   2.819 -0.6760  0.9900  1.7249
 4510TIP3   OH234944   1.453   6.601   3.861  0.0305  0.0856 -0.0722
 4510TIP3    H134945   1.391   6.668   3.835  0.5285  0.4535 -0.3347
 4510TIP3    H234946   1.474   6.555   3.779  1.1594  0.8700 -0.2413
 4511TIP3   OH234947   5.947   6.247  12.960  0.2262 -0.0071 -0.0920
 4511TIP3    H134948   5.988   6.297  13.031  0.9998 -0.5267 -0.1678
 4511TIP3    H234949   6.020   6.211  12.910 -0.2855  1.3001 -1.8419
 4512TIP3   OH234950   3.087   1.078   3.977 -0.2042 -0.5160 -0.0777
 4512TIP3    H134951   3.122   0.989   3.982 -1.0196 -0.8518 -0.3290
 4512TIP3    H234952   3.121   1.121   4.055  2.2614 -0.3038 -1.2243
 4513TIP3   OH234953   5.202   0.099  15.776 -0.0495 -0.2290  0.3387
 4513TIP3    H134954   5.259   0.175  15.769  0.2533 -0.5053 -0.2619
 4513TIP3    H234955   5.260   0.024  15.758 -0.6282 -0.5029 -0.3721
 4514TIP3   OH234956   2.183   0.286   0.733 -0.4871 -0.2439  0.1948
 4514TIP3    H134957   2.231   0.243   0.661  0.8286 -1.1489  1.5762
 4514TIP3    H234958   2.138   0.214   0.777 -0.2281  0.1325  1.0704
 4515TIP3   OH234959   2.886   5.435  11.340 -0.2607  0.3761 -0.2860
 4515TIP3    H134960   2.945   5.470  11.273 -0.4095 -1.0547 -1.1848
 4515TIP3    H234961   2.941   5.427  11.418  0.4067  0.2609 -0.7598
 4516TIP3   OH234962   5.172   3.144  15.652 -0.0651  0.3461  0.5038
 4516TIP3    H134963   5.145   3.217  15.708 -1.1297  0.3768 -0.0426
 4516TIP3    H234964   5.100   3.132  15.590 -0.5554 -2.0786  1.4709
 4517TIP3   OH234965   4.123   5.211   5.389  0.1424 -0.2998  0.4743
 4517TIP3    H134966   4.155   5.204   5.479  1.7924  1.2058  0.0337
 4517TIP3    H234967   4.188   5.164   5.337 -1.2947 -1.9681  0.1413
 4518TIP3   OH234968   6.341   5.996   4.823  0.2068  0.1158 -0.3350
 4518TIP3    H134969   6.331   6.054   4.748 -0.4085  0.8808  0.3159
 4518TIP3    H234970   6.419   6.028   4.869 -1.8573  2.4344  1.7154
 4519TIP3   OH234971   6.299   1.400   3.738  0.1280  0.5647 -0.2028
 4519TIP3    H134972   6.308   1.358   3.824 -1.1264  0.9129  0.1036
 4519TIP3    H234973   6.206   1.391   3.716  0.2555  1.3441 -1.0837
 4520TIP3   OH234974   3.792   1.997  14.946 -0.1852 -0.0271  0.1561
 4520TIP3    H134975   3.819   2.089  14.939 -1.1717  0.1215 -2.2861
 4520TIP3    H234976   3.696   2.000  14.943 -0.1868 -1.2280 -1.3906
 4521TIP3   OH234977   1.347   3.511   0.906 -0.4036  0.0026 -0.5960
 4521TIP3    H134978   1.406   3.510   0.982 -0.5676 -0.7157 -0.4684
 4521TIP3    H234979   1.259   3.511   0.944 -0.4846 -0.3946 -0.7773
 4522TIP3   OH234980   6.292   6.205  11.203  0.1441 -0.5739 -0.2707
 4522TIP3    H134981   6.207   6.182  11.167 -0.2588  0.2688  0.1281
 4522TIP3    H234982   6.338   6.121  11.212 -0.5252 -0.9971 -0.7754
 4523TIP3   OH234983   4.864   6.759   0.987 -0.6253 -0.1260 -0.5412
 4523TIP3    H134984   4.898   6.780   1.074 -1.0664 -1.5212 -0.0101
 4523TIP3    H234985   4.930   6.701   0.948 -0.7046  0.0255 -0.9011
 4524TIP3   OH234986   4.932   0.692  14.462  0.0979  0.0050 -0.0294
 4524TIP3    H134987   4.845   0.685  14.422  0.1299  1.2251 -0.3609
 4524TIP3    H234988   4.925   0.646  14.545 -0.6610 -0.5132 -0.3757
 4525TIP3   OH234989   3.299   3.981  13.826 -0.5156  0.1885  0.0951
 4525TIP3    H134990   3.249   4.022  13.757 -1.3821  0.3075  0.7831
 4525TIP3    H234991   3.251   3.900  13.846 -1.5508  1.2366  2.0762
 4526TIP3   OH234992   0.863   0.590  16.663 -0.1206  0.8274 -0.1907
 4526TIP3    H134993   0.931   0.648  16.696  2.1901 -2.3751  0.9419
 4526TIP3    H234994   0.790   0.601  16.725  1.0716  0.9781  1.2257
 4527TIP3   OH234995   6.516   4.442   1.383 -0.1616 -0.3612 -0.1200
 4527TIP3    H134996   6.600   4.484   1.403  0.1409 -1.6683  1.3583
 4527TIP3    H234997   6.536   4.385   1.309  0.0200  0.0781 -0.4175
 4528TIP3   OH234998   0.308   0.232  12.734 -0.0222  0.1039  0.1964
 4528TIP3    H134999   0.277   0.158  12.787  2.0912 -1.6297 -0.8995
 4528TIP3    H235000   0.247   0.235  12.660 -0.9850  0.3954  0.9938
 4529TIP3   OH235001   4.355   3.190   2.382 -0.2705 -0.0467 -0.1309
 4529TIP3    H135002   4.346   3.105   2.426 -0.0731  1.1672  2.3890
 4529TIP3    H235003   4.272   3.202   2.337 -0.4699 -1.3922 -0.1591
 4530TIP3   OH235004   5.448   1.961  12.016 -0.4609  0.6218 -0.3260
 4530TIP3    H135005   5.483   2.047  11.991 -0.3070  0.5529 -0.3506
 4530TIP3    H235006   5.363   1.956  11.972 -0.0171  0.3341 -1.1761
 4531TIP3   OH235007   2.133   3.063   0.430 -0.2808  0.0227 -0.1214
 4531TIP3    H135008   2.117   3.116   0.508  0.8066 -1.6004  1.2386
 4531TIP3    H235009   2.123   3.124   0.357  1.3728  2.2354  1.4187
 4532TIP3   OH235010   6.015   4.789   5.595 -0.1884 -0.3076 -0.7253
 4532TIP3    H135011   6.072   4.719   5.565 -1.4128 -1.0534 -1.3283
 4532TIP3    H235012   5.991   4.764   5.684  0.1586 -0.1565 -0.5881
 4533TIP3   OH235013   5.639   2.701   3.140 -0.1788 -0.5182  0.0375
 4533TIP3    H135014   5.677   2.773   3.090 -1.0246 -1.0956 -1.4565
 4533TIP3    H235015   5.708   2.674   3.200  0.5394  0.7654 -0.1981
 4534TIP3   OH235016   3.245   4.493   3.385  0.3806  0.1470 -0.0754
 4534TIP3    H135017   3.325   4.492   3.437 -0.5487 -2.3495  1.4175
 4534TIP3    H235018   3.253   4.418   3.326 -0.3823  0.5342 -0.6898
 4535TIP3   OH235019   5.970   1.823  12.407  0.1707 -0.5189  0.0465
 4535TIP3    H135020   6.050   1.868  12.381 -1.1557  1.8737 -0.0037
 4535TIP3    H235021   5.930   1.879  12.473 -0.6155 -2.5454  1.3524
 4536TIP3   OH235022   3.963   5.498  14.817  0.2503  0.6263 -0.6402
 4536TIP3    H135023   3.921   5.532  14.896  0.0526 -0.4287 -0.2746
 4536TIP3    H235024   4.006   5.574  14.777  0.3460  1.1701  0.4815
 4537TIP3   OH235025   6.090   3.155   1.919  0.2362  0.1357  0.2095
 4537TIP3    H135026   6.156   3.139   1.853  0.8160  1.7603  0.3623
 4537TIP3    H235027   6.030   3.081   1.912  0.3406  0.2339 -2.0645
 4538TIP3   OH235028   6.266   0.976  14.626 -0.3325 -0.3317 -0.5653
 4538TIP3    H135029   6.188   1.028  14.648 -1.3054 -1.9607 -0.1110
 4538TIP3    H235030   6.298   0.945  14.711  0.8208  0.3091 -0.7519
 4539TIP3   OH235031   1.955   3.341   0.958 -0.0233 -0.5390 -0.6172
 4539TIP3    H135032   1.974   3.368   0.868 -0.3001  0.0199 -0.5097
 4539TIP3    H235033   1.914   3.254   0.950  0.4506 -0.7267 -0.9923
 4540TIP3   OH235034   0.634   1.197   5.000  0.3562  0.7752 -0.2502
 4540TIP3    H135035   0.656   1.271   4.943  0.8903  0.8289  0.0219
 4540TIP3    H235036   0.625   1.235   5.087  0.4875  0.5440 -0.1342
 4541TIP3   OH235037   0.579   1.424  14.937  0.4919 -0.0460 -0.2873
 4541TIP3    H135038   0.599   1.455  14.849  0.4809  0.8789  0.0324
 4541TIP3    H235039   0.665   1.415  14.979  0.4538  0.2929 -0.1338
 4542TIP3   OH235040   1.392   1.500  11.498  0.2706 -0.6733  0.3742
 4542TIP3    H135041   1.381   1.468  11.588  0.0818 -0.6633  0.3554
 4542TIP3    H235042   1.487   1.497  11.483  0.3252 -0.4000  0.6732
 4543TIP3   OH235043   2.900   2.264   4.856 -0.2824  0.0172  0.6597
 4543TIP3    H135044   2.898   2.227   4.944 -0.9351 -1.3899  0.0736
 4543TIP3    H235045   2.989   2.250   4.825 -0.0339  0.5803  1.1263
 4544TIP3   OH235046   5.182   3.733   1.776  0.2430  0.2076  0.8288
 4544TIP3    H135047   5.120   3.756   1.845  0.3156 -0.3763  1.0903
 4544TIP3    H235048   5.128   3.716   1.699  0.2006  1.4022  0.5935
 4545TIP3   OH235049   5.390   5.213   6.046  0.5970  0.2880 -0.3910
 4545TIP3    H135050   5.301   5.246   6.035 -0.8423 -2.9718  0.6986
 4545TIP3    H235051   5.409   5.166   5.965  0.7838 -0.1347 -0.1069
 4546TIP3   OH235052   0.032   0.172   5.824  0.1936  0.7419  0.4499
 4546TIP3    H135053  -0.037   0.156   5.889 -0.5359  0.6885 -0.3297
 4546TIP3    H235054  -0.014   0.169   5.740  0.7251  3.1068  0.0481
 4547TIP3   OH235055   2.854   5.605  12.890 -0.2168 -0.2103  0.0753
 4547TIP3    H135056   2.788   5.610  12.821 -0.0894 -0.2298 -0.0469
 4547TIP3    H235057   2.930   5.564  12.849 -0.4878 -1.1337  0.4951
 4548TIP3   OH235058   2.643   2.878  12.929 -0.5207  0.1182 -0.5079
 4548TIP3    H135059   2.682   2.824  12.997 -2.2644  1.1736  1.3681
 4548TIP3    H235060   2.570   2.827  12.895 -1.1029  0.5870  0.0497
 4549TIP3   OH235061   3.163   3.735  15.440 -0.1361  0.7566 -0.1580
 4549TIP3    H135062   3.230   3.670  15.459 -0.1612  1.1627  1.3602
 4549TIP3    H235063   3.203   3.793  15.376  0.1638 -0.2993 -0.9437
 4550TIP3   OH235064   0.667   5.278   0.818  0.1610 -0.1356 -0.2260
 4550TIP3    H135065   0.747   5.225   0.825  1.3331  1.5052 -0.6906
 4550TIP3    H235066   0.630   5.255   0.733  0.6775 -0.2121 -0.4373
 4551TIP3   OH235067   2.819   6.444  11.557  0.5876 -0.1610  0.4456
 4551TIP3    H135068   2.785   6.389  11.486  0.6003  0.7040 -0.2463
 4551TIP3    H235069   2.748   6.448  11.620 -0.2816  0.8896 -0.5735
 4552TIP3   OH235070   5.029   1.187   3.446  0.2337 -0.5804  0.0586
 4552TIP3    H135071   5.110   1.171   3.397  0.0097  0.8795 -0.8160
 4552TIP3    H235072   4.994   1.100   3.463  1.2963 -1.1754 -0.7267
 4553TIP3   OH235073   0.933   2.888  15.211 -0.1950 -0.8416  0.2800
 4553TIP3    H135074   0.943   2.863  15.303 -0.3463  0.0449  0.5421
 4553TIP3    H235075   1.018   2.925  15.188 -0.9272  1.2255  0.7898
 4554TIP3   OH235076   0.384   0.501  16.368 -0.2767 -0.4621 -0.4246
 4554TIP3    H135077   0.467   0.469  16.402 -0.8494 -0.2626  1.1803
 4554TIP3    H235078   0.334   0.421  16.350 -1.0817 -0.5605  2.0363
 4555TIP3   OH235079   2.445   3.669   1.444  0.0415 -0.0863  0.0761
 4555TIP3    H135080   2.407   3.755   1.459 -0.0503 -0.4558  2.1467
 4555TIP3    H235081   2.539   3.685   1.435  0.0462  0.2321  0.6324
 4556TIP3   OH235082   4.026   5.381   4.992 -0.1385 -0.3016  0.0544
 4556TIP3    H135083   4.041   5.396   5.085 -2.6806 -3.0623  0.9911
 4556TIP3    H235084   4.112   5.358   4.957  0.7212  0.1421  1.8552
 4557TIP3   OH235085   3.212   4.884  12.521  0.2787 -0.3045  0.4521
 4557TIP3    H135086   3.271   4.932  12.464 -1.0670 -0.7643 -1.3719
 4557TIP3    H235087   3.150   4.949  12.552 -0.0964 -0.3918 -0.1008
 4558TIP3   OH235088   2.091   3.239  13.205  0.0135 -0.3761  0.0505
 4558TIP3    H135089   2.109   3.221  13.113 -0.9138 -2.9268  0.3296
 4558TIP3    H235090   1.999   3.265  13.208  0.0772 -0.1636  0.2621
 4559TIP3   OH235091   2.842   4.156   0.435  0.1908 -0.8928  0.1303
 4559TIP3    H135092   2.851   4.249   0.414  1.1616 -0.7225  1.2585
 4559TIP3    H235093   2.753   4.148   0.469 -0.3408 -0.6247 -1.1586
 4560TIP3   OH235094   3.191   4.397  16.037 -0.2110  0.6491 -0.3475
 4560TIP3    H135095   3.247   4.330  15.998 -1.3060 -0.6955  0.3808
 4560TIP3    H235096   3.194   4.380  16.131 -0.5931  1.5545 -0.1664
 4561TIP3   OH235097   0.613   2.380   4.487  0.8561  0.3782 -0.1623
 4561TIP3    H135098   0.542   2.441   4.507  0.7007 -0.1285  0.8603
 4561TIP3    H235099   0.666   2.378   4.567  0.4116 -1.4269  0.1100
 4562TIP3   OH235100   0.023   2.137  16.353  0.2594  0.1432  0.4470
 4562TIP3    H135101  -0.037   2.089  16.297  1.5294 -0.0244 -0.7946
 4562TIP3    H235102   0.034   2.082  16.430  0.0603 -0.5675 -0.0310
 4563TIP3   OH235103   2.677   0.301  12.765 -0.0932 -0.4293  0.0677
 4563TIP3    H135104   2.624   0.276  12.841 -0.0098  2.2387  1.0505
 4563TIP3    H235105   2.625   0.368  12.721  1.8137  1.2532  0.2895
 4564TIP3   OH235106   3.026   2.574   3.209  0.9975  0.1712  0.1088
 4564TIP3    H135107   3.031   2.632   3.134  1.5078  0.1865  0.1541
 4564TIP3    H235108   2.943   2.597   3.252  1.2416  0.9294  0.1774
 4565TIP3   OH235109   3.815   5.425  13.384  0.2436  0.2959  0.9418
 4565TIP3    H135110   3.815   5.331  13.402  2.4515 -0.1590 -1.0183
 4565TIP3    H235111   3.783   5.432  13.294 -0.4568  1.4777  1.2736
 4566TIP3   OH235112   6.089   2.602  15.927  0.5400 -0.0464  0.3231
 4566TIP3    H135113   6.073   2.693  15.955 -0.4912 -0.2615  0.4633
 4566TIP3    H235114   6.007   2.576  15.885  0.6934 -1.0461  0.6433
 4567TIP3   OH235115   4.392   6.654  15.709 -0.3102  0.0866 -0.0849
 4567TIP3    H135116   4.334   6.680  15.780 -0.5737  1.7634 -0.8907
 4567TIP3    H235117   4.383   6.724  15.644  1.8288 -0.1362 -0.6545
 4568TIP3   OH235118   4.332   4.439  14.899 -0.1996 -0.1991  0.4885
 4568TIP3    H135119   4.310   4.509  14.960 -0.2849 -2.7980  3.5779
 4568TIP3    H235120   4.427   4.445  14.888 -0.0314 -0.3980  1.7853
 4569TIP3   OH235121   1.775   0.950   0.720 -0.2690 -0.4863  0.3916
 4569TIP3    H135122   1.688   0.916   0.744 -0.6741 -0.8999 -1.5929
 4569TIP3    H235123   1.793   0.911   0.635  1.1486  0.9317  0.0239
 4570TIP3   OH235124   1.351   2.245   2.631  0.4488  0.3447 -0.5957
 4570TIP3    H135125   1.314   2.177   2.575  0.0364  2.0631 -2.4611
 4570TIP3    H235126   1.277   2.302   2.651  0.3997 -0.6666  2.4204
 4571TIP3   OH235127   0.405   0.647   5.524  0.6017  0.2647 -0.2878
 4571TIP3    H135128   0.408   0.658   5.429  0.7080  0.8298 -0.2250
 4571TIP3    H235129   0.317   0.616   5.542  1.1348 -1.5817 -0.7391
 4572TIP3   OH235130   6.179   1.647   5.012  0.4804 -0.3654  0.4681
 4572TIP3    H135131   6.196   1.672   4.921 -0.1833 -0.7844  0.2251
 4572TIP3    H235132   6.254   1.593   5.036 -0.9044 -2.9988 -0.8998
 4573TIP3   OH235133   4.802   6.245  13.982 -0.5967  0.1787 -0.5299
 4573TIP3    H135134   4.859   6.263  13.907 -1.0473  4.8690  0.1125
 4573TIP3    H235135   4.721   6.291  13.961 -0.9751  0.9476  2.4955
 4574TIP3   OH235136   6.294   2.018   5.015  0.0812 -0.7811  0.0399
 4574TIP3    H135137   6.252   1.962   5.080 -0.5336 -2.9847 -2.1789
 4574TIP3    H235138   6.384   2.028   5.047 -0.9081  0.3688  2.5641
 4575TIP3   OH235139   2.685   2.303   3.845  0.0863 -0.3847 -0.0888
 4575TIP3    H135140   2.732   2.226   3.875  1.4814 -0.4451 -2.3262
 4575TIP3    H235141   2.694   2.302   3.750 -0.0285  2.4226 -0.1889
 4576TIP3   OH235142   2.141   5.214   3.829 -0.0217 -0.3818 -0.0291
 4576TIP3    H135143   2.077   5.226   3.899  0.2396 -1.4933  0.4098
 4576TIP3    H235144   2.162   5.303   3.801 -2.6526 -0.0223 -1.0081
 4577TIP3   OH235145   3.955   2.135  11.818 -0.2672 -0.4589 -0.2972
 4577TIP3    H135146   3.988   2.113  11.731 -0.4115  0.2780 -0.5474
 4577TIP3    H235147   4.033   2.148  11.871 -0.1736 -0.5000 -0.4263
 4578TIP3   OH235148   1.750   0.380   1.392 -0.3479  0.0141 -0.3820
 4578TIP3    H135149   1.777   0.391   1.483 -2.6755 -1.6436  0.5633
 4578TIP3    H235150   1.730   0.287   1.384 -0.5262  0.2020 -2.5033
 4579TIP3   OH235151   3.036   0.926   3.532  0.7032  0.2077 -0.1162
 4579TIP3    H135152   3.122   0.897   3.563  0.1218 -0.9798  0.4422
 4579TIP3    H235153   3.040   0.917   3.437  1.7201  1.6527 -0.2240
 4580TIP3   OH235154   3.810   3.215  15.800 -0.3155 -0.3610 -0.3195
 4580TIP3    H135155   3.754   3.247  15.871  0.8414 -0.6771  0.7561
 4580TIP3    H235156   3.845   3.133  15.833  0.9823 -0.0368 -0.8643
 4581TIP3   OH235157   0.912   1.894   3.025 -0.7558  0.0569 -0.5854
 4581TIP3    H135158   0.860   1.958   2.976 -1.2874  0.0890  0.0174
 4581TIP3    H235159   0.861   1.813   3.019 -1.1824  0.2412  0.5273
 4582TIP3   OH235160   2.156   1.844   0.438 -0.2617 -0.3209 -0.3902
 4582TIP3    H135161   2.114   1.840   0.352 -1.3216  0.2416  0.0989
 4582TIP3    H235162   2.097   1.896   0.492 -0.0531 -1.4319  0.9489
 4583TIP3   OH235163   5.222   6.587  16.223 -0.3663  0.0532 -0.0391
 4583TIP3    H135164   5.256   6.639  16.150  1.6787  2.0722  2.2249
 4583TIP3    H235165   5.128   6.602  16.222 -0.3461  0.1045 -2.2089
 4584TIP3   OH235166   3.088   5.478  12.815 -0.5037 -0.6621 -0.1111
 4584TIP3    H135167   3.144   5.539  12.767 -0.9907  0.6045  0.9013
 4584TIP3    H235168   3.145   5.444  12.885 -0.7132 -0.1017  0.3341
 4585TIP3   OH235169   0.171   2.118  13.832  0.3159  0.0687  0.2910
 4585TIP3    H135170   0.221   2.168  13.767 -0.7062  1.3184  0.4503
 4585TIP3    H235171   0.232   2.050  13.862  1.1150  0.0749 -1.2706
 4586TIP3   OH235172   2.818   5.702   0.092 -0.1788  0.3455 -0.1299
 4586TIP3    H135173   2.877   5.639   0.134  0.7180  0.8085 -0.7055
 4586TIP3    H235174   2.801   5.768   0.160  1.2920  1.1105 -0.5058
 4587TIP3   OH235175   6.629   2.801  16.218 -0.5159  0.3551 -0.3971
 4587TIP3    H135176   6.648   2.726  16.161 -1.7113 -1.6188  1.7356
 4587TIP3    H235177   6.609   2.762  16.303 -0.1864  3.1737  1.0166
 4588TIP3   OH235178   2.643   3.141  13.065 -0.0724  0.1483 -0.7126
 4588TIP3    H135179   2.737   3.159  13.060 -0.3180  1.3820 -1.0919
 4588TIP3    H235180   2.628   3.074  12.998  0.5529 -0.1579 -0.5554
 4589TIP3   OH235181   6.410   1.776  13.025 -0.1020  0.3918 -0.2259
 4589TIP3    H135182   6.369   1.721  13.093  0.5781  1.1974  0.8395
 4589TIP3    H235183   6.499   1.742  13.017  0.5371  1.7794  0.9268
 4590TIP3   OH235184   0.831   5.426  13.436 -0.3328 -0.1908  0.0819
 4590TIP3    H135185   0.838   5.438  13.531 -0.8366  0.6035  0.0244
 4590TIP3    H235186   0.919   5.400  13.408 -0.4275 -1.4082  0.9014
 4591TIP3   OH235187   2.092   0.341  14.885  0.2294 -0.0144  0.5832
 4591TIP3    H135188   2.131   0.276  14.826 -0.3330 -1.4922  1.7971
 4591TIP3    H235189   1.999   0.321  14.885  0.0415  0.8285  0.9311
 4592TIP3   OH235190   3.611   6.455   3.024 -0.6079  0.2070  0.3538
 4592TIP3    H135191   3.574   6.435   3.110  0.2699 -1.0479  0.4664
 4592TIP3    H235192   3.698   6.488   3.043  0.2937 -1.8349 -0.1080
 4593TIP3   OH235193   4.923   4.015   1.909  0.6436  0.1509 -0.2864
 4593TIP3    H135194   4.929   3.919   1.916 -1.2770  0.0685  0.5394
 4593TIP3    H235195   4.958   4.047   1.992  1.4047  0.1667 -0.6147
 4594TIP3   OH235196   5.305   3.950  12.031 -0.1169  0.3094 -0.5237
 4594TIP3    H135197   5.380   4.001  12.061  0.2296  0.1535 -1.1034
 4594TIP3    H235198   5.337   3.859  12.030 -0.0827  0.3185 -1.4328
 4595TIP3   OH235199   6.479   0.130   0.146  0.9656 -0.2202 -0.1277
 4595TIP3    H135200   6.408   0.189   0.123  1.6851  0.2879 -1.1081
 4595TIP3    H235201   6.438   0.043   0.150  0.2705  0.0863 -0.5485
 4596TIP3   OH235202   3.380   3.132  12.688 -0.2134 -0.1978  0.2055
 4596TIP3    H135203   3.355   3.222  12.710  0.4022  0.3708 -1.3032
 4596TIP3    H235204   3.325   3.109  12.613  2.0419  0.2396 -1.6773
 4597TIP3   OH235205   5.388   0.055   5.750  0.1770 -0.2308  0.6419
 4597TIP3    H135206   5.348   0.048   5.837  0.5423  0.0314  0.8313
 4597TIP3    H235207   5.357   0.139   5.716 -0.4560 -0.6137  0.2698
 4598TIP3   OH235208   2.409   3.281   0.617  0.3410  0.1936  0.3615
 4598TIP3    H135209   2.368   3.203   0.655  2.2058 -0.6709  0.6330
 4598TIP3    H235210   2.394   3.350   0.681 -0.3684 -0.2069  0.6328
 4599TIP3   OH235211   2.200   2.093  11.369 -0.7148  0.2566  0.2169
 4599TIP3    H135212   2.137   2.052  11.310 -1.2281  2.3847 -0.7422
 4599TIP3    H235213   2.251   2.151  11.314  0.0723  0.8586  1.5473
 4600TIP3   OH235214   6.444   0.778   3.562  0.0535  0.0614  0.1700
 4600TIP3    H135215   6.503   0.765   3.636  1.8662 -0.4115 -1.3043
 4600TIP3    H235216   6.384   0.704   3.566  0.2534 -0.0537  1.0787
 4601TIP3   OH235217   6.542   0.522  14.707 -0.1571  0.4581 -0.1419
 4601TIP3    H135218   6.549   0.430  14.679 -0.3406  0.1308  0.8589
 4601TIP3    H235219   6.474   0.559  14.651 -1.6948 -0.6339  0.9712
 4602TIP3   OH235220   1.437   2.577   3.049 -0.3096 -0.0241  0.4520
 4602TIP3    H135221   1.390   2.580   2.966  1.1716 -0.8092 -0.4466
 4602TIP3    H235222   1.454   2.668   3.070 -0.4817  0.1720 -0.2386
 4603TIP3   OH235223   2.740   1.485  15.530 -0.3572 -0.2693  0.5271
 4603TIP3    H135224   2.759   1.558  15.471 -0.8894 -0.0413  0.6360
 4603TIP3    H235225   2.820   1.474  15.581  0.2424 -0.7077 -0.4859
 4604TIP3   OH235226   5.163   4.545  12.636 -0.4319 -0.0825  0.1138
 4604TIP3    H135227   5.236   4.533  12.697 -1.0181 -0.2827  0.7823
 4604TIP3    H235228   5.173   4.634  12.603  1.4437 -0.8908 -1.5460
 4605TIP3   OH235229   1.585   2.399  17.101  0.8580  0.2132 -0.5244
 4605TIP3    H135230   1.644   2.451  17.047  1.8481  1.5880  1.7892
 4605TIP3    H235231   1.544   2.463  17.160 -1.8578 -0.9191 -1.1160
 4606TIP3   OH235232   0.678   3.879  13.443 -0.2975  0.0500 -0.6781
 4606TIP3    H135233   0.696   3.973  13.451  0.3048 -0.1678  0.7310
 4606TIP3    H235234   0.705   3.843  13.527 -1.3904 -1.2548 -0.8745
 4607TIP3   OH235235   2.676   2.760   4.178  0.2929  0.2492 -0.1122
 4607TIP3    H135236   2.727   2.801   4.108  0.4559 -1.5924 -1.1168
 4607TIP3    H235237   2.585   2.776   4.153  0.3596  0.2280 -0.3770
 4608TIP3   OH235238   1.691   4.568   0.086 -0.5262 -0.1126 -0.2390
 4608TIP3    H135239   1.775   4.614   0.086 -0.6022  0.0273 -0.1293
 4608TIP3    H235240   1.626   4.638   0.084 -0.6664 -0.1713  1.5356
 4609TIP3   OH235241   5.707   3.678  14.699  0.2300  0.1688  0.1406
 4609TIP3    H135242   5.794   3.696  14.662 -0.3447 -0.6390 -1.6355
 4609TIP3    H235243   5.654   3.752  14.673 -0.2574 -0.5526 -0.9626
 4610TIP3   OH235244   6.618   4.408   3.931 -0.5620 -0.3229 -0.3172
 4610TIP3    H135245   6.683   4.359   3.981 -0.9400  0.9469  1.4914
 4610TIP3    H235246   6.626   4.498   3.964 -3.2183 -0.1492 -0.0750
 4611TIP3   OH235247   3.644   2.702  12.848  0.0795 -0.3889  0.2673
 4611TIP3    H135248   3.584   2.775  12.838  0.3504 -0.4826 -2.4339
 4611TIP3    H235249   3.588   2.625  12.849  0.0698 -0.3988 -1.0054
 4612TIP3   OH235250   5.996   1.383   5.046 -0.0848  0.1398 -0.0288
 4612TIP3    H135251   6.053   1.318   5.003 -0.5210 -1.2741  1.4720
 4612TIP3    H235252   6.050   1.420   5.116 -0.7131 -0.5725  0.8418
 4613TIP3   OH235253   5.867   0.258   1.437  0.4849  0.2520 -0.1119
 4613TIP3    H135254   5.950   0.303   1.455  0.1785  0.3046  1.2433
 4613TIP3    H235255   5.819   0.318   1.380  1.0589  0.5684 -0.2671
 4614TIP3   OH235256   4.296   0.325   3.625 -0.0369 -0.5986 -0.4517
 4614TIP3    H135257   4.382   0.285   3.609  0.4204  0.7202 -1.4472
 4614TIP3    H235258   4.312   0.419   3.617 -1.4067 -0.2977  0.2460
 4615TIP3   OH235259   3.291   2.980   1.011  0.3705 -0.1433 -0.3441
 4615TIP3    H135260   3.267   2.902   0.962  1.0132 -0.5565 -0.0170
 4615TIP3    H235261   3.209   3.014   1.045 -0.1117  0.2766 -1.8983
 4616TIP3   OH235262   1.515   3.703   5.522  0.3601  0.4038  0.2541
 4616TIP3    H135263   1.603   3.740   5.521  0.4763  0.1336  0.3087
 4616TIP3    H235264   1.502   3.674   5.612  0.0361  0.8601  0.3551
 4617TIP3   OH235265   5.135   6.375  16.751  0.1098  0.3669  0.2973
 4617TIP3    H135266   5.082   6.430  16.807  0.9604  0.5343  0.9454
 4617TIP3    H235267   5.086   6.370  16.668 -1.9136 -1.1390  1.5415
 4618TIP3   OH235268   5.233   4.074  16.586  0.0783 -0.0466  0.5936
 4618TIP3    H135269   5.284   4.155  16.584  0.7301 -0.4525  0.7251
 4618TIP3    H235270   5.239   4.040  16.497  1.7912 -1.1759  1.1172
 4619TIP3   OH235271   4.703   2.072   0.080  0.1742  0.3460  0.5560
 4619TIP3    H135272   4.713   1.996   0.023 -0.3623 -0.9280  2.1241
 4619TIP3    H235273   4.769   2.060   0.148  0.8539  1.8870  0.1773
 4620TIP3   OH235274   5.306   6.783  14.678  0.3604 -0.3219  0.4998
 4620TIP3    H135275   5.254   6.825  14.747  0.6373  0.9165 -0.0383
 4620TIP3    H235276   5.279   6.691  14.681 -2.1367  0.3429  0.0118
 4621TIP3   OH235277   2.297   2.875  14.023 -0.4753  0.3942  0.3276
 4621TIP3    H135278   2.381   2.908  13.990 -0.2663  0.4254  0.8863
 4621TIP3    H235279   2.255   2.951  14.063 -1.0169  0.5063 -0.4329
 4622TIP3   OH235280   2.603   1.337  13.170  0.0763 -0.1512  0.2294
 4622TIP3    H135281   2.684   1.292  13.195 -0.2546 -0.9682 -0.1241
 4622TIP3    H235282   2.597   1.324  13.075 -0.1017  0.5187  0.1485
 4623TIP3   OH235283   6.052   3.904  13.238 -0.0637 -0.2758  0.2163
 4623TIP3    H135284   6.036   3.814  13.211 -1.3952  0.1100 -0.3016
 4623TIP3    H235285   6.096   3.896  13.323  2.7200 -1.4664 -1.2876
 4624TIP3   OH235286   1.301   3.096   1.299  0.1710 -0.3894 -0.5647
 4624TIP3    H135287   1.334   3.158   1.364  0.0276 -0.3950 -0.4870
 4624TIP3    H235288   1.284   3.149   1.222  1.7364 -0.6241 -1.0779
 4625TIP3   OH235289   3.239   2.437  12.716  0.1957 -0.5632  0.1185
 4625TIP3    H135290   3.187   2.371  12.762  0.9043 -1.7712 -0.7834
 4625TIP3    H235291   3.294   2.387  12.656 -0.3646  0.9468 -1.7250
 4626TIP3   OH235292   1.580   2.054  13.725  0.0523  0.0054  0.0468
 4626TIP3    H135293   1.634   2.130  13.706  0.2906 -0.2730 -0.3886
 4626TIP3    H235294   1.606   2.027  13.813  0.4450  0.0158 -0.0676
 4627TIP3   OH235295   5.828   1.953  12.600 -0.4007 -0.0396 -0.0351
 4627TIP3    H135296   5.745   1.980  12.563  0.4421  0.1329 -1.8532
 4627TIP3    H235297   5.806   1.914  12.684 -2.3342 -0.3314 -0.6761
 4628TIP3   OH235298   0.029   4.895  13.136  0.5289  0.0830  0.1752
 4628TIP3    H135299   0.056   4.957  13.204  0.5770 -0.9889  1.1469
 4628TIP3    H235300   0.089   4.912  13.063 -0.3581  2.1349 -0.1071
 4629TIP3   OH235301   1.257   2.199   5.941 -0.1192 -0.1941 -0.0608
 4629TIP3    H135302   1.211   2.254   6.005  0.3998 -0.4530  0.5471
 4629TIP3    H235303   1.348   2.230   5.945 -0.7501  2.3482 -3.4177
 4630TIP3   OH235304   1.388   5.870   3.449  0.3889 -0.0944 -0.6850
 4630TIP3    H135305   1.293   5.864   3.439  0.3589 -0.5857 -0.1220
 4630TIP3    H235306   1.401   5.928   3.523  0.4231 -3.2761  1.9124
 4631TIP3   OH235307   2.451   5.731   5.208  0.6064  0.3849 -0.3895
 4631TIP3    H135308   2.384   5.667   5.232 -0.2146  0.8084 -1.5341
 4631TIP3    H235309   2.420   5.813   5.246  0.4326  0.5929 -0.9765
 4632TIP3   OH235310   6.516   0.692  11.580 -0.1104 -0.1854  0.7231
 4632TIP3    H135311   6.581   0.627  11.556 -0.1221  0.5648 -1.4588
 4632TIP3    H235312   6.454   0.646  11.637  1.3903 -1.3258  1.4338
 4633TIP3   OH235313   6.538   5.942   1.613 -0.1322 -0.3008  0.0920
 4633TIP3    H135314   6.573   5.965   1.699 -0.7663 -0.6574  0.4504
 4633TIP3    H235315   6.460   5.890   1.632  0.0937 -0.9391 -0.7073
 4634TIP3   OH235316   6.151   1.812   5.989  0.3023  0.3289 -0.0136
 4634TIP3    H135317   6.211   1.886   5.981  0.5694 -0.0205 -1.4327
 4634TIP3    H235318   6.202   1.744   6.033  0.8050  0.1964 -0.7911
 4635TIP3   OH235319   6.105   3.196  13.171  0.0965  0.3587 -0.6273
 4635TIP3    H135320   6.162   3.160  13.240 -0.8438 -0.8987 -0.4903
 4635TIP3    H235321   6.041   3.249  13.219 -0.3810 -0.2820 -0.5454
 4636TIP3   OH235322   3.266   1.313  13.545 -0.2846  0.8939 -0.4890
 4636TIP3    H135323   3.172   1.326  13.548 -0.3616  0.1762  0.5278
 4636TIP3    H235324   3.298   1.350  13.627  0.1706  0.0358 -0.2691
 4637TIP3   OH235325   1.697   5.779  11.590  0.1226 -0.4584  0.2948
 4637TIP3    H135326   1.656   5.701  11.627 -2.8993  1.1059  0.3793
 4637TIP3    H235327   1.661   5.785  11.502 -0.8371  1.6468  0.8079
 4638TIP3   OH235328   0.575   2.580   1.552 -0.3349  0.1540 -0.3828
 4638TIP3    H135329   0.560   2.557   1.460  1.1279  2.5707 -1.2546
 4638TIP3    H235330   0.489   2.607   1.584 -0.7144 -0.0483 -1.2165
 4639TIP3   OH235331   2.917   1.203  15.699  0.2632 -0.1706  0.2348
 4639TIP3    H135332   2.994   1.160  15.737  0.9092  1.1934  0.5047
 4639TIP3    H235333   2.859   1.218  15.774  1.3845  2.1976  0.6912
 4640TIP3   OH235334   2.722   0.570  12.216  0.7188 -0.3645  0.5239
 4640TIP3    H135335   2.769   0.653  12.208  0.6462 -0.3325  0.4265
 4640TIP3    H235336   2.760   0.514  12.149 -0.6067  0.2442 -0.7740
 4641TIP3   OH235337   2.105   2.823   0.641  0.2532  0.2061  0.3728
 4641TIP3    H135338   2.123   2.917   0.646  3.3809 -0.3517  0.5188
 4641TIP3    H235339   2.146   2.794   0.560 -0.4621 -1.0947  0.4475
 4642TIP3   OH235340   1.138   3.911   5.946 -0.6598 -0.0593  0.4475
 4642TIP3    H135341   1.137   3.940   5.855 -0.6325  0.6006  0.6548
 4642TIP3    H235342   1.103   3.985   5.995  0.9916  0.2608  1.1574
 4643TIP3   OH235343   0.671   6.402  12.216  0.0206  0.3010 -0.7562
 4643TIP3    H135344   0.583   6.437  12.209  0.4489  2.3911  3.3344
 4643TIP3    H235345   0.727   6.478  12.232  2.0034 -1.4086  0.8056
 4644TIP3   OH235346   5.245   6.629   1.152 -0.9057 -0.0050 -0.1652
 4644TIP3    H135347   5.317   6.623   1.214  0.3981  0.6242 -1.5994
 4644TIP3    H235348   5.278   6.683   1.080 -2.2007 -1.1040 -1.6450
 4645TIP3   OH235349   0.684   0.852   1.947  0.5805 -0.3162  0.4597
 4645TIP3    H135350   0.653   0.806   2.025 -0.0779  0.0104  0.3982
 4645TIP3    H235351   0.712   0.783   1.887  1.9360 -0.5372  1.3265
 4646TIP3   OH235352   4.703   6.337  16.128  0.5476 -0.1610  0.7122
 4646TIP3    H135353   4.620   6.308  16.167  0.5710 -0.9787  0.1616
 4646TIP3    H235354   4.693   6.318  16.035  1.9670 -1.7075  0.8531
 4647TIP3   OH235355   4.021   0.643  10.628 -0.0310 -0.3611 -0.4900
 4647TIP3    H135356   3.937   0.598  10.623 -0.0081 -0.3726 -0.7983
 4647TIP3    H235357   4.084   0.574  10.651 -0.1579 -0.2908  0.0549
 4648TIP3   OH235358   6.605   2.324   4.284  0.3801 -0.8736 -0.1822
 4648TIP3    H135359   6.585   2.305   4.375 -0.6747 -0.5873 -0.3500
 4648TIP3    H235360   6.585   2.243   4.237 -1.5558 -0.2042 -0.5199
 4649TIP3   OH235361   0.847   2.089  16.682  0.4550 -0.2387 -0.2068
 4649TIP3    H135362   0.842   2.061  16.774 -0.6865 -2.7748 -1.0045
 4649TIP3    H235363   0.927   2.048  16.649  0.3512 -0.1220 -0.6043
 4650TIP3   OH235364   3.688   0.221  15.601  0.3448  0.3831  0.2540
 4650TIP3    H135365   3.680   0.151  15.536  0.1474 -0.6570  1.3820
 4650TIP3    H235366   3.779   0.252  15.591  0.5545 -0.2947  0.0249
 4651TIP3   OH235367   0.547   4.808  13.470  0.0001 -0.1283  0.3505
 4651TIP3    H135368   0.476   4.815  13.406 -0.2503 -1.8058  0.4266
 4651TIP3    H235369   0.503   4.785  13.552  0.1255  3.7220  1.6058
 4652TIP3   OH235370   5.381   6.477  14.838 -0.2351 -0.1126 -0.2093
 4652TIP3    H135371   5.367   6.548  14.901 -1.0140 -0.3742 -0.0784
 4652TIP3    H235372   5.468   6.493  14.803 -1.1675  2.0513 -1.6498
 4653TIP3   OH235373   3.092   5.073   5.518  0.0808  0.5537  0.2059
 4653TIP3    H135374   3.141   5.142   5.472 -0.1341 -1.1058 -2.6501
 4653TIP3    H235375   3.016   5.057   5.462 -0.3052 -1.4129  1.2496
 4654TIP3   OH235376   3.241   0.598   2.040 -0.4714  0.1018  0.2542
 4654TIP3    H135377   3.156   0.642   2.033 -0.3166  0.2169 -1.1575
 4654TIP3    H235378   3.281   0.610   1.954  0.7851 -0.3483  0.7668
 4655TIP3   OH235379   4.517   4.708  16.931 -0.3548 -0.3687  0.0094
 4655TIP3    H135380   4.543   4.616  16.921  0.0419 -0.2681  0.1277
 4655TIP3    H235381   4.421   4.706  16.922 -0.4266 -0.9008  0.8525
 4656TIP3   OH235382   2.538   0.099  10.950  0.1412  0.2683 -0.0517
 4656TIP3    H135383   2.631   0.116  10.933  0.0591  1.1739  0.3763
 4656TIP3    H235384   2.516   0.025  10.892  0.4634  1.7593 -2.1465
 4657TIP3   OH235385   0.343   2.750   2.793 -0.2193  0.3900 -0.2456
 4657TIP3    H135386   0.409   2.765   2.726  0.8656  1.3648  1.0141
 4657TIP3    H235387   0.273   2.704   2.748  2.1736 -2.4842 -1.1310
 4658TIP3   OH235388   2.759   5.420   6.893 -0.2297 -0.0228 -0.1203
 4658TIP3    H135389   2.751   5.493   6.832 -1.2110  0.6693  0.8098
 4658TIP3    H235390   2.852   5.397   6.892 -0.0040  0.9079 -0.7968
 4659TIP3   OH235391   1.382   2.932  14.422 -0.2134 -0.5497  0.0398
 4659TIP3    H135392   1.409   2.843  14.398  1.0759  0.2550 -1.5425
 4659TIP3    H235393   1.299   2.945  14.377 -1.7858 -1.8842  2.4120
 4660TIP3   OH235394   4.121   6.516  16.441  0.1415 -0.3177  0.4015
 4660TIP3    H135395   4.100   6.434  16.397 -0.0120  0.2593 -0.6033
 4660TIP3    H235396   4.081   6.583  16.387  1.0805  0.4983  0.7129
 4661TIP3   OH235397   1.707   4.593   4.928  0.7358 -0.1952  0.6222
 4661TIP3    H135398   1.786   4.590   4.874  1.0058  0.5650  0.9726
 4661TIP3    H235399   1.722   4.666   4.988  0.1294 -0.5810  1.2438
 4662TIP3   OH235400   3.786   4.110  13.349  0.4772 -0.8629  0.3551
 4662TIP3    H135401   3.691   4.110  13.355  0.3582  1.5433 -1.0441
 4662TIP3    H235402   3.808   4.027  13.306 -1.0215 -1.0421 -0.0678
 4663TIP3   OH235403   0.943   0.517  11.291 -0.3172 -0.0302  0.1695
 4663TIP3    H135404   1.000   0.593  11.280  1.4195 -1.2749  0.4641
 4663TIP3    H235405   0.999   0.442  11.273 -2.6128 -1.1748 -2.5088
 4664TIP3   OH235406   4.832   5.857  12.036  0.3297  0.1040  0.7623
 4664TIP3    H135407   4.760   5.839  11.977  0.2075 -1.6462  1.4097
 4664TIP3    H235408   4.802   5.824  12.121  1.0976  1.1929  1.4649
 4665TIP3   OH235409   0.603   5.885  13.922 -0.5978  0.0989 -0.3956
 4665TIP3    H135410   0.545   5.898  13.998  0.6511  1.6773  0.3382
 4665TIP3    H235411   0.550   5.910  13.847 -1.3753  0.0207  0.1177
 4666TIP3   OH235412   5.348   2.620  15.007 -0.7817  0.8353  0.5794
 4666TIP3    H135413   5.303   2.697  15.043 -1.1873  0.6339  0.5050
 4666TIP3    H235414   5.441   2.639  15.019 -0.8919  1.1444  0.9638
 4667TIP3   OH235415   1.277   6.230  11.020 -0.4708 -0.0093 -0.1218
 4667TIP3    H135416   1.222   6.221  10.942 -1.6942 -0.6157  0.7907
 4667TIP3    H235417   1.356   6.180  11.000 -0.7248 -0.0623 -1.0058
 4668TIP3   OH235418   3.851   0.678   0.265 -0.6674 -0.2531 -0.0441
 4668TIP3    H135419   3.835   0.593   0.308  1.4092 -0.3440  0.5829
 4668TIP3    H235420   3.763   0.708   0.240 -1.5632 -1.9664  0.8937
 4669TIP3   OH235421   4.052   0.381   3.865 -0.0332 -0.1281  0.0267
 4669TIP3    H135422   3.959   0.403   3.852 -0.7170 -3.4921 -1.2232
 4669TIP3    H235423   4.092   0.393   3.779  0.5518  0.5962  0.3931
 4670TIP3   OH235424   6.120   3.272   2.419 -0.1393  0.1761  0.1188
 4670TIP3    H135425   6.181   3.199   2.421  0.0954  0.3679 -0.0812
 4670TIP3    H235426   6.124   3.305   2.329  0.5973  1.1468  0.4997
 4671TIP3   OH235427   5.536   6.590   3.558  0.2817  0.6499  0.5102
 4671TIP3    H135428   5.480   6.514   3.544  0.7040  0.3768  0.2857
 4671TIP3    H235429   5.476   6.660   3.582 -0.3084  0.7623 -1.2588
 4672TIP3   OH235430   2.559   3.940  14.427  0.1671  0.3731  0.4946
 4672TIP3    H135431   2.526   3.864  14.475  1.8592 -0.4067  0.4819
 4672TIP3    H235432   2.481   3.982  14.391 -0.6465 -2.6008 -1.3601
 4673TIP3   OH235433   1.752   3.278   5.632  0.5145  0.4574 -0.1268
 4673TIP3    H135434   1.797   3.362   5.638  0.9368  0.0875  3.3633
 4673TIP3    H235435   1.697   3.275   5.710  0.5211 -2.4806 -0.1711
 4674TIP3   OH235436   0.810   4.497   4.043 -0.0061 -0.1970 -0.1333
 4674TIP3    H135437   0.825   4.406   4.017  2.2327 -0.3764  1.5903
 4674TIP3    H235438   0.823   4.497   4.138 -1.4911  1.6495  0.0969
 4675TIP3   OH235439   0.598   2.541   0.670  0.1836 -0.1490 -0.2066
 4675TIP3    H135440   0.628   2.527   0.580 -0.1699  0.2090 -0.3782
 4675TIP3    H235441   0.509   2.575   0.661  0.1869 -0.0124  0.2785
 4676TIP3   OH235442   3.669   4.716  16.698 -0.1126 -0.3123  0.3490
 4676TIP3    H135443   3.757   4.735  16.731  0.6635  2.9168 -3.2220
 4676TIP3    H235444   3.617   4.792  16.723 -0.3890  0.4982 -2.5048
 4677TIP3   OH235445   2.292   4.010  12.721  0.2589  0.0722 -0.1680
 4677TIP3    H135446   2.385   4.025  12.737  0.2378 -1.1515  1.2665
 4677TIP3    H235447   2.263   4.086  12.671  1.6546  1.2978  0.8596
 4678TIP3   OH235448   2.412   2.651   6.345  0.1440 -0.8851  0.2499
 4678TIP3    H135449   2.424   2.632   6.252 -0.5398  1.8784 -0.4583
 4678TIP3    H235450   2.498   2.637   6.384  1.4817  1.8689 -1.5592
 4679TIP3   OH235451   4.590   3.650  16.722 -0.5024  0.3237  0.3612
 4679TIP3    H135452   4.661   3.589  16.744  0.3575  0.9800 -0.5086
 4679TIP3    H235453   4.565   3.689  16.806  0.6766  0.6178  0.5869
 4680TIP3   OH235454   4.373   5.867  12.349  0.5524  0.2884 -0.3289
 4680TIP3    H135455   4.361   5.773  12.364 -2.0207  0.7097  0.6085
 4680TIP3    H235456   4.375   5.905  12.436 -1.5361  1.3991 -0.7236
 4681TIP3   OH235457   4.611   2.282   4.236  0.4161  0.1854 -0.2891
 4681TIP3    H135458   4.553   2.327   4.175  1.0143  1.1576 -0.1545
 4681TIP3    H235459   4.662   2.352   4.276  0.9275 -0.5647  0.3828
 4682TIP3   OH235460   3.331   2.464  11.145  0.1346  0.3864  0.2439
 4682TIP3    H135461   3.343   2.502  11.232 -0.0080  0.1820  0.3535
 4682TIP3    H235462   3.414   2.479  11.100  0.5731 -0.4658  0.7772
 4683TIP3   OH235463   3.632   4.379  11.025 -0.9491  0.3243 -0.1762
 4683TIP3    H135464   3.563   4.441  11.000 -0.4397  0.5561 -1.0273
 4683TIP3    H235465   3.623   4.306  10.964  0.1227  0.7639 -0.8797
 4684TIP3   OH235466   6.047   2.082   3.602 -0.0089 -0.1802  0.3009
 4684TIP3    H135467   6.023   2.065   3.693 -1.6675 -2.0866 -0.4480
 4684TIP3    H235468   5.972   2.131   3.566  0.2302 -0.2281 -0.2761
 4685TIP3   OH235469   6.497   0.911  11.705  0.4938  0.2944  0.0783
 4685TIP3    H135470   6.554   0.974  11.661  2.2457 -2.2503 -1.4689
 4685TIP3    H235471   6.501   0.833  11.650  1.8189 -2.6551  4.0699
 4686TIP3   OH235472   0.578   5.584   1.491  0.1429  0.0559 -0.2126
 4686TIP3    H135473   0.527   5.658   1.459 -2.2773 -0.9691  1.1604
 4686TIP3    H235474   0.668   5.618   1.496 -0.9230  2.9736  0.5568
 4687TIP3   OH235475   3.453   3.853   0.662  0.0324  0.3441  0.1467
 4687TIP3    H135476   3.471   3.944   0.685 -1.4584  0.4921  0.7345
 4687TIP3    H235477   3.390   3.823   0.728  0.5282 -1.1263 -0.0228
 4688TIP3   OH235478   1.898   2.921  13.356 -0.3537 -0.5096  0.1150
 4688TIP3    H135479   1.859   2.981  13.293  0.3274 -0.7188 -0.5104
 4688TIP3    H235480   1.985   2.903  13.321 -0.1622 -1.0302  0.8506
 4689TIP3   OH235481   0.220   2.129   5.097 -0.0449 -0.0057 -0.0771
 4689TIP3    H135482   0.306   2.115   5.137 -0.4113  0.2472  0.8166
 4689TIP3    H235483   0.210   2.056   5.035  1.4241  0.7745 -1.2569
 4690TIP3   OH235484   4.108   0.415  12.351  0.8252 -0.2065  0.0327
 4690TIP3    H135485   4.134   0.500  12.316 -3.0880  0.6330 -0.9934
 4690TIP3    H235486   4.152   0.351  12.295  2.4442  1.1030 -0.2238
 4691TIP3   OH235487   3.140   0.226   2.565 -0.3811  0.0428 -0.4007
 4691TIP3    H135488   3.138   0.275   2.647  0.1100 -0.4200 -0.1095
 4691TIP3    H235489   3.192   0.148   2.585 -1.8301 -1.0019 -0.6302
 4692TIP3   OH235490   4.575   5.753   1.834  0.4722 -0.7146 -0.0890
 4692TIP3    H135491   4.654   5.794   1.798 -0.3273 -0.5616 -1.6705
 4692TIP3    H235492   4.508   5.821   1.828 -0.0113 -1.1481  0.4242
 4693TIP3   OH235493   1.367   3.945  15.633  0.2372  0.6477  0.0121
 4693TIP3    H135494   1.453   3.903  15.631  0.1418  0.3994  0.7949
 4693TIP3    H235495   1.305   3.877  15.609  0.2375  0.7795 -0.3701
 4694TIP3   OH235496   4.022   2.349   2.913  0.1341 -0.2997  0.1323
 4694TIP3    H135497   4.111   2.373   2.890  0.8873 -3.1341 -0.1301
 4694TIP3    H235498   4.019   2.359   3.008  0.1969  1.4216 -0.0347
 4695TIP3   OH235499   2.008   6.163   4.507  0.1779 -0.3511 -0.0804
 4695TIP3    H135500   2.069   6.219   4.458 -0.3521  1.2254  1.0218
 4695TIP3    H235501   2.062   6.090   4.538  0.8773 -0.4867 -1.5428
 4696TIP3   OH235502   5.877   4.198   3.327 -0.7345  0.2495 -0.5801
 4696TIP3    H135503   5.793   4.161   3.353 -0.8299 -0.8610 -2.3776
 4696TIP3    H235504   5.863   4.229   3.238  0.2830  1.6579 -0.2720
 4697TIP3   OH235505   5.158   6.123  16.305  0.5647  0.7501  0.5957
 4697TIP3    H135506   5.123   6.041  16.271  1.3264 -0.2643  2.1605
 4697TIP3    H235507   5.121   6.191  16.249 -1.2827 -0.5457  0.1946
 4698TIP3   OH235508   0.862   4.947  16.495  0.4928  0.0483 -0.1648
 4698TIP3    H135509   0.815   4.863  16.499  1.6147 -0.5792  0.1925
 4698TIP3    H235510   0.942   4.927  16.446 -0.0076  1.2953 -1.5191
 4699TIP3   OH235511   4.936   0.300  10.630  0.0160  0.3631  0.1532
 4699TIP3    H135512   4.876   0.255  10.690  1.5762 -0.2790  1.2809
 4699TIP3    H235513   4.914   0.265  10.543 -2.3658  1.4030  0.2980
 4700TIP3   OH235514   2.514   5.616  11.708  0.3447 -0.3692 -0.3154
 4700TIP3    H135515   2.564   5.691  11.676  1.7243 -2.0984 -2.3206
 4700TIP3    H235516   2.579   5.561  11.752 -0.1259 -1.7406 -1.3111
 4701TIP3   OH235517   4.226   6.492   5.785 -0.1436 -0.0333  0.4827
 4701TIP3    H135518   4.141   6.452   5.807  0.4339 -1.2689  0.5092
 4701TIP3    H235519   4.287   6.419   5.784  0.8330  0.7798 -0.0617
 4702TIP3   OH235520   3.775   5.753   2.644  0.1426 -0.2778  0.0232
 4702TIP3    H135521   3.686   5.750   2.608  0.5038  0.3051 -0.9117
 4702TIP3    H235522   3.828   5.707   2.579  0.7872  0.7408 -0.1689
 4703TIP3   OH235523   3.138   1.691   3.700 -0.0649 -0.2231  0.2171
 4703TIP3    H135524   3.115   1.671   3.609  1.1586  0.9810 -0.3815
 4703TIP3    H235525   3.199   1.622   3.725 -0.3221 -0.5018  0.0754
 4704TIP3   OH235526   1.922   2.613   0.423 -0.4528 -0.3637  0.3190
 4704TIP3    H135527   1.951   2.703   0.410  1.1000 -0.6902  1.4685
 4704TIP3    H235528   1.922   2.575   0.335 -0.5261  0.5650 -0.0878
 4705TIP3   OH235529   3.549   4.946  15.497 -0.1840 -0.2989  1.0585
 4705TIP3    H135530   3.484   4.993  15.445  1.7898 -0.2309 -1.4588
 4705TIP3    H235531   3.570   4.868  15.445  2.5261  0.2377  1.2661
 4706TIP3   OH235532   2.476   2.533  13.613  0.5200 -0.1614  0.0690
 4706TIP3    H135533   2.541   2.466  13.589  2.7771  1.6368  0.9526
 4706TIP3    H235534   2.469   2.588  13.535 -0.2609 -0.5714 -0.1579
 4707TIP3   OH235535   5.504   5.026   5.480 -0.4972 -0.0313 -0.0037
 4707TIP3    H135536   5.503   5.079   5.401 -0.8335  1.4674  1.0006
 4707TIP3    H235537   5.529   4.938   5.450  0.9026  0.8801 -1.5483
 4708TIP3   OH235538   5.700   1.417  16.912 -0.1100 -0.1847 -0.0037
 4708TIP3    H135539   5.792   1.438  16.900 -0.3293  0.6871 -0.1508
 4708TIP3    H235540   5.682   1.438  17.004  0.0277 -1.0750  0.2322
 4709TIP3   OH235541   3.466   0.388   3.119  0.5788 -0.0263 -0.0807
 4709TIP3    H135542   3.559   0.404   3.135  0.8586 -0.2460 -1.4131
 4709TIP3    H235543   3.441   0.456   3.057  0.1848 -0.7935 -0.7687
 4710TIP3   OH235544   3.830   0.626   3.765  0.0708  0.0950 -0.3079
 4710TIP3    H135545   3.876   0.704   3.795 -0.8939  0.4167  0.3790
 4710TIP3    H235546   3.843   0.624   3.670  0.8092  0.6192 -0.2160
 4711TIP3   OH235547   1.181   4.958   4.532  0.5055  0.2633 -0.1742
 4711TIP3    H135548   1.200   5.023   4.600 -0.1381  0.1307  0.1329
 4711TIP3    H235549   1.267   4.924   4.507  0.9190  1.7885 -0.8931
 4712TIP3   OH235550   0.635   6.043   5.129  0.5201  0.1626 -0.1536
 4712TIP3    H135551   0.713   5.988   5.129  1.5518  1.6191 -0.2846
 4712TIP3    H235552   0.565   5.985   5.097  1.5971 -1.0353 -0.3838
 4713TIP3   OH235553   6.539   6.244   3.463 -0.0885 -0.3375  0.0414
 4713TIP3    H135554   6.628   6.229   3.495 -0.6120 -2.7617  0.4945
 4713TIP3    H235555   6.488   6.264   3.541 -0.4082 -1.3948  0.1113
 4714TIP3   OH235556   5.840   1.099   0.886  0.0483 -0.3732 -0.0977
 4714TIP3    H135557   5.767   1.145   0.845 -0.1175 -0.1457  0.4452
 4714TIP3    H235558   5.876   1.162   0.949  0.9007 -0.3730 -0.5748
 4715TIP3   OH235559   4.768   5.670   4.038 -0.5561  0.1196  0.1699
 4715TIP3    H135560   4.749   5.719   4.118 -2.4164 -0.7861  0.2930
 4715TIP3    H235561   4.863   5.671   4.032 -0.4299  0.9253  1.9363
 4716TIP3   OH235562   1.462   0.903  15.997 -0.0123 -0.3724  0.1221
 4716TIP3    H135563   1.390   0.843  15.979 -1.3450  0.5604  2.1414
 4716TIP3    H235564   1.453   0.973  15.931 -0.2921 -0.8068 -0.3030
 4717TIP3   OH235565   6.302   6.738   2.479  0.0504  0.0024  0.0524
 4717TIP3    H135566   6.367   6.781   2.535  1.9211 -1.9997 -0.4904
 4717TIP3    H235567   6.349   6.723   2.396 -0.4526 -3.1377  0.2673
 4718TIP3   OH235568   0.631   0.918  16.351 -0.2246 -0.2193  0.5645
 4718TIP3    H135569   0.596   0.994  16.397 -0.7175 -0.0546 -0.0773
 4718TIP3    H235570   0.610   0.844  16.408  0.0380  0.0978  1.0731
 4719TIP3   OH235571   1.485   6.619  15.602  0.4241  0.3959  0.0627
 4719TIP3    H135572   1.567   6.583  15.567  1.4817  1.7873  1.0424
 4719TIP3    H235573   1.499   6.714  15.601 -1.4978  0.6812 -0.5130
 4720TIP3   OH235574   3.774   4.251  14.832 -0.1494  0.3567  0.7551
 4720TIP3    H135575   3.859   4.292  14.842 -0.3186  1.1163 -0.8003
 4720TIP3    H235576   3.719   4.318  14.791 -1.4977 -0.1205  1.7227
 4721TIP3   OH235577   4.857   1.321   6.138  0.8530 -0.0920 -0.2682
 4721TIP3    H135578   4.902   1.237   6.130 -0.1061 -0.5874 -0.4974
 4721TIP3    H235579   4.781   1.313   6.080 -0.2914  0.2360  1.1710
 4722TIP3   OH235580   5.893   3.270   3.335  0.1541 -0.2643  0.2907
 4722TIP3    H135581   5.850   3.257   3.419  0.0839  0.9349  0.4522
 4722TIP3    H235582   5.984   3.245   3.350 -0.2205 -1.6419  0.2742
 4723TIP3   OH235583   2.726   2.072  12.676 -0.3813 -0.7186  0.3369
 4723TIP3    H135584   2.694   1.985  12.700  1.3740 -1.2954  0.6678
 4723TIP3    H235585   2.799   2.055  12.617  0.2672  0.5183  0.7729
 4724TIP3   OH235586   5.787   3.358  16.687 -0.0529 -0.0408  0.4900
 4724TIP3    H135587   5.850   3.406  16.741  0.1500  1.2450 -0.8492
 4724TIP3    H235588   5.752   3.425  16.628 -1.6194 -1.0507  0.2687
 4725TIP3   OH235589   1.719   1.663  13.908 -0.3708  0.1530 -0.6717
 4725TIP3    H135590   1.759   1.703  13.986 -1.5548 -0.2618  0.1584
 4725TIP3    H235591   1.764   1.579  13.899 -1.9299 -0.8954  1.0339
 4726TIP3   OH235592   4.289   2.884  15.476  0.1182 -0.6525 -0.5819
 4726TIP3    H135593   4.194   2.870  15.482 -0.0001  0.5269  0.5777
 4726TIP3    H235594   4.311   2.929  15.558  1.4704  0.1735 -1.3953
 4727TIP3   OH235595   3.193   6.645   6.260 -0.1220 -0.5292 -0.1324
 4727TIP3    H135596   3.135   6.589   6.312  0.4361 -1.6665 -0.7170
 4727TIP3    H235597   3.136   6.712   6.224 -0.2184  1.4968  3.5917
 4728TIP3   OH235598   0.777   6.082   3.564 -0.1647  0.4415  0.1355
 4728TIP3    H135599   0.846   6.033   3.521 -0.8846  0.6171 -1.2552
 4728TIP3    H235600   0.816   6.112   3.646  0.9273 -0.6886  0.0380
 4729TIP3   OH235601   4.852   1.215  13.243  0.2302  0.7102 -0.5665
 4729TIP3    H135602   4.760   1.233  13.224 -0.2208 -0.4171  0.5171
 4729TIP3    H235603   4.889   1.301  13.265 -1.3757  0.7357  2.3553
 4730TIP3   OH235604   3.495   2.677   5.494  0.2094 -0.0911  0.0516
 4730TIP3    H135605   3.489   2.772   5.481 -0.7056 -0.2294 -0.6237
 4730TIP3    H235606   3.530   2.667   5.582 -0.7540  0.8784  0.5626
 4731TIP3   OH235607   6.632   2.572  16.059 -0.3952  0.8109  0.0668
 4731TIP3    H135608   6.537   2.567  16.066 -0.2079  0.4737  2.5864
 4731TIP3    H235609   6.664   2.489  16.096  0.9276  1.5432  0.5996
 4732TIP3   OH235610   3.777   3.356  14.032 -0.2909  0.0254  0.1566
 4732TIP3    H135611   3.860   3.353  14.080 -0.2220 -0.8736 -0.0074
 4732TIP3    H235612   3.776   3.442  13.991  1.0570 -0.3623 -0.7204
 4733TIP3   OH235613   1.753   3.625   1.463 -0.1633 -0.2128 -0.0257
 4733TIP3    H135614   1.719   3.676   1.537  0.0581  0.4307 -0.3664
 4733TIP3    H235615   1.691   3.553   1.455  0.3473 -0.8377  1.4030
 4734TIP3   OH235616   5.302   4.313   5.903  0.4064 -0.5527 -0.3321
 4734TIP3    H135617   5.251   4.385   5.939  2.5598  0.7946  0.0863
 4734TIP3    H235618   5.302   4.328   5.809  1.6550  0.5759 -0.1723
 4735TIP3   OH235619   0.719   3.454   0.518  0.2430  0.4514  0.0657
 4735TIP3    H135620   0.778   3.392   0.475  0.5910  1.1875 -0.5280
 4735TIP3    H235621   0.732   3.438   0.612  1.4235  0.6309 -0.0545
 4736TIP3   OH235622   0.708   1.152  10.790 -0.6754 -0.2463  0.1276
 4736TIP3    H135623   0.640   1.146  10.858 -0.5883  0.8152  0.3249
 4736TIP3    H235624   0.774   1.210  10.828  0.6303 -1.7311  0.1690
 4737TIP3   OH235625   3.700   3.106   6.039  0.6720 -0.3230  0.2005
 4737TIP3    H135626   3.694   3.023   6.087 -0.4854 -0.0096  0.6266
 4737TIP3    H235627   3.608   3.132   6.026  0.7663 -1.9357 -4.9031
 4738TIP3   OH235628   5.258   0.068   2.026 -0.2990  0.0956 -0.0998
 4738TIP3    H135629   5.255   0.080   2.121 -0.8738  1.5685 -0.2908
 4738TIP3    H235630   5.350   0.080   2.003 -0.7318  3.9168 -0.2105
 4739TIP3   OH235631   5.212   4.384  17.156  0.2623 -0.3416 -0.2709
 4739TIP3    H135632   5.241   4.429  17.076  0.2564 -0.1774 -0.1807
 4739TIP3    H235633   5.136   4.334  17.128 -1.0747  1.4223  0.1002
 4740TIP3   OH235634   1.359   6.157  12.525  0.1325 -0.3350  0.2867
 4740TIP3    H135635   1.358   6.094  12.453  0.8438 -0.6509  0.5389
 4740TIP3    H235636   1.452   6.164  12.549 -0.0208  0.2833  0.7203
 4741TIP3   OH235637   0.280   3.724  11.704  0.1364  0.0121 -0.4733
 4741TIP3    H135638   0.298   3.765  11.789  0.9457 -1.3863  0.0377
 4741TIP3    H235639   0.303   3.791  11.640 -0.8385  1.2240  0.3972
 4742TIP3   OH235640   1.355   5.031   1.700 -0.2243  0.0875  0.3259
 4742TIP3    H135641   1.362   4.998   1.611 -0.1283  0.5772  0.1469
 4742TIP3    H235642   1.443   5.019   1.737 -0.1829  0.1671  0.2531
 4743TIP3   OH235643   0.348   2.093   5.353 -0.3641 -0.3022 -0.4447
 4743TIP3    H135644   0.325   2.064   5.442 -0.3392  0.9721 -0.0155
 4743TIP3    H235645   0.408   2.025   5.321 -2.4257 -2.1365 -0.4978
 4744TIP3   OH235646   2.946   1.450  11.871  1.3894  0.4850  0.5367
 4744TIP3    H135647   2.884   1.458  11.799 -1.6732  1.0263  3.0884
 4744TIP3    H235648   3.018   1.398  11.836 -1.9800 -2.9063 -1.7321
 4745TIP3   OH235649   0.839   2.087  13.173  0.5661 -0.5826  0.0996
 4745TIP3    H135650   0.794   2.152  13.227  1.5730  0.2946 -0.1047
 4745TIP3    H235651   0.773   2.020  13.156  0.2359 -0.8480  2.3638
 4746TIP3   OH235652   0.710   5.231  13.188 -0.3034  0.3395  0.2227
 4746TIP3    H135653   0.729   5.235  13.282  0.1798  0.7312  0.1075
 4746TIP3    H235654   0.682   5.320  13.165  2.4134  1.0335 -0.6001
 4747TIP3   OH235655   5.611   1.759  16.074 -0.1732 -0.1940  0.3591
 4747TIP3    H135656   5.578   1.849  16.078  0.4138  0.0088  0.7343
 4747TIP3    H235657   5.637   1.740  16.165 -1.7459 -1.2885  0.6047
 4748TIP3   OH235658   0.291   5.322  11.507  0.2249  0.0039  0.0376
 4748TIP3    H135659   0.287   5.243  11.454  0.6509  0.1568 -0.2273
 4748TIP3    H235660   0.358   5.304  11.573  1.4354  0.7165 -0.9834
 4749TIP3   OH235661   2.981   5.864   2.734  0.2964  0.1328 -0.2462
 4749TIP3    H135662   2.984   5.786   2.789 -2.8201  0.9678  1.1857
 4749TIP3    H235663   2.954   5.934   2.793 -1.6338  1.3367 -2.4851
 4750TIP3   OH235664   4.375   2.668  12.322 -0.0073 -0.6346  0.5066
 4750TIP3    H135665   4.289   2.682  12.282  0.4978 -2.8208 -1.4361
 4750TIP3    H235666   4.361   2.685  12.415 -2.3714 -0.2464  0.1035
 4751TIP3   OH235667   0.502   6.578  16.206  0.0900 -0.3011 -0.1963
 4751TIP3    H135668   0.455   6.598  16.287 -0.3073 -0.3995 -0.4004
 4751TIP3    H235669   0.543   6.493  16.223 -0.9254 -0.8621 -0.4942
 4752TIP3   OH235670   2.315   2.697   2.070  0.2750 -0.5252  0.1059
 4752TIP3    H135671   2.244   2.703   2.007  0.2924  0.2766  0.1543
 4752TIP3    H235672   2.395   2.709   2.018  0.2201  1.6681  0.4699
 4753TIP3   OH235673   1.306   4.659   3.324 -0.0828 -0.6904  0.0437
 4753TIP3    H135674   1.290   4.617   3.239  1.3176 -2.2241  0.5084
 4753TIP3    H235675   1.335   4.747   3.301  2.0559 -1.6677 -1.1822
 4754TIP3   OH235676   6.549   3.182  14.541 -0.3632 -0.2661  0.1708
 4754TIP3    H135677   6.482   3.241  14.507  1.2867  1.4554 -0.2225
 4754TIP3    H235678   6.539   3.185  14.636 -1.1376 -0.3884  0.0945
 4755TIP3   OH235679   1.132   1.953   5.385  0.1292 -0.9586 -0.4393
 4755TIP3    H135680   1.225   1.963   5.365  0.7273 -1.8445  1.7811
 4755TIP3    H235681   1.091   2.030   5.345  2.0641  0.4279  0.1700
 4756TIP3   OH235682   4.204   5.581  13.182  0.0293 -0.1340 -0.4527
 4756TIP3    H135683   4.157   5.562  13.263  0.7874 -0.5898 -0.1102
 4756TIP3    H235684   4.230   5.495  13.148  0.8845  0.1205 -0.4649
 4757TIP3   OH235685   5.346   1.413   5.516 -0.2468  0.4742  0.1948
 4757TIP3    H135686   5.362   1.350   5.446 -1.4391 -0.8479  1.0979
 4757TIP3    H235687   5.271   1.464   5.484 -1.8453 -1.1967  1.1813
 4758TIP3   OH235688   5.776   2.570  16.591  0.1337 -0.2251 -0.4447
 4758TIP3    H135689   5.764   2.483  16.554  0.2301  0.4573 -2.1423
 4758TIP3    H235690   5.691   2.594  16.627  0.1011 -0.9952  0.0010
 4759TIP3   OH235691   3.636   4.995   5.148  0.3387 -0.2593 -0.7871
 4759TIP3    H135692   3.709   5.052   5.125  1.3306 -0.8463  0.8353
 4759TIP3    H235693   3.669   4.907   5.133 -0.0754 -0.5264 -0.1192
 4760TIP3   OH235694   6.673   4.037  13.744  0.0679 -0.3867  0.0498
 4760TIP3    H135695   6.742   3.971  13.749  0.2271 -0.3039 -0.9924
 4760TIP3    H235696   6.599   3.997  13.789  0.5628 -0.7570  0.5542
 4761TIP3   OH235697   1.679   1.637   2.948  0.1617 -0.7457  0.3140
 4761TIP3    H135698   1.740   1.670   3.013 -1.0777  0.5985  0.8192
 4761TIP3    H235699   1.594   1.637   2.992 -0.6945  0.1804 -1.2853
 4762TIP3   OH235700   2.382   2.663  11.847  0.4265 -0.4212  0.3306
 4762TIP3    H135701   2.326   2.667  11.770 -0.6268 -1.3771  1.0390
 4762TIP3    H235702   2.350   2.733  11.904  1.5048  0.5962 -0.2628
 4763TIP3   OH235703   2.979   6.593   4.950 -0.6962 -0.4764  0.4771
 4763TIP3    H135704   3.027   6.571   5.030 -0.5625  1.8086  1.0395
 4763TIP3    H235705   2.938   6.677   4.969 -0.5747  0.1406 -1.9199
 4764TIP3   OH235706   6.463   1.677   0.665 -0.3486  0.0295 -0.5009
 4764TIP3    H135707   6.432   1.757   0.707  2.4168  0.2095  1.3254
 4764TIP3    H235708   6.533   1.705   0.607 -0.9864 -0.7863 -1.6758
 4765TIP3   OH235709   4.386   5.762   0.315 -0.1376  0.3235 -0.5951
 4765TIP3    H135710   4.426   5.843   0.345  1.6030 -0.7377  0.0378
 4765TIP3    H235711   4.405   5.698   0.384 -1.2144 -0.7035 -1.2162
 4766TIP3   OH235712   5.696   1.854  15.091 -0.0636  0.8533 -0.1090
 4766TIP3    H135713   5.682   1.945  15.119  0.8246  0.6982  0.8535
 4766TIP3    H235714   5.672   1.801  15.167 -1.5676  0.2119 -0.9974
 4767TIP3   OH235715   5.132   4.600  11.725 -0.4451 -0.0359 -0.4188
 4767TIP3    H135716   5.069   4.578  11.793 -0.5377 -0.2104 -0.5630
 4767TIP3    H235717   5.135   4.523  11.668  0.0967 -0.1374 -0.2578
 4768TIP3   OH235718   2.129   4.981   1.944 -0.5091  0.5186  0.4840
 4768TIP3    H135719   2.171   5.066   1.947 -2.0009  1.2842 -0.1184
 4768TIP3    H235720   2.192   4.924   1.900  0.1313  1.5131  0.1160
 4769TIP3   OH235721   0.857   1.408   1.248 -0.1936  0.0208  0.2275
 4769TIP3    H135722   0.904   1.445   1.173 -1.9707 -1.8326 -1.8772
 4769TIP3    H235723   0.783   1.467   1.263  0.0071  0.2400  0.3576
 4770TIP3   OH235724   6.718   2.245   3.564 -0.7689 -0.2524 -0.1202
 4770TIP3    H135725   6.736   2.151   3.559  0.0472 -0.0744 -0.6336
 4770TIP3    H235726   6.683   2.258   3.652  1.6723 -0.6235  0.9450
 4771TIP3   OH235727   2.206   1.369   0.151  0.7320  0.3485 -0.0415
 4771TIP3    H135728   2.151   1.330   0.219  0.4733  0.3115 -0.2649
 4771TIP3    H235729   2.172   1.458   0.141 -1.8041 -0.8085 -2.7788
 4772TIP3   OH235730   1.141   1.063   5.765  0.1011 -0.2636 -0.0424
 4772TIP3    H135731   1.091   1.058   5.683 -0.9532 -2.3617  0.7154
 4772TIP3    H235732   1.108   1.142   5.808 -2.1138 -1.2876  0.1613
 4773TIP3   OH235733   0.923   0.951  15.256  0.0644 -0.3868  0.3220
 4773TIP3    H135734   0.879   0.883  15.207  1.3172 -0.7043 -0.3895
 4773TIP3    H235735   0.976   0.904  15.321  2.3972 -0.2257 -1.3859
 4774TIP3   OH235736   0.176   6.687  15.583 -0.5878  0.3206  0.2972
 4774TIP3    H135737   0.262   6.728  15.588 -0.8649  1.0257 -0.7647
 4774TIP3    H235738   0.152   6.671  15.674  1.0984 -0.7918  0.5784
 4775TIP3   OH235739   4.450   5.334   0.486 -0.0497 -0.0526  0.3278
 4775TIP3    H135740   4.505   5.297   0.555  0.2056 -0.1559  0.0698
 4775TIP3    H235741   4.439   5.426   0.511 -0.6080 -0.2821  0.9196
 4776TIP3   OH235742   2.400   1.717   3.639  0.5699 -0.1475  0.3013
 4776TIP3    H135743   2.382   1.727   3.732 -0.2919 -2.4934  0.4047
 4776TIP3    H235744   2.319   1.681   3.602  1.3590 -0.5373 -1.1197
 4777TIP3   OH235745   4.850   3.285  17.094 -0.3047 -0.0517 -0.2341
 4777TIP3    H135746   4.861   3.196  17.128  0.7363 -0.0705 -0.5964
 4777TIP3    H235747   4.762   3.310  17.121 -0.7272 -1.3100 -0.3947
 4778TIP3   OH235748   1.836   0.594  10.836  0.2160  0.0792  0.3839
 4778TIP3    H135749   1.783   0.547  10.901 -0.1269 -1.0893 -0.7085
 4778TIP3    H235750   1.895   0.527  10.801  1.0653  0.9282  0.1938
 4779TIP3   OH235751   5.957   2.101  14.619 -0.2103  0.2279 -0.2575
 4779TIP3    H135752   5.902   2.048  14.677  0.9687  0.3999  1.0450
 4779TIP3    H235753   5.970   2.047  14.542  0.2067 -1.0020  0.6625
 4780TIP3   OH235754   3.282   2.723  11.708  0.1848 -0.3463  0.5373
 4780TIP3    H135755   3.225   2.646  11.702  0.8101 -0.7411 -0.7824
 4780TIP3    H235756   3.317   2.720  11.797 -0.5002 -1.0880  0.7904
 4781TIP3   OH235757   6.452   0.934  11.416 -0.5265 -0.2550 -0.3778
 4781TIP3    H135758   6.471   0.848  11.454  3.5893  2.1879  3.6001
 4781TIP3    H235759   6.386   0.972  11.474 -0.9629 -0.0113 -1.0260
 4782TIP3   OH235760   2.108   4.512   0.167  0.4738  0.1424  0.4937
 4782TIP3    H135761   2.154   4.455   0.105  1.4793  0.7218  0.6861
 4782TIP3    H235762   2.015   4.501   0.146  0.8322  1.0110 -1.7465
 4783TIP3   OH235763   5.889   0.637   1.255 -0.0170  0.5492 -0.0422
 4783TIP3    H135764   5.865   0.713   1.307  2.1688  0.7250  0.7903
 4783TIP3    H235765   5.918   0.672   1.171  1.0335  0.6491  0.3576
 4784TIP3   OH235766   3.555   6.325   1.107  0.0918 -0.4770 -0.2445
 4784TIP3    H135767   3.490   6.372   1.160  1.6417 -1.2941  2.4856
 4784TIP3    H235768   3.619   6.392   1.083 -0.7431 -0.0548 -1.3264
 4785TIP3   OH235769   1.374   5.774  10.765 -0.6195  0.1859  0.3599
 4785TIP3    H135770   1.456   5.784  10.813 -0.0027 -0.3039 -0.5823
 4785TIP3    H235771   1.320   5.849  10.793  0.2183  0.6183  0.8184
 4786TIP3   OH235772   4.680   3.542  11.964 -0.3826  0.1276 -0.1757
 4786TIP3    H135773   4.605   3.490  11.993  0.0747 -1.5414 -1.8690
 4786TIP3    H235774   4.757   3.491  11.989  0.1802  1.3887  0.7259
 4787TIP3   OH235775   4.455   5.707  16.586 -0.6881  0.0364  0.1950
 4787TIP3    H135776   4.403   5.716  16.666 -1.5534 -2.2436 -0.0854
 4787TIP3    H235777   4.390   5.693  16.517  0.2164 -1.2499 -0.4047
 4788TIP3   OH235778   2.479   0.191   3.519  0.4566  0.1930 -0.1268
 4788TIP3    H135779   2.502   0.262   3.579 -1.1537 -0.5638  1.4101
 4788TIP3    H235780   2.445   0.122   3.575  1.7773 -1.7233 -1.6238
 4789TIP3   OH235781   4.449   1.767   3.450 -0.3260 -0.1466 -0.0140
 4789TIP3    H135782   4.446   1.801   3.539 -2.3670 -0.7674  0.1830
 4789TIP3    H235783   4.415   1.678   3.457 -0.5532 -0.1770 -1.4207
 4790TIP3   OH235784   0.820   4.973   4.508  0.1935 -0.3462 -0.6732
 4790TIP3    H135785   0.822   5.016   4.593 -0.3785 -0.4185 -0.6207
 4790TIP3    H235786   0.891   4.909   4.512  0.6323  0.1459 -0.5154
 4791TIP3   OH235787   3.275   5.620  16.703  0.1997  0.7051  0.0609
 4791TIP3    H135788   3.293   5.629  16.797 -1.3355  0.0160  0.4358
 4791TIP3    H235789   3.307   5.702  16.665  0.2065  1.2782  1.2786
 4792TIP3   OH235790   1.906   5.010   0.314  0.1342  0.0873 -0.5595
 4792TIP3    H135791   1.950   5.023   0.398  0.3519  0.2633 -0.7023
 4792TIP3    H235792   1.976   4.991   0.252  0.1818  2.1119 -1.1515
 4793TIP3   OH235793   6.355   1.862   2.043 -0.2526  0.4581 -0.2354
 4793TIP3    H135794   6.304   1.820   1.973  0.1575  0.6675 -0.6618
 4793TIP3    H235795   6.292   1.875   2.113 -0.9152  1.1517 -0.9428
 4794TIP3   OH235796   5.216   4.358   6.238  0.5299 -1.0707 -0.8679
 4794TIP3    H135797   5.197   4.452   6.230  1.0043 -0.9981 -1.1711
 4794TIP3    H235798   5.133   4.315   6.217  0.6251 -0.7480 -1.9493
 4795TIP3   OH235799   5.757   3.643  11.802 -0.0019  0.1145 -0.1877
 4795TIP3    H135800   5.788   3.646  11.711  2.6971  0.5668  0.6872
 4795TIP3    H235801   5.749   3.550  11.821 -0.2867  0.0086 -0.8054
 4796TIP3   OH235802   0.413   3.880   3.391 -0.2291 -0.3758 -0.2236
 4796TIP3    H135803   0.399   3.887   3.297 -0.8004  1.7220 -0.0149
 4796TIP3    H235804   0.507   3.895   3.403 -0.5817  2.1438 -0.2666
 4797TIP3   OH235805   5.071   1.690   1.924 -0.3312 -0.6273 -0.3534
 4797TIP3    H135806   5.140   1.668   1.862  1.3781  0.3954  1.1337
 4797TIP3    H235807   5.103   1.768   1.969 -1.6809 -1.1200  1.5524
 4798TIP3   OH235808   4.869   0.115   4.484  0.1789  0.5892 -0.2818
 4798TIP3    H135809   4.889   0.021   4.489 -0.2463  0.5275  0.3569
 4798TIP3    H235810   4.906   0.143   4.401  0.0078 -0.2174 -0.6350
 4799TIP3   OH235811   4.915   0.818   2.908  0.2518  0.7155 -0.0974
 4799TIP3    H135812   4.900   0.731   2.944 -2.4309  1.6262  1.1853
 4799TIP3    H235813   4.987   0.854   2.959  3.1925 -1.7005 -2.4294
 4800TIP3   OH235814   6.190   5.305  15.636  0.2965  0.4064  0.1680
 4800TIP3    H135815   6.214   5.222  15.593 -0.2714 -0.9917  2.4483
 4800TIP3    H235816   6.272   5.334  15.677  0.8015  1.6628 -1.6521
 4801TIP3   OH235817   5.423   1.015   5.544 -0.0672 -0.1412  0.8486
 4801TIP3    H135818   5.503   0.963   5.539  0.1520  0.0684  1.9489
 4801TIP3    H235819   5.383   1.007   5.458  0.7385 -0.8945  0.5417
 4802TIP3   OH235820   1.988   1.336  16.474  0.0893 -0.4221  0.0990
 4802TIP3    H135821   1.948   1.281  16.407  0.1382  0.8716 -1.0092
 4802TIP3    H235822   2.025   1.410  16.426 -0.2474  0.7373  1.5980
 4803TIP3   OH235823   3.853   6.246  17.202 -0.9025 -0.1666  0.3185
 4803TIP3    H135824   3.805   6.164  17.205  0.3022 -0.9831 -1.5092
 4803TIP3    H235825   3.796   6.305  17.153 -0.3111 -0.9775 -1.3945
 4804TIP3   OH235826   2.886   6.434  13.085 -0.4732 -0.0441 -0.0637
 4804TIP3    H135827   2.921   6.483  13.010  1.7602 -1.5851 -0.0818
 4804TIP3    H235828   2.807   6.391  13.052 -1.3407  1.9126 -0.5898
 4805TIP3   OH235829   2.812   2.070   5.656  0.1223 -0.9161 -0.1423
 4805TIP3    H135830   2.840   2.014   5.728  1.2579 -1.7211 -1.1885
 4805TIP3    H235831   2.799   2.010   5.582 -3.3134 -0.4235 -0.0196
 4806TIP3   OH235832   1.981   2.059   0.549 -0.0679 -0.0211  0.5289
 4806TIP3    H135833   1.937   2.134   0.509  0.2083  0.7623  1.6738
 4806TIP3    H235834   1.924   1.984   0.529  0.5532  0.1589 -2.1707
 4807TIP3   OH235835   5.805   5.460   5.972  0.1845  0.2283 -0.2797
 4807TIP3    H135836   5.867   5.517   6.018 -0.5442  0.4859  0.4019
 4807TIP3    H235837   5.859   5.404   5.918  1.0867 -0.3300  1.1764
 4808TIP3   OH235838   1.281   3.582   1.837 -0.5770 -0.0249  0.0764
 4808TIP3    H135839   1.311   3.656   1.889 -1.1954  0.6527 -0.5109
 4808TIP3    H235840   1.210   3.543   1.888 -0.7820  0.2729  0.0161
 4809TIP3   OH235841   5.342   4.185   3.447 -0.8603  0.2302 -0.9227
 4809TIP3    H135842   5.410   4.246   3.420 -1.3335  1.7281  1.1575
 4809TIP3    H235843   5.266   4.240   3.466 -1.9252 -1.1961 -0.9249
 4810TIP3   OH235844   0.222   2.190  16.638  0.3443  0.1314 -0.0084
 4810TIP3    H135845   0.267   2.207  16.556 -1.4005  0.0620 -1.0186
 4810TIP3    H235846   0.143   2.244  16.633 -1.4617 -2.3736  0.1009
 4811TIP3   OH235847   6.752   1.594   3.062 -0.6436  0.1922 -0.3971
 4811TIP3    H135848   6.659   1.575   3.065 -0.4567 -0.6451  0.2841
 4811TIP3    H235849   6.767   1.631   2.975 -1.5833  0.1949 -0.5541
 4812TIP3   OH235850   4.829   0.438   2.675 -0.3942  0.5291 -0.1091
 4812TIP3    H135851   4.854   0.406   2.588 -0.7907 -0.4469  0.1288
 4812TIP3    H235852   4.819   0.359   2.727  1.2196  1.1645  1.2206
 4813TIP3   OH235853   5.119   4.985  13.161  0.6799 -0.0900  0.2900
 4813TIP3    H135854   5.055   4.926  13.121 -0.7137 -0.8695  3.5640
 4813TIP3    H235855   5.072   5.027  13.233  2.7987  2.1257  0.4655
 4814TIP3   OH235856   6.164   5.082  10.823  0.1604 -0.7105  0.2141
 4814TIP3    H135857   6.069   5.075  10.833  0.2540  0.1807  1.7349
 4814TIP3    H235858   6.181   5.046  10.736 -1.5271 -1.2324  0.0833
 4815TIP3   OH235859   5.959   6.109   0.020  0.0524 -0.4326  0.4955
 4815TIP3    H135860   5.931   6.018   0.033  0.9581 -1.1314 -2.1214
 4815TIP3    H235861   6.017   6.128   0.094  0.5376 -2.2740  0.6004
 4816TIP3   OH235862   5.173   2.137   4.312  0.2834 -0.0102 -0.0211
 4816TIP3    H135863   5.174   2.233   4.307  0.7477 -0.0465 -0.7206
 4816TIP3    H235864   5.110   2.110   4.246 -1.6934 -0.1044  1.8715
 4817TIP3   OH235865   6.615   2.201  15.586  0.2275  0.6885 -0.1113
 4817TIP3    H135866   6.546   2.211  15.652 -0.2639 -0.5520 -0.4329
 4817TIP3    H235867   6.586   2.254  15.512 -1.5863 -1.6985 -1.1838
 4818TIP3   OH235868   4.878   2.244  12.607 -0.6843  0.5595 -0.1124
 4818TIP3    H135869   4.793   2.205  12.630 -0.6284  0.0706 -0.7420
 4818TIP3    H235870   4.942   2.194  12.658 -0.5982 -0.2797 -1.0266
 4819TIP3   OH235871   2.369   5.034  15.701  0.2238  0.2276 -0.5665
 4819TIP3    H135872   2.405   5.063  15.784 -0.7208 -0.3567  0.0545
 4819TIP3    H235873   2.288   5.085  15.691 -1.2895 -1.9261  0.3792
 4820TIP3   OH235874   3.962   2.142  13.522  0.1422  0.0798  0.3008
 4820TIP3    H135875   4.042   2.168  13.567  1.2336 -1.0979 -0.9180
 4820TIP3    H235876   3.985   2.061  13.477 -2.5294 -1.7755  2.1307
 4821TIP3   OH235877   4.135   6.763  12.210 -0.0241 -0.8613  0.2827
 4821TIP3    H135878   4.049   6.723  12.227  0.7668 -2.3803  0.8342
 4821TIP3    H235879   4.158   6.734  12.122 -0.9249  1.1679 -0.6701
 4822TIP3   OH235880   1.577   0.485  14.574  0.5049  0.2022  0.0805
 4822TIP3    H135881   1.602   0.438  14.653  2.8942 -0.1948 -0.8718
 4822TIP3    H235882   1.648   0.547  14.559 -0.9726  1.7713 -0.5726
 4823TIP3   OH235883   5.691   4.952  16.605 -0.8171  0.1950 -0.3935
 4823TIP3    H135884   5.649   4.905  16.533 -1.0250 -0.0052 -0.1423
 4823TIP3    H235885   5.641   5.033  16.613 -1.0142  0.0608 -0.2484
 4824TIP3   OH235886   1.091   4.183  13.660  0.3517  0.4908 -0.5531
 4824TIP3    H135887   1.080   4.276  13.644 -0.3470  0.4237 -0.4799
 4824TIP3    H235888   1.172   4.159  13.614  0.5318  1.1273 -0.5632
 4825TIP3   OH235889   5.666   4.884   5.052 -0.3226  0.3103 -0.3576
 4825TIP3    H135890   5.737   4.853   5.108  1.2164  1.3204 -1.6923
 4825TIP3    H235891   5.586   4.872   5.104  0.8029 -1.0229  1.0908
 4826TIP3   OH235892   4.250   3.531   0.492 -0.7977 -0.2463  0.1763
 4826TIP3    H135893   4.281   3.621   0.505  0.4279 -0.8641  1.7367
 4826TIP3    H235894   4.156   3.536   0.508 -0.6299  0.6330  0.9580
 4827TIP3   OH235895   3.143   1.834   3.085 -0.4728 -0.6744 -0.7594
 4827TIP3    H135896   3.173   1.878   3.006 -0.3159  0.5131 -0.0451
 4827TIP3    H235897   3.103   1.903   3.138 -0.3543 -1.4076  0.3089
 4828TIP3   OH235898   0.508   1.386  12.625 -0.0004 -0.7912  0.0380
 4828TIP3    H135899   0.438   1.445  12.653 -0.7331 -0.8003 -1.6593
 4828TIP3    H235900   0.583   1.443  12.609 -0.1115 -0.5677  0.3118
 4829TIP3   OH235901   2.073   4.607   1.582  0.5166 -0.1573 -0.0711
 4829TIP3    H135902   2.156   4.649   1.558  0.3811 -0.5875 -1.3032
 4829TIP3    H235903   2.086   4.515   1.559  0.2289 -0.5182  1.1407
 4830TIP3   OH235904   3.154   2.859  14.749  0.1767 -0.1140 -0.2333
 4830TIP3    H135905   3.138   2.933  14.808  0.0895  1.5716 -2.3018
 4830TIP3    H235906   3.067   2.838  14.713  0.4349 -0.2012 -0.8150
 4831TIP3   OH235907   4.508   2.768   5.782  0.0923 -0.3142 -0.6434
 4831TIP3    H135908   4.460   2.688   5.804 -1.3241  0.6767 -0.0664
 4831TIP3    H235909   4.472   2.834   5.841  1.3336  0.7257 -1.0355
 4832TIP3   OH235910   0.309   6.287   3.027  0.2183  0.7748  0.6670
 4832TIP3    H135911   0.241   6.340   3.069  0.3220  2.2955 -0.9935
 4832TIP3    H235912   0.263   6.210   2.993 -0.7088  1.7817 -0.4298
 4833TIP3   OH235913   3.150   0.966   3.245  0.7525 -1.1608  0.9477
 4833TIP3    H135914   3.229   0.916   3.220  0.5412 -1.3911  0.7339
 4833TIP3    H235915   3.183   1.053   3.265  0.7206 -0.3809 -2.0829
 4834TIP3   OH235916   3.212   4.333   6.051 -0.0970 -0.1792 -0.1889
 4834TIP3    H135917   3.172   4.251   6.021 -1.0480  0.2359 -0.0716
 4834TIP3    H235918   3.177   4.345   6.139  2.3850 -1.2016  0.9826
 4835TIP3   OH235919   1.778   0.994  13.694  0.2611 -0.9515 -0.7497
 4835TIP3    H135920   1.841   1.063  13.714  0.0318 -1.2840  1.2433
 4835TIP3    H235921   1.735   1.023  13.613  0.0776  1.3041  0.1116
 4836TIP3   OH235922   4.031   3.264  16.328 -0.1840  0.4333 -0.5060
 4836TIP3    H135923   4.062   3.340  16.280 -0.0716  0.6833 -0.0402
 4836TIP3    H235924   4.103   3.240  16.386 -0.7685  0.8717  0.4079
 4837TIP3   OH235925   0.712   0.304  17.094  0.4181 -0.4417 -0.3214
 4837TIP3    H135926   0.707   0.230  17.153  0.1401 -0.7704 -0.7559
 4837TIP3    H235927   0.648   0.285  17.025  0.1184  0.3454 -0.2666
 4838TIP3   OH235928   6.780   2.116  15.084 -0.5244  0.4369  0.4680
 4838TIP3    H135929   6.746   2.167  15.010 -0.8851  1.0408  1.0475
 4838TIP3    H235930   6.722   2.040  15.089  0.0068 -0.0406 -0.3884
 4839TIP3   OH235931   2.594   1.525   6.217  0.0552 -0.2191 -0.3703
 4839TIP3    H135932   2.547   1.506   6.298 -0.0756  2.1503  0.1535
 4839TIP3    H235933   2.534   1.582   6.168  0.6190 -0.6826 -1.6302
 4840TIP3   OH235934   0.137   1.573  15.439 -0.2085  0.4227  0.1403
 4840TIP3    H135935   0.133   1.546  15.347 -0.0442 -1.2691  0.6100
 4840TIP3    H235936   0.202   1.643  15.441 -1.3203  1.5224 -1.2697
 4841TIP3   OH235937   1.927   3.115   3.062  0.4082 -0.0672 -0.3627
 4841TIP3    H135938   1.950   3.148   2.976 -1.0442  1.4039 -0.2166
 4841TIP3    H235939   1.986   3.041   3.077  2.6765  1.4881 -1.3764
 4842TIP3   OH235940   1.830   0.232  14.863 -0.0277 -0.0817  0.0912
 4842TIP3    H135941   1.858   0.246  14.953  0.5114 -1.3683  0.1251
 4842TIP3    H235942   1.823   0.137  14.854 -1.0513  0.0853 -0.9247
 4843TIP3   OH235943   3.979   2.268   0.688 -0.0415 -0.2481  0.3476
 4843TIP3    H135944   3.959   2.341   0.628  1.2038 -1.6275 -1.8392
 4843TIP3    H235945   3.904   2.209   0.680  0.1793 -0.4902  0.0252
 4844TIP3   OH235946   1.861   2.976   0.650 -0.4161  0.2259  0.4166
 4844TIP3    H135947   1.779   2.926   0.653 -1.0963  1.1773 -1.4671
 4844TIP3    H235948   1.929   2.910   0.650 -1.2193 -0.6144  0.9951
 4845TIP3   OH235949   1.945   6.154   1.519 -0.2056 -0.4572 -0.2287
 4845TIP3    H135950   1.976   6.219   1.582 -2.1464 -0.0494  0.3453
 4845TIP3    H235951   1.907   6.206   1.448  0.3173 -0.9397 -0.8648
 4846TIP3   OH235952   5.707   0.136  10.867 -0.0781 -0.0478  0.4731
 4846TIP3    H135953   5.714   0.203  10.799  1.5829 -0.9058 -0.2361
 4846TIP3    H235954   5.680   0.185  10.945  0.4089  1.3507 -0.2036
 4847TIP3   OH235955   5.261   0.494   4.275 -0.1769 -0.4640  0.0744
 4847TIP3    H135956   5.332   0.475   4.336  0.0125 -0.4784 -0.1513
 4847TIP3    H235957   5.195   0.539   4.329 -0.0150 -0.4862  0.2907
 4848TIP3   OH235958   4.888   3.812   6.784 -0.1860  0.3799  0.4275
 4848TIP3    H135959   4.902   3.732   6.834 -1.4371  0.6112  1.1461
 4848TIP3    H235960   4.939   3.878   6.831  0.7418  0.0483 -0.0916
 4849TIP3   OH235961   0.094   2.360   4.157 -0.4256  0.3224 -0.3350
 4849TIP3    H135962   0.090   2.334   4.065 -0.9044 -0.8704  0.0143
 4849TIP3    H235963   0.010   2.403   4.174  0.4193  2.2756 -0.9475
 4850TIP3   OH235964   5.093   1.498  11.046  0.3893  0.0747 -0.0408
 4850TIP3    H135965   5.077   1.412  11.087 -1.3249 -1.4090 -3.6189
 4850TIP3    H235966   5.116   1.478  10.956  1.3557  3.3747 -0.5852
 4851TIP3   OH235967   4.488   3.669  12.967 -0.8662  0.1218  0.1020
 4851TIP3    H135968   4.578   3.700  12.960 -0.0555 -1.9375  1.1542
 4851TIP3    H235969   4.439   3.746  12.997  0.4265  1.3863 -0.9258
 4852TIP3   OH235970   1.805   3.093  13.147  0.1057  0.3914 -0.3398
 4852TIP3    H135971   1.837   3.051  13.067 -2.5362 -0.4428 -1.0088
 4852TIP3    H235972   1.723   3.135  13.121 -1.2934 -0.6918  2.1159
 4853TIP3   OH235973   1.695   0.216  15.891  0.4111  0.3967 -0.8103
 4853TIP3    H135974   1.718   0.266  15.812  2.4245 -0.0484 -0.5486
 4853TIP3    H235975   1.658   0.134  15.857  0.2972  0.6426 -1.2909
 4854TIP3   OH235976   1.236   6.566  11.263  0.1611  0.3040 -0.0671
 4854TIP3    H135977   1.201   6.649  11.230 -0.0674  1.1326  2.2118
 4854TIP3    H235978   1.253   6.582  11.356 -0.3668 -2.3330  0.5248
 4855TIP3   OH235979   5.449   6.092  16.250 -0.1414 -0.5168 -0.2629
 4855TIP3    H135980   5.357   6.094  16.276 -0.4095  1.0564 -1.2265
 4855TIP3    H235981   5.450   6.135  16.164  2.0080  3.1084  1.4635
 4856TIP3   OH235982   6.749   4.581  13.760 -0.1226 -0.3442  0.0334
 4856TIP3    H135983   6.714   4.557  13.674  0.3966 -0.3905 -0.1630
 4856TIP3    H235984   6.840   4.554  13.758 -0.4141 -1.5138  1.0513
 4857TIP3   OH235985   5.788   2.952  16.570  0.0526 -0.0779  0.2519
 4857TIP3    H135986   5.704   2.998  16.566 -0.5392 -1.1586  0.0737
 4857TIP3    H235987   5.853   3.020  16.555 -0.7966  0.7643  0.3471
 4858TIP3   OH235988   4.207   5.423   2.228 -0.1147  0.8275 -0.7923
 4858TIP3    H135989   4.295   5.385   2.218 -0.4369  0.4135 -2.0940
 4858TIP3    H235990   4.218   5.491   2.294  1.1668  0.7079 -0.8700
 4859TIP3   OH235991   6.497   4.956  13.707 -0.0994  0.0833 -0.0785
 4859TIP3    H135992   6.406   4.969  13.733  0.5764  1.0935  1.9059
 4859TIP3    H235993   6.523   4.875  13.750  0.2786  0.4215  0.3385
 4860TIP3   OH235994   4.241   4.016  14.307 -0.3613  0.0494 -0.2330
 4860TIP3    H135995   4.201   3.958  14.242 -0.7988 -0.2522  0.3046
 4860TIP3    H235996   4.186   4.095  14.305 -0.0762  0.2413 -0.5871
 4861TIP3   OH235997   2.233   3.898   6.462  0.3605 -0.3782  0.4163
 4861TIP3    H135998   2.282   3.817   6.446 -1.5052 -1.7982  1.6889
 4861TIP3    H235999   2.195   3.920   6.377  2.1620  0.0791 -0.3062
 4862TIP3   OH236000   6.438   1.623  14.274  0.2791  0.1258 -0.3485
 4862TIP3    H136001   6.437   1.614  14.178 -0.1283 -0.0208 -0.3349
 4862TIP3    H236002   6.510   1.683  14.292 -0.9641  1.8132 -0.8946
 4863TIP3   OH236003   2.090   6.234  16.740  0.0212 -0.1083  0.0790
 4863TIP3    H136004   2.044   6.318  16.749  1.0662  0.9867 -3.9600
 4863TIP3    H236005   2.156   6.236  16.809 -0.1483  2.2912  0.2240
 4864TIP3   OH236006   0.602   4.851   3.348 -0.0879 -0.4993  0.2467
 4864TIP3    H136007   0.686   4.805   3.339  0.9755  1.6371 -1.1860
 4864TIP3    H236008   0.620   4.922   3.409 -1.1415 -0.6236  0.7191
 4865TIP3   OH236009   1.603   2.287   1.469 -0.0956 -0.6342  0.2227
 4865TIP3    H136010   1.660   2.212   1.486 -0.4866 -1.0049 -0.1013
 4865TIP3    H236011   1.636   2.324   1.387 -0.9383 -1.4386 -0.4845
 4866TIP3   OH236012   4.141   3.583   5.472  0.1892  0.0713  0.5656
 4866TIP3    H136013   4.048   3.608   5.474  0.0858 -0.3258  0.9788
 4866TIP3    H236014   4.187   3.662   5.443 -0.3504  0.0400 -0.3812
 4867TIP3   OH236015   4.796   2.356  11.141  0.4173  0.2149 -0.2156
 4867TIP3    H136016   4.729   2.334  11.205 -1.0318  1.7207 -1.1838
 4867TIP3    H236017   4.841   2.273  11.124 -0.0455 -0.4652  1.7215
 4868TIP3   OH236018   3.847   2.369  14.701 -0.0191  0.6995 -0.4304
 4868TIP3    H136019   3.886   2.309  14.637  0.0102  1.0559 -0.7433
 4868TIP3    H236020   3.814   2.442  14.648 -0.3642  0.7952 -0.0816
 4869TIP3   OH236021   0.748   2.592   5.985 -1.0486  0.8561 -0.6794
 4869TIP3    H136022   0.793   2.607   5.902  0.1104  0.1741 -0.1874
 4869TIP3    H236023   0.695   2.514   5.969  1.0992 -0.7922 -0.0624
 4870TIP3   OH236024   0.901   5.915  16.099  0.2743 -0.1355 -0.0018
 4870TIP3    H136025   0.866   5.854  16.164  0.6957 -0.7749 -0.3733
 4870TIP3    H236026   0.996   5.908  16.108  0.3305  0.4770 -0.0477
 4871TIP3   OH236027   3.406   2.903   2.601 -0.0769 -0.1225  0.0071
 4871TIP3    H136028   3.392   2.955   2.522 -0.4971 -0.1561  0.0578
 4871TIP3    H236029   3.386   2.813   2.575 -0.8635 -0.0466  0.3163
 4872TIP3   OH236030   4.053   0.688  14.589 -0.1496 -0.0303 -0.3645
 4872TIP3    H136031   4.043   0.778  14.557 -0.1087  0.4648  0.9639
 4872TIP3    H236032   4.001   0.635  14.529  0.7352  0.7380 -1.8334
 4873TIP3   OH236033   1.358   1.016  11.194  0.4845 -0.4651 -0.8132
 4873TIP3    H136034   1.269   1.040  11.170  0.5354  0.5765  0.0141
 4873TIP3    H236035   1.350   0.976  11.281  1.0046  0.9854 -0.0934
 4874TIP3   OH236036   6.367   0.999   3.171  0.3557  0.0844  0.3924
 4874TIP3    H136037   6.401   0.982   3.259  0.6183 -0.1120  0.2521
 4874TIP3    H236038   6.412   0.936   3.115  0.9684  0.9195 -0.0591
 4875TIP3   OH236039   2.320   2.389   4.586  0.3721 -0.3451  0.3198
 4875TIP3    H136040   2.231   2.374   4.554  0.5372 -0.1711 -0.2421
 4875TIP3    H236041   2.371   2.316   4.551  0.8841  0.7228 -1.2267
 4876TIP3   OH236042   1.191   5.952  14.729  0.1476 -0.8128  0.7035
 4876TIP3    H136043   1.139   5.961  14.649 -1.0464 -3.7482  1.0809
 4876TIP3    H236044   1.268   6.007  14.714 -2.0885  2.0813 -0.6660
 4877TIP3   OH236045   3.452   2.560   4.678 -0.1382  0.2786  0.0960
 4877TIP3    H136046   3.362   2.543   4.650  0.0227  0.5134 -0.5818
 4877TIP3    H236047   3.451   2.652   4.706  0.1804  0.6435 -1.0924
 4878TIP3   OH236048   2.879   0.894  12.542  0.4964 -0.3117 -0.2055
 4878TIP3    H136049   2.909   0.861  12.457 -1.5355 -0.9751 -0.6950
 4878TIP3    H236050   2.839   0.818  12.585  0.5753  0.2631  0.9075
 4879TIP3   OH236051   5.922   4.736  12.227  0.2255 -0.0008  0.1681
 4879TIP3    H136052   5.852   4.677  12.256  0.9350 -2.1035 -2.2675
 4879TIP3    H236053   5.994   4.719  12.287  0.1416 -1.0517 -0.0160
 4880TIP3   OH236054   0.226   0.952   3.323 -0.2094  0.3481  0.6428
 4880TIP3    H136055   0.155   0.941   3.387  0.6673  0.9586  1.7389
 4880TIP3    H236056   0.187   1.004   3.253 -0.7301  1.0215  1.4248
 4881TIP3   OH236057   6.132   2.164   6.730  0.1131 -0.0126  0.1162
 4881TIP3    H136058   6.163   2.246   6.768 -0.6428  0.7528 -0.8844
 4881TIP3    H236059   6.044   2.151   6.767  0.2122 -0.3548  0.2402
 4882TIP3   OH236060   2.326   3.966  11.666 -0.2961 -0.1010  0.2588
 4882TIP3    H136061   2.378   3.970  11.746  0.1348  0.8300 -0.0563
 4882TIP3    H236062   2.386   3.994  11.597 -0.8193 -0.3623 -0.3117
 4883TIP3   OH236063   6.763   2.899   5.416 -0.1578  0.1879 -0.2840
 4883TIP3    H136064   6.686   2.868   5.368 -1.6659  2.4118  0.6228
 4883TIP3    H236065   6.797   2.971   5.362  0.1645  0.4504  0.2669
 4884TIP3   OH236066   5.787   3.581  13.679  0.0405 -0.2275 -0.1262
 4884TIP3    H136067   5.734   3.502  13.681 -1.1676  0.5720  0.4369
 4884TIP3    H236068   5.843   3.572  13.602  0.2282 -1.8218  0.1896
 4885TIP3   OH236069   5.041   6.637   4.324  0.4993  0.0853  0.2077
 4885TIP3    H136070   5.007   6.650   4.235  0.1318  1.7639  0.5701
 4885TIP3    H236071   5.133   6.660   4.317  0.6225 -0.4424  0.1117
 4886TIP3   OH236072   3.681   6.484  10.817 -0.1806 -0.6293  0.2706
 4886TIP3    H136073   3.662   6.548  10.885 -1.2179 -1.4675  0.7859
 4886TIP3    H236074   3.645   6.522  10.737 -0.1051 -0.2275  0.4302
 4887TIP3   OH236075   6.065   3.097  15.639 -0.6097 -0.7918 -0.0201
 4887TIP3    H136076   6.072   3.187  15.670 -1.0276 -0.4870 -0.7820
 4887TIP3    H236077   6.142   3.084  15.584 -1.4242 -0.3223 -1.3026
 4888TIP3   OH236078   3.194   1.851   2.791 -0.1611 -1.0250 -0.6472
 4888TIP3    H136079   3.113   1.901   2.797 -0.4285 -1.3980 -1.1147
 4888TIP3    H236080   3.260   1.908   2.830 -0.5837 -0.5779 -0.5747
 4889TIP3   OH236081   4.482   5.219  11.164 -0.2662  0.0850 -0.5008
 4889TIP3    H136082   4.403   5.251  11.120 -0.4856 -1.7393 -1.4805
 4889TIP3    H236083   4.449   5.162  11.234  0.1631  0.4666  0.0204
 4890TIP3   OH236084   0.700   2.315  12.106 -0.9057 -0.6523  0.4743
 4890TIP3    H136085   0.624   2.345  12.056 -1.7977  0.6289  2.5594
 4890TIP3    H236086   0.740   2.395  12.140  0.2317 -1.4451  1.0573
 4891TIP3   OH236087   2.774   0.874  17.116  0.0764  0.1592  0.3828
 4891TIP3    H136088   2.716   0.815  17.067  1.9996 -1.9297  0.5268
 4891TIP3    H236089   2.804   0.822  17.191  2.1829  1.1520  0.2815
 4892TIP3   OH236090   0.247   3.372   5.854  0.0295 -0.1763  0.5054
 4892TIP3    H136091   0.278   3.460   5.832 -0.0785 -0.3665 -0.4082
 4892TIP3    H236092   0.233   3.329   5.770  0.0828 -1.0760  0.9460
 4893TIP3   OH236093   2.834   3.741  11.867 -0.5169 -0.0537  0.1148
 4893TIP3    H136094   2.881   3.813  11.826 -0.0844 -0.9972 -1.1073
 4893TIP3    H236095   2.746   3.746  11.830 -0.0900 -0.9832 -1.0615
 4894TIP3   OH236096   0.659   5.096   1.736 -0.1100  0.1370  0.6330
 4894TIP3    H136097   0.608   5.169   1.770 -1.2348 -0.5952  0.5237
 4894TIP3    H236098   0.741   5.136   1.705 -0.7648  1.3579  0.4684
 4895TIP3   OH236099   0.027   6.176   5.499 -0.1672 -0.1452  0.0171
 4895TIP3    H136100  -0.018   6.186   5.415  1.9398 -0.2069 -1.1721
 4895TIP3    H236101   0.038   6.266   5.531 -0.7445 -0.1039  0.0997
 4896TIP3   OH236102   4.497   5.261  11.635 -0.5683  0.3497 -0.2289
 4896TIP3    H136103   4.414   5.217  11.613  0.4748 -0.9482 -1.6647
 4896TIP3    H236104   4.493   5.345  11.588 -1.4984  0.7325  0.5242
 4897TIP3   OH236105   0.006   5.583   4.769  0.4134 -0.4786 -0.2517
 4897TIP3    H136106   0.082   5.625   4.811  0.2436 -0.6031  0.1843
 4897TIP3    H236107   0.044   5.522   4.706  0.6676  0.0252 -0.5909
 4898TIP3   OH236108   0.450   3.332   1.379 -0.2690 -0.1709  0.2561
 4898TIP3    H136109   0.373   3.385   1.400 -1.4238 -2.5330  2.2655
 4898TIP3    H236110   0.522   3.374   1.426 -0.7839  0.7248  0.2573
 4899TIP3   OH236111   1.296   2.721   4.024 -0.9159 -0.1828  0.6757
 4899TIP3    H136112   1.277   2.815   4.035 -1.2783 -0.0941 -0.5986
 4899TIP3    H236113   1.388   2.719   3.996 -0.5396 -0.2954  1.8829
 4900TIP3   OH236114   2.420   3.737   3.432 -0.3390 -0.8067 -0.2455
 4900TIP3    H136115   2.353   3.781   3.484 -0.9785 -0.9717 -0.9108
 4900TIP3    H236116   2.421   3.784   3.349  0.0086 -1.1212 -0.4209
 4901TIP3   OH236117   6.548   5.364   3.028 -0.0272  0.1454  0.2606
 4901TIP3    H136118   6.484   5.307   2.986  0.4985 -1.2304  1.2955
 4901TIP3    H236119   6.616   5.377   2.961 -0.9129  0.8364 -0.5108
 4902TIP3   OH236120   5.146   3.208   1.016 -0.1460 -0.2377 -0.1988
 4902TIP3    H136121   5.180   3.119   1.013  0.0523 -0.2161  1.1817
 4902TIP3    H236122   5.059   3.199   1.055 -0.9870 -0.0640 -1.9557
 4903TIP3   OH236123   4.167   5.250  13.864  0.0666 -0.0475  0.0807
 4903TIP3    H136124   4.076   5.244  13.892  0.6569 -0.6098  1.9871
 4903TIP3    H236125   4.177   5.179  13.801 -0.2841 -1.3939  1.4898
 4904TIP3   OH236126   0.690   4.434  16.105 -0.3828 -0.4448 -0.4409
 4904TIP3    H136127   0.742   4.445  16.025 -0.1420 -1.6315 -0.4541
 4904TIP3    H236128   0.600   4.435  16.074 -0.3087 -0.3193 -0.6600
 4905TIP3   OH236129   3.897   4.974   0.765 -0.0549 -0.0844  0.0413
 4905TIP3    H136130   3.879   5.010   0.678  0.6259  1.2925  0.4536
 4905TIP3    H236131   3.992   4.984   0.776 -0.2762  0.6365  1.3290
 4906TIP3   OH236132   2.158   5.123   3.478  0.1077  0.1303  0.2898
 4906TIP3    H136133   2.089   5.187   3.499 -1.1570 -0.9955 -0.3218
 4906TIP3    H236134   2.125   5.040   3.513 -0.1618 -0.9729 -2.4482
 4907TIP3   OH236135   5.885   2.158  15.330  0.7019 -0.0436 -0.1356
 4907TIP3    H136136   5.889   2.130  15.238 -1.1407 -1.7359  0.2626
 4907TIP3    H236137   5.976   2.175  15.353  1.5997 -2.8286 -1.3419
 4908TIP3   OH236138   6.604   4.819   2.108  0.2329  0.0850 -0.1972
 4908TIP3    H136139   6.692   4.856   2.115  0.6628 -0.8018 -0.7891
 4908TIP3    H236140   6.596   4.793   2.016 -1.1547  1.3988 -0.4611
 4909TIP3   OH236141   1.129   1.657   4.070  0.2324  0.2521  0.4748
 4909TIP3    H136142   1.145   1.661   4.164  1.0688  0.7501  0.3083
 4909TIP3    H236143   1.174   1.733   4.034  0.3058 -0.1925 -0.3862
 4910TIP3   OH236144   3.965   0.217  12.406  0.0901 -0.0837 -0.9799
 4910TIP3    H136145   4.021   0.294  12.408  0.0678 -0.0632 -1.2142
 4910TIP3    H236146   4.014   0.151  12.456 -0.3624  0.4014  0.1304
 4911TIP3   OH236147   0.129   4.225  14.932 -0.3325  0.2458  0.0341
 4911TIP3    H136148   0.070   4.187  14.996 -1.0741  1.8105  0.3124
 4911TIP3    H236149   0.169   4.150  14.887  0.3315 -0.8587  2.4284
 4912TIP3   OH236150   0.095   0.209  11.607  0.1720  0.5923 -0.3604
 4912TIP3    H136151   0.117   0.302  11.621  2.2013  0.0314  0.3227
 4912TIP3    H236152   0.180   0.165  11.600 -0.7795 -1.1988 -0.8910
 4913TIP3   OH236153   2.187   2.831   4.257  0.2346  0.5335 -0.4907
 4913TIP3    H136154   2.243   2.775   4.310 -0.4890 -0.8290 -1.1360
 4913TIP3    H236155   2.120   2.863   4.318  1.2056  1.4872  0.0892
 4914TIP3   OH236156   6.751   3.242   3.512 -0.3950  0.2941  0.5956
 4914TIP3    H136157   6.827   3.193   3.543 -0.4173 -0.3899 -0.4037
 4914TIP3    H236158   6.676   3.196   3.548 -0.3806  0.1375  0.4268
 4915TIP3   OH236159   5.016   5.010  15.266  0.2766  0.0136 -0.2350
 4915TIP3    H136160   5.000   4.927  15.222 -1.5091  0.3407 -0.2175
 4915TIP3    H236161   5.029   5.073  15.195 -4.0382  0.8371 -0.4383
 4916TIP3   OH236162   5.448   0.432  13.424 -0.3698  0.7390 -0.0864
 4916TIP3    H136163   5.502   0.509  13.439 -0.8556  0.8676  1.0496
 4916TIP3    H236164   5.464   0.409  13.332 -0.6154  2.4862 -0.5869
 4917TIP3   OH236165   4.661   4.620  13.482 -0.2419 -0.1334 -0.5110
 4917TIP3    H136166   4.704   4.664  13.556 -0.4174  1.3897 -1.2999
 4917TIP3    H236167   4.732   4.597  13.423 -0.2446 -0.0119 -0.5616
 4918TIP3   OH236168   3.136   0.761  12.590  0.6067  0.2849 -0.1412
 4918TIP3    H136169   3.052   0.738  12.629  0.8861 -0.1846  0.1811
 4918TIP3    H236170   3.201   0.739  12.656  0.9778  0.7696 -0.3384
 4919TIP3   OH236171   0.112   2.622  11.831 -0.1246 -0.7126  0.3105
 4919TIP3    H136172   0.106   2.631  11.926  0.7157  0.5157  0.2511
 4919TIP3    H236173   0.205   2.634  11.812 -0.2935 -0.9510 -0.6704
 4920TIP3   OH236174   3.005   2.743   2.998  0.5086 -0.2828  0.4921
 4920TIP3    H136175   2.930   2.802   2.990  1.9766  1.5934  0.0720
 4920TIP3    H236176   3.004   2.692   2.918 -1.0731 -1.2260  1.0819
 4921TIP3   OH236177   5.034   3.688  17.089  0.4352 -0.4993 -0.1826
 4921TIP3    H136178   5.043   3.745  17.165 -1.3905  0.0926 -0.3850
 4921TIP3    H236179   4.941   3.666  17.087  0.9993 -3.0793 -0.4007
 4922TIP3   OH236180   1.142   2.030  12.095 -0.5049 -0.2063 -0.1642
 4922TIP3    H136181   1.219   2.088  12.097 -0.5920 -0.1301  0.9568
 4922TIP3    H236182   1.115   2.023  12.186 -1.5569 -0.6112 -0.5061
 4923TIP3   OH236183   1.533   3.112   2.375 -0.1896  0.0018  0.5787
 4923TIP3    H136184   1.620   3.150   2.388  0.9356 -2.6368  1.0151
 4923TIP3    H236185   1.481   3.149   2.446  1.7851 -1.8431  3.0855
 4924TIP3   OH236186   3.675   1.780   3.093  0.1437 -0.0417  0.1638
 4924TIP3    H136187   3.635   1.797   3.008 -1.3964 -0.0732  0.8813
 4924TIP3    H236188   3.661   1.860   3.143  0.9452 -0.0696  0.4466
 4925TIP3   OH236189   2.884   3.041   2.779  0.1911  0.0678  0.4207
 4925TIP3    H136190   2.832   2.996   2.846  0.6105  0.6001  1.1121
 4925TIP3    H236191   2.851   3.131   2.781 -0.6602 -0.1832 -0.9673
 4926TIP3   OH236192   5.409   3.445   2.482 -0.4506 -0.2370 -0.5326
 4926TIP3    H136193   5.464   3.493   2.542 -0.1648 -1.1552 -0.0452
 4926TIP3    H236194   5.455   3.447   2.399 -1.1958  1.6589 -0.9240
 4927TIP3   OH236195   4.768   1.399   2.039  0.7342  0.1457  0.1633
 4927TIP3    H136196   4.830   1.335   2.072  0.3307 -0.4867 -0.2977
 4927TIP3    H236197   4.807   1.432   1.958  0.3619 -0.4190 -0.2468
 4928TIP3   OH236198   2.397   2.353   4.871  0.4817  0.0816 -0.1528
 4928TIP3    H136199   2.493   2.355   4.880  0.5771 -0.8569 -0.9444
 4928TIP3    H236200   2.382   2.365   4.778 -0.1392 -0.8904 -0.1763
 4929TIP3   OH236201   4.926   5.818   2.222  0.3627  0.0592 -0.5509
 4929TIP3    H136202   4.908   5.909   2.199  0.5978  0.8784  2.3169
 4929TIP3    H236203   5.022   5.812   2.221  0.5711  1.1105  3.5251
 4930TIP3   OH236204   4.655   3.487  16.446 -0.3858 -0.7878 -0.0290
 4930TIP3    H136205   4.662   3.448  16.359 -1.2394 -1.6283  0.2715
 4930TIP3    H236206   4.566   3.522  16.450 -0.5768 -1.3373  0.7384
 4931TIP3   OH236207   4.214   0.633   2.030 -0.0713 -0.3844 -0.0756
 4931TIP3    H136208   4.132   0.609   1.987 -0.2600 -0.8529  0.5464
 4931TIP3    H236209   4.279   0.575   1.990  0.2171  0.9451 -1.5785
 4932TIP3   OH236210   0.740   1.929   4.602  0.5325 -0.5880 -0.4909
 4932TIP3    H136211   0.694   1.860   4.554 -0.5773 -0.0960 -0.1723
 4932TIP3    H236212   0.749   1.895   4.691 -0.4562 -0.1525 -0.2064
 4933TIP3   OH236213   4.478   5.769   4.358  0.0002  0.2630 -0.4441
 4933TIP3    H136214   4.459   5.685   4.317  1.4390  0.1391 -0.8977
 4933TIP3    H236215   4.547   5.807   4.303  0.0341  1.3055  0.3102
 4934TIP3   OH236216   6.252   2.253   3.086  0.6469 -0.2852  0.6657
 4934TIP3    H136217   6.186   2.317   3.062  0.2236 -1.0514 -0.2255
 4934TIP3    H236218   6.232   2.176   3.034  2.1042 -0.6155  0.5541
 4935TIP3   OH236219   2.607   1.149  16.514 -0.0659  0.0908  0.1299
 4935TIP3    H136220   2.617   1.090  16.589  2.7191  0.5189  0.1404
 4935TIP3    H236221   2.532   1.113  16.466 -0.0239 -1.9522  1.5116
 4936TIP3   OH236222   0.117   0.806   2.662 -0.1151  0.1690 -0.1286
 4936TIP3    H136223   0.053   0.778   2.728 -1.0956 -0.6136 -1.3870
 4936TIP3    H236224   0.202   0.795   2.705 -0.7723  0.3337  1.2482
 4937TIP3   OH236225   5.610   1.557   4.233  0.5758  0.1889  0.4629
 4937TIP3    H136226   5.635   1.640   4.274  1.4605 -0.9779  2.3761
 4937TIP3    H236227   5.665   1.551   4.156  1.2534  0.9016  0.8824
 4938TIP3   OH236228   4.107   0.203   3.463 -0.1218 -0.4722  0.4997
 4938TIP3    H136229   4.181   0.233   3.517  0.0043 -0.6328  0.4177
 4938TIP3    H236230   4.126   0.239   3.376  0.3442 -1.2977  0.2556
 4939TIP3   OH236231   0.297   5.772  16.726 -0.3809  0.5821  0.5560
 4939TIP3    H136232   0.311   5.677  16.734 -2.2995  0.1922 -0.4174
 4939TIP3    H236233   0.367   5.801  16.667  1.4408  0.1409  2.4253
 4940TIP3   OH236234   4.179   5.001  15.521  0.1985 -0.1309 -0.2998
 4940TIP3    H136235   4.157   4.922  15.472  1.0838 -0.2146 -0.5856
 4940TIP3    H236236   4.126   5.070  15.481  0.1412 -0.3987 -0.6861
 4941TIP3   OH236237   0.265   3.656  14.103 -0.0968  0.4518  0.2699
 4941TIP3    H136238   0.274   3.561  14.097  0.0976  0.3590  1.8230
 4941TIP3    H236239   0.186   3.670  14.154 -1.2506  1.1607 -1.6475
 4942TIP3   OH236240   4.334   0.345  15.829  0.0240 -0.0635  0.0827
 4942TIP3    H136241   4.311   0.298  15.749 -1.0025  0.9856 -0.2522
 4942TIP3    H236242   4.279   0.422  15.828  2.0304  1.4256  0.3685
 4943TIP3   OH236243   5.540   6.135  13.986 -0.4271  0.2960  0.1609
 4943TIP3    H136244   5.520   6.168  14.074 -0.3160 -0.6842  0.5497
 4943TIP3    H236245   5.588   6.207  13.944  0.9562  0.1383  1.4467
 4944TIP3   OH236246   2.874   5.518  12.600  0.1012 -0.6194  0.1121
 4944TIP3    H136247   2.912   5.547  12.517 -1.3903  2.0742  0.3050
 4944TIP3    H236248   2.948   5.487  12.651  1.5789  1.2952 -0.8165
 4945TIP3   OH236249   2.386   1.838  12.828 -0.3358  0.3468  0.7323
 4945TIP3    H136250   2.397   1.743  12.825  0.7919  0.5187 -1.1485
 4945TIP3    H236251   2.375   1.857  12.921 -0.0454 -1.5638  1.1899
 4946TIP3   OH236252   1.386   6.330   5.741 -0.4177  0.1775 -0.8301
 4946TIP3    H136253   1.346   6.261   5.794  0.9904 -0.0115  0.0448
 4946TIP3    H236254   1.476   6.299   5.728  0.4821  2.2376  0.2961
 4947TIP3   OH236255   6.104   2.599   0.383  0.0098 -0.0846  0.3278
 4947TIP3    H136256   6.022   2.625   0.424 -0.8054 -1.8255 -0.1412
 4947TIP3    H236257   6.171   2.616   0.449 -0.6150  2.0117  0.4620
 4948TIP3   OH236258   0.411   5.566   3.785  1.1868 -0.2147  0.0431
 4948TIP3    H136259   0.347   5.535   3.720 -1.4933  1.9325  1.5634
 4948TIP3    H236260   0.475   5.614   3.733 -0.2780  0.4701 -1.1853
 4949TIP3   OH236261   0.125   4.990   1.375 -0.8206  0.8181 -0.1795
 4949TIP3    H136262   0.103   5.057   1.439  0.5082  2.0586 -0.9948
 4949TIP3    H236263   0.060   5.002   1.305 -1.0673  0.7429  0.0372
 4950TIP3   OH236264   6.462   2.673   5.729 -0.1992 -0.2072 -0.0123
 4950TIP3    H136265   6.404   2.610   5.772 -0.1575  0.6468  1.3275
 4950TIP3    H236266   6.544   2.667   5.778 -0.3190  1.1640  0.3797
 4951TIP3   OH236267   5.773   3.534  12.491 -0.1201 -0.2061 -0.2668
 4951TIP3    H136268   5.785   3.538  12.396  1.3291  0.1654 -0.0816
 4951TIP3    H236269   5.751   3.624  12.516  2.1547  0.2931  0.0631
 4952TIP3   OH236270   5.255   6.467   5.648  0.0857 -0.4579  0.1602
 4952TIP3    H136271   5.287   6.504   5.730 -0.8342  0.6862  0.0180
 4952TIP3    H236272   5.170   6.429   5.670 -0.8943  1.2546 -0.5791
 4953TIP3   OH236273   0.770   3.317   4.521  0.1491 -0.2996  0.0361
 4953TIP3    H136274   0.854   3.343   4.560 -0.1314 -0.2800  0.6312
 4953TIP3    H236275   0.794   3.279   4.436  0.8309 -1.1054  0.5801
 4954TIP3   OH236276   2.645   0.681   1.085 -0.2238  0.5891 -0.0449
 4954TIP3    H136277   2.706   0.721   1.022 -1.9565  0.1691 -2.0616
 4954TIP3    H236278   2.564   0.732   1.075 -1.7736 -1.9702 -1.0583
 4955TIP3   OH236279   4.006   6.325  13.267 -0.1182 -0.2793 -0.3906
 4955TIP3    H136280   4.077   6.334  13.204  0.2705  1.2332  0.2221
 4955TIP3    H236281   4.046   6.349  13.351 -0.7965 -1.6088  0.3243
 4956TIP3   OH236282   3.370   1.584  12.853  0.0878  0.0217  0.1900
 4956TIP3    H136283   3.445   1.643  12.848 -0.1832  0.4050  0.6410
 4956TIP3    H236284   3.296   1.640  12.877 -0.5028 -0.2231 -1.0062
 4957TIP3   OH236285   3.215   2.690  12.401 -0.2516 -0.0226  0.1461
 4957TIP3    H136286   3.310   2.678  12.396 -0.4058 -1.5536  0.6803
 4957TIP3    H236287   3.201   2.741  12.480  0.0904 -0.3809  0.4403
 4958TIP3   OH236288   4.565   4.815  11.228  0.0245 -0.1397  0.0491
 4958TIP3    H136289   4.539   4.731  11.190  2.7254 -0.2084 -1.7734
 4958TIP3    H236290   4.641   4.795  11.281  1.6138  1.3468 -1.6062
 4959TIP3   OH236291   0.043   5.703   3.604 -0.1183  0.1744  0.2599
 4959TIP3    H136292  -0.012   5.780   3.619 -1.1146 -0.1176 -1.7216
 4959TIP3    H236293   0.042   5.691   3.509 -0.8677 -2.9108  0.5800
 4960TIP3   OH236294   2.332   4.012  10.376  0.3808 -0.0633 -0.0977
 4960TIP3    H136295   2.315   4.011  10.471 -0.6877  1.5266 -0.2505
 4960TIP3    H236296   2.363   3.924  10.356 -0.9715 -0.9150  1.4625
 4961TIP3   OH236297   2.080   6.073  13.862  0.3787  0.4997  0.0015
 4961TIP3    H136298   2.078   6.151  13.918 -0.1157  1.0123 -0.7318
 4961TIP3    H236299   1.994   6.033  13.873  0.4181  0.3907 -0.0897
 4962TIP3   OH236300   5.584   6.634   3.263 -0.3316  0.2207 -0.3492
 4962TIP3    H136301   5.647   6.563   3.274  1.5164  1.7243 -0.9974
 4962TIP3    H236302   5.533   6.634   3.345 -0.3521 -1.8016 -0.3386
 4963TIP3   OH236303   5.636   0.407   1.370  0.4824 -0.0680  0.1792
 4963TIP3    H136304   5.608   0.385   1.459 -3.3687 -2.4504 -1.5217
 4963TIP3    H236305   5.600   0.495   1.355  2.3223  0.9405  1.3559
 4964TIP3   OH236306   3.616   6.605  15.694  0.0925  0.0947 -0.2672
 4964TIP3    H136307   3.675   6.662  15.645  0.8039  0.1287  0.6223
 4964TIP3    H236308   3.605   6.529  15.638  1.9438 -0.4509  0.0789
 4965TIP3   OH236309   4.105   2.153  16.140  0.6916 -0.2900 -0.4864
 4965TIP3    H136310   4.154   2.096  16.199  0.0609 -1.3590 -0.9770
 4965TIP3    H236311   4.072   2.224  16.196 -0.9173 -1.9279  0.7037
 4966TIP3   OH236312   1.049   6.302  12.921 -0.0328  0.0847  0.4938
 4966TIP3    H136313   1.129   6.340  12.956  0.7137 -2.4111  1.5867
 4966TIP3    H236314   0.990   6.296  12.996 -0.7937  0.7410 -0.0419
 4967TIP3   OH236315   4.289   0.371  11.215 -0.2481 -0.0039 -0.5095
 4967TIP3    H136316   4.383   0.380  11.198 -0.4087 -0.6692 -1.8331
 4967TIP3    H236317   4.280   0.281  11.248 -0.5540 -0.3108 -1.4181
 4968TIP3   OH236318   1.673   2.553  15.689  0.6267  0.0328 -0.1804
 4968TIP3    H136319   1.603   2.488  15.693  0.9497 -0.4965 -2.3163
 4968TIP3    H236320   1.719   2.544  15.772 -0.6121 -1.0086  0.4221
 4969TIP3   OH236321   4.560   1.783  16.909 -0.1099  0.4637  0.1958
 4969TIP3    H136322   4.540   1.874  16.930  1.2373  0.9293 -0.4915
 4969TIP3    H236323   4.652   1.783  16.884 -0.2107 -1.0142 -0.2664
 4970TIP3   OH236324   2.479   4.591  14.466 -0.1886  0.4774  0.4542
 4970TIP3    H136325   2.432   4.529  14.410  1.5227  1.4344 -2.1356
 4970TIP3    H236326   2.413   4.654  14.494 -1.9169 -2.3793  2.9999
 4971TIP3   OH236327   1.648   4.553   3.747 -0.1367  0.3576  0.0232
 4971TIP3    H136328   1.707   4.484   3.717 -0.7421 -1.0992  2.0826
 4971TIP3    H236329   1.696   4.634   3.732  1.4279 -0.6474 -0.4833
 4972TIP3   OH236330   4.917   1.726  11.703  0.1669  0.2644 -0.2233
 4972TIP3    H136331   4.972   1.714  11.781 -1.1384  0.0596  0.6823
 4972TIP3    H236332   4.954   1.665  11.639 -1.2450 -2.5944  1.5861
 4973TIP3   OH236333   2.086   5.122   5.917 -1.1389  0.7443  0.3521
 4973TIP3    H136334   1.998   5.142   5.950 -0.9835  1.7046  0.1986
 4973TIP3    H236335   2.072   5.097   5.826 -1.1427  1.9882  0.0015
 4974TIP3   OH236336   4.063   4.452  13.706  0.2855  0.0084  0.0026
 4974TIP3    H136337   4.151   4.420  13.687 -0.0450 -1.2042  0.4495
 4974TIP3    H236338   4.019   4.455  13.622 -0.0592 -1.9266  0.0803
 4975TIP3   OH236339   5.800   0.837  13.298  0.2103  0.5232 -0.2587
 4975TIP3    H136340   5.887   0.840  13.337  0.3637 -0.4608 -0.5080
 4975TIP3    H236341   5.749   0.783  13.359  0.7006 -1.8158 -1.8848
 4976TIP3   OH236342   2.063   1.709   5.996 -0.3267  0.2948 -0.4008
 4976TIP3    H136343   2.140   1.766   6.003  0.5463 -0.9365  0.1648
 4976TIP3    H236344   2.003   1.741   6.063 -0.0735  0.8973 -0.4605
 4977TIP3   OH236345   3.344   1.994   2.973 -0.4069 -0.1824  0.3657
 4977TIP3    H136346   3.373   1.976   3.062 -2.6500  0.8307  1.3493
 4977TIP3    H236347   3.411   2.053   2.938 -0.9144  1.6809  2.3796
 4978TIP3   OH236348   5.369   4.522   4.310 -0.8006 -0.0567  0.0445
 4978TIP3    H136349   5.368   4.433   4.276  1.5096 -0.3944  0.7096
 4978TIP3    H236350   5.304   4.522   4.380  0.1207 -1.6411  0.9397
 4979TIP3   OH236351   0.614   2.926   3.784  0.2466  0.7466 -0.6619
 4979TIP3    H136352   0.617   3.021   3.774  0.3978  0.5795 -2.3053
 4979TIP3    H236353   0.679   2.893   3.723  1.5373 -0.3491  1.2457
 4980TIP3   OH236354   3.495   1.530   2.834 -0.3360 -0.0266 -0.3571
 4980TIP3    H136355   3.478   1.511   2.926  0.1386 -0.3463 -0.3352
 4980TIP3    H236356   3.576   1.484   2.814 -0.2408  0.3455 -0.8400
 4981TIP3   OH236357   3.298   4.988   0.321 -0.3136 -0.1687  0.0144
 4981TIP3    H136358   3.271   4.989   0.229  0.7538  1.0849 -0.3008
 4981TIP3    H236359   3.270   5.073   0.355 -2.4346 -1.3778  1.3845
 4982TIP3   OH236360   5.178   0.751  15.722  0.0469  0.5047  0.7519
 4982TIP3    H136361   5.099   0.794  15.689 -0.1825 -1.9293 -2.0798
 4982TIP3    H236362   5.250   0.808  15.695 -0.3527 -0.1139 -1.7348
 4983TIP3   OH236363   0.622   0.164   4.164 -0.5074  0.4281 -0.0335
 4983TIP3    H136364   0.677   0.243   4.165 -0.2157  0.2352 -0.5671
 4983TIP3    H236365   0.559   0.178   4.234  1.0652  0.0454  1.5074
 4984TIP3   OH236366   2.161   5.182   2.927 -0.1529 -0.1028  0.4357
 4984TIP3    H136367   2.256   5.184   2.935 -0.1858  0.0462  0.8043
 4984TIP3    H236368   2.144   5.119   2.857  0.3255  2.1328 -1.7575
 4985TIP3   OH236369   5.222   3.020  17.147  0.0656 -0.1147  0.0052
 4985TIP3    H136370   5.215   3.113  17.170  0.2534  1.0334 -4.1724
 4985TIP3    H236371   5.132   2.988  17.149 -0.1853  0.5721 -0.2108
 4986TIP3   OH236372   6.693   2.666  15.794 -0.5802  0.3174  0.2121
 4986TIP3    H136373   6.645   2.748  15.786  0.2169  0.7628 -0.0251
 4986TIP3    H236374   6.665   2.630  15.879  0.1665  1.5526  0.9992
 4987TIP3   OH236375   3.190   6.021  17.130  0.1848 -0.1840  0.2807
 4987TIP3    H136376   3.146   6.099  17.095 -0.8255 -0.6108  0.5777
 4987TIP3    H236377   3.283   6.043  17.128  0.0870  0.1720 -1.7714
 4988TIP3   OH236378   3.778   0.715   2.227 -0.2750  0.1086 -0.4972
 4988TIP3    H136379   3.835   0.649   2.266  0.7136  1.4201  0.3617
 4988TIP3    H236380   3.708   0.727   2.291 -0.3251  0.0495 -0.5417
 4989TIP3   OH236381   1.670   0.087   3.717 -0.1441  0.3889  0.5445
 4989TIP3    H136382   1.661   0.072   3.623 -1.5816 -0.5463  0.8153
 4989TIP3    H236383   1.645   0.178   3.730 -2.3134 -0.1482  0.3161
 4990TIP3   OH236384   1.577   5.546  11.669 -0.2087  0.7140 -0.2831
 4990TIP3    H136385   1.500   5.591  11.636 -0.9004  0.3558  0.8244
 4990TIP3    H236386   1.560   5.453  11.654  0.7746  0.7287 -1.6306
 4991TIP3   OH236387   0.537   1.285   3.181  0.2261  0.3019 -0.6932
 4991TIP3    H136388   0.543   1.223   3.254 -0.1569  0.1115 -0.8220
 4991TIP3    H236389   0.452   1.328   3.194  1.4133  2.3364  0.6172
 4992TIP3   OH236390   3.060   3.387   2.005 -0.3021 -0.1268 -0.1579
 4992TIP3    H136391   3.084   3.443   2.078  1.4401 -0.4376 -0.4711
 4992TIP3    H236392   3.098   3.430   1.928 -1.0771 -0.4366 -0.7233
 4993TIP3   OH236393   0.041   5.241   2.551  0.5213  0.0050  0.0783
 4993TIP3    H136394  -0.008   5.189   2.615 -0.2432  1.2430  0.5269
 4993TIP3    H236395   0.124   5.194   2.540  0.7434 -0.1487  2.1321
 4994TIP3   OH236396   2.064   2.855   4.537  0.0314 -0.5339 -0.0811
 4994TIP3    H136397   2.051   2.950   4.545 -0.2807 -0.6222  0.4329
 4994TIP3    H236398   2.159   2.844   4.535  0.0655 -0.1757 -0.5660
 4995TIP3   OH236399   3.539   1.558  13.127 -0.5238  0.2901  0.0569
 4995TIP3    H136400   3.489   1.477  13.118  1.1644 -0.5813 -1.6684
 4995TIP3    H236401   3.484   1.625  13.086 -0.4973 -0.5846 -1.4296
 4996TIP3   OH236402   0.066   6.133   1.672  0.0229 -0.2177 -0.5357
 4996TIP3    H136403   0.059   6.044   1.705  1.0348 -1.1391 -2.7096
 4996TIP3    H236404  -0.021   6.171   1.684 -0.3006 -1.3606  0.7496
 4997TIP3   OH236405   0.882   1.971  14.072 -0.4164  0.3298  0.2808
 4997TIP3    H136406   0.843   2.005  13.991 -1.9664 -1.2918  0.3310
 4997TIP3    H236407   0.851   1.881  14.079  2.3910 -0.6587  0.9624
 4998TIP3   OH236408   6.745   3.397  14.667 -0.3535  0.2368 -0.0572
 4998TIP3    H136409   6.692   3.318  14.655  1.0865 -1.4014  3.6240
 4998TIP3    H236410   6.688   3.456  14.717 -0.6047  0.6721 -0.8385
 4999TIP3   OH236411   6.072   4.791  15.067 -0.5683  0.4129 -0.0926
 4999TIP3    H136412   6.117   4.794  14.983 -1.6187 -0.4189 -0.6863
 4999TIP3    H236413   6.111   4.863  15.117 -0.0217  0.9821 -1.3205
 5000TIP3   OH236414   1.890   2.585  11.139  0.2041 -0.5639 -0.1829
 5000TIP3    H136415   1.981   2.569  11.112  0.0903 -0.8815 -0.3832
 5000TIP3    H236416   1.838   2.564  11.061  0.0737  1.2217 -0.6104
 5001TIP3   OH236417   0.577   1.373   2.908 -0.1320 -0.8766  0.4010
 5001TIP3    H136418   0.626   1.408   2.983  0.2794  0.7234 -0.5934
 5001TIP3    H236419   0.489   1.409   2.919 -0.3057 -1.3539  0.5819
 5002TIP3   OH236420   0.427   6.201  16.887  0.1286 -0.2423  0.1685
 5002TIP3    H136421   0.461   6.115  16.861 -0.6635 -0.5764  0.2179
 5002TIP3    H236422   0.420   6.196  16.982 -1.3309 -0.6615  0.0496
 5003TIP3   OH236423   3.464   1.600  10.462  0.0268  0.4891 -0.8450
 5003TIP3    H136424   3.517   1.645  10.528 -2.4304  0.6352  1.0689
 5003TIP3    H236425   3.414   1.671  10.420 -0.9837  0.0053 -0.4706
 5004TIP3   OH236426   5.621   1.516   5.517 -0.2636 -0.3852  0.2108
 5004TIP3    H136427   5.535   1.491   5.551 -1.3156  2.9831  0.2320
 5004TIP3    H236428   5.603   1.555   5.432  1.4323 -0.8616 -0.3981
 5005TIP3   OH236429   1.560   0.127   0.457  0.4527  0.3953  0.1839
 5005TIP3    H136430   1.587   0.063   0.391  0.1152  1.1921 -0.7400
 5005TIP3    H236431   1.635   0.134   0.516 -0.1121 -2.0904  1.2738
 5006TIP3   OH236432   5.028   2.071  12.770  0.0118  0.3503 -0.5326
 5006TIP3    H136433   5.080   2.064  12.849 -1.5304  0.2302  0.5011
 5006TIP3    H236434   5.055   1.996  12.717  1.3598  0.6722 -0.3169
 5007TIP3   OH236435   0.698   3.213   4.030  0.1093  0.6241  0.1358
 5007TIP3    H136436   0.702   3.123   3.998  0.1496  0.4014  0.7633
 5007TIP3    H236437   0.614   3.220   4.075  0.0484  0.9409 -0.0193
 5008TIP3   OH236438   3.078   0.577  15.131 -0.2373  0.0114  0.1529
 5008TIP3    H136439   3.073   0.502  15.190 -2.9116  0.5863  0.7454
 5008TIP3    H236440   3.083   0.539  15.043 -0.0518 -0.8551  0.5325
 5009TIP3   OH236441   5.966   0.267   0.343  0.1695 -0.2066 -0.7057
 5009TIP3    H136442   6.035   0.205   0.368 -1.2510 -2.0880 -1.3051
 5009TIP3    H236443   5.909   0.270   0.420  0.2625  0.3890 -0.6631
 5010TIP3   OH236444   1.189   5.938  16.657 -0.3766 -0.4070  0.1862
 5010TIP3    H136445   1.162   6.028  16.676  2.0566  0.2565  0.6079
 5010TIP3    H236446   1.165   5.889  16.736 -1.0872 -0.0073  0.2260
 5011TIP3   OH236447   5.849   4.591  16.419  0.2247 -0.2965 -0.2070
 5011TIP3    H136448   5.911   4.658  16.389 -1.4345  1.2826 -0.2297
 5011TIP3    H236449   5.799   4.635  16.488  0.3181 -2.1188  1.0266
 5012TIP3   OH236450   1.627   1.580  14.873  0.5933  0.8284  0.1182
 5012TIP3    H136451   1.656   1.527  14.947 -0.8473 -1.2783 -0.7746
 5012TIP3    H236452   1.591   1.660  14.913 -0.5475 -0.4612  1.7219
 5013TIP3   OH236453   2.474   5.297   5.951  0.0977 -0.0372 -0.1277
 5013TIP3    H136454   2.434   5.324   5.869  0.9802  0.7571 -0.3072
 5013TIP3    H236455   2.568   5.293   5.932  0.3322  0.3550  0.8933
 5014TIP3   OH236456   3.074   4.930  10.929  0.6651 -0.2183 -0.1733
 5014TIP3    H136457   3.148   4.873  10.949 -0.8413 -2.0184  0.3571
 5014TIP3    H236458   3.003   4.871  10.904 -0.7385  1.4419 -0.2564
 5015TIP3   OH236459   4.700   1.508   3.381  0.2880  0.0189 -0.2383
 5015TIP3    H136460   4.617   1.507   3.429  0.5843 -1.0110  0.2535
 5015TIP3    H236461   4.680   1.557   3.301 -0.7345 -0.0209 -0.0151
 5016TIP3   OH236462   2.803   1.293   2.919  0.4384  0.2394 -0.2176
 5016TIP3    H136463   2.787   1.387   2.921  1.0663  0.3326  0.2483
 5016TIP3    H236464   2.874   1.278   2.981  0.6582 -0.4834 -0.6280
 5017TIP3   OH236465   3.652   4.845   6.536 -0.6084  0.1421 -0.0451
 5017TIP3    H136466   3.702   4.817   6.613  2.2561  1.2946 -1.4193
 5017TIP3    H236467   3.639   4.764   6.487 -0.1421 -0.1869  0.3573
 5018TIP3   OH236468   1.433   1.357  11.147 -0.1750  0.0758  0.3573
 5018TIP3    H136469   1.391   1.309  11.076 -0.1863  2.0727 -1.0084
 5018TIP3    H236470   1.524   1.327  11.145 -0.0969  0.3707 -0.7251
 5019TIP3   OH236471   5.196   1.431  16.780 -0.7473  0.4892 -0.7574
 5019TIP3    H136472   5.163   1.521  16.788 -1.0437  0.4279 -1.2198
 5019TIP3    H236473   5.141   1.380  16.839 -0.4633  0.6375 -0.3592
 5020TIP3   OH236474   1.728   3.489  12.661  0.4621  0.4206  0.1003
 5020TIP3    H136475   1.682   3.484  12.745  0.9561 -0.0320  0.3458
 5020TIP3    H236476   1.795   3.421  12.666  1.4348  1.3484 -0.0833
 5021TIP3   OH236477   2.846   4.122  16.614  0.4386 -0.1046 -0.0285
 5021TIP3    H136478   2.924   4.174  16.635  1.5704 -1.5969 -0.3677
 5021TIP3    H236479   2.782   4.185  16.584  1.3202  1.2333  0.8417
 5022TIP3   OH236480   6.252   0.159  16.979 -0.0020 -0.2126 -0.1126
 5022TIP3    H136481   6.180   0.217  17.003  0.2656  1.3125 -2.9278
 5022TIP3    H236482   6.318   0.216  16.941  1.5312 -1.9884 -0.1867
 5023TIP3   OH236483   6.352   4.354   3.030 -0.2808 -0.2341  0.1343
 5023TIP3    H136484   6.301   4.295   2.974 -1.1883  1.1828 -0.5698
 5023TIP3    H236485   6.287   4.397   3.084  0.6489 -2.0551  2.8076
 5024TIP3   OH236486   4.189   4.640  13.543 -0.0182  0.0775  0.9211
 5024TIP3    H136487   4.111   4.587  13.526  0.5679 -0.5974  0.3406
 5024TIP3    H236488   4.200   4.635  13.638 -1.5238  1.3797  1.1999
 5025TIP3   OH236489   4.199   0.768   2.697 -0.1700  0.3778 -0.6975
 5025TIP3    H136490   4.136   0.761   2.769  0.6773 -2.1581 -0.1527
 5025TIP3    H236491   4.284   0.753   2.739  0.5107  0.7413 -1.9365
 5026TIP3   OH236492   0.470   4.477  12.922 -0.0030  0.0228 -0.3557
 5026TIP3    H136493   0.376   4.466  12.911  0.0800 -0.5557 -0.5131
 5026TIP3    H236494   0.507   4.393  12.895  0.4028 -0.5733  1.9837
 5027TIP3   OH236495   2.697   0.970  14.485  0.0206  0.0525  0.3668
 5027TIP3    H136496   2.629   1.030  14.456 -1.5262 -1.2018  1.2660
 5027TIP3    H236497   2.695   0.899  14.421 -0.6829 -0.7924  1.3044
 5028TIP3   OH236498   2.705   4.203  13.198  0.6830  0.0298 -0.4482
 5028TIP3    H136499   2.676   4.124  13.154  0.9270 -0.3669  0.0981
 5028TIP3    H236500   2.712   4.178  13.290  1.7933  0.3931 -0.4212
 5029TIP3   OH236501   2.212   2.430  12.046  0.5896  0.3723  0.0843
 5029TIP3    H136502   2.164   2.470  12.119  1.5586 -0.4851  1.1985
 5029TIP3    H236503   2.153   2.362  12.014 -0.7423  2.1328 -1.3242
 5030TIP3   OH236504   1.431   2.272   5.272 -0.5046 -0.3045  0.7071
 5030TIP3    H136505   1.468   2.272   5.360  1.3192  0.7351 -0.0377
 5030TIP3    H236506   1.488   2.214   5.222 -0.7688  0.1207 -0.0953
 5031TIP3   OH236507   1.082   5.505   3.510 -0.5492 -0.9495  0.2704
 5031TIP3    H136508   1.073   5.422   3.462 -0.2151 -1.6683  1.4352
 5031TIP3    H236509   1.107   5.479   3.599 -1.4824  0.3608  0.9301
 5032TIP3   OH236510   0.615   3.929   5.776 -0.2882  0.3693  0.3990
 5032TIP3    H136511   0.669   3.909   5.853  0.0953  0.3500  0.1260
 5032TIP3    H236512   0.678   3.962   5.711 -0.4927 -0.3883 -0.1910
 5033TIP3   OH236513   6.589   5.569   4.149  0.1183 -0.0027  0.2832
 5033TIP3    H136514   6.555   5.658   4.154 -0.8969 -0.3017 -1.2109
 5033TIP3    H236515   6.642   5.568   4.069  0.9686 -0.4608  0.8473
 5034TIP3   OH236516   2.631   2.005  16.046 -0.4443  0.1809 -0.2297
 5034TIP3    H136517   2.621   2.009  15.951  1.4659  2.1178 -0.4021
 5034TIP3    H236518   2.644   1.912  16.066  0.3163 -0.1028 -2.0005
 5035TIP3   OH236519   2.890   1.979  15.812 -0.2175 -0.5767 -0.0138
 5035TIP3    H136520   2.911   2.063  15.770 -2.3334  0.0369  0.0763
 5035TIP3    H236521   2.880   2.000  15.905  0.1699 -1.0974  0.1439
 5036TIP3   OH236522   5.868   4.851   1.335  0.1118 -0.5176 -0.4100
 5036TIP3    H136523   5.950   4.893   1.308 -0.8024  2.0468  0.5894
 5036TIP3    H236524   5.815   4.851   1.256  0.8928 -1.8068 -0.9573
 5037TIP3   OH236525   4.890   3.516   1.061  0.1300 -0.0242  0.1537
 5037TIP3    H136526   4.836   3.451   1.015  1.8858 -0.5812 -1.1725
 5037TIP3    H236527   4.947   3.465   1.117  2.3197  0.2627 -1.7523
 5038TIP3   OH236528   2.390   1.344   5.869  0.0509 -0.3104 -0.0294
 5038TIP3    H136529   2.313   1.397   5.849 -0.0842  0.3221  1.9965
 5038TIP3    H236530   2.465   1.401   5.852  0.0376 -0.5567 -0.9368
 5039TIP3   OH236531   4.891   3.896  14.849 -1.1637  0.5917  0.0817
 5039TIP3    H136532   4.811   3.870  14.894 -1.4348  1.2140 -0.0409
 5039TIP3    H236533   4.922   3.972  14.898 -0.6442  0.3544  0.1278
 5040TIP3   OH236534   1.844   4.319   0.157 -0.0395 -0.6219  0.4489
 5040TIP3    H136535   1.770   4.377   0.140 -0.3403 -1.2846 -0.5879
 5040TIP3    H236536   1.809   4.231   0.144  1.1767 -0.9069 -1.0184
 5041TIP3   OH236537   3.203   5.844   5.438 -0.0085  0.3342  0.1832
 5041TIP3    H136538   3.161   5.828   5.353  3.0917 -3.3481 -0.7984
 5041TIP3    H236539   3.152   5.790   5.499  0.3438 -0.3634 -0.1319
 5042TIP3   OH236540   5.954   3.666  14.279 -0.2931 -0.1397 -0.1965
 5042TIP3    H136541   5.935   3.718  14.357 -1.1849 -0.8365  0.0539
 5042TIP3    H236542   5.908   3.712  14.208 -1.1036 -0.5950  0.0290
 5043TIP3   OH236543   6.386   2.625  13.770  0.2439 -0.2719  0.1327
 5043TIP3    H136544   6.374   2.696  13.707  2.0862 -1.6471 -1.8165
 5043TIP3    H236545   6.480   2.621  13.784  0.1504 -2.3369  0.2371
 5044TIP3   OH236546   2.899   5.574  14.816  0.3389 -0.1585  0.3732
 5044TIP3    H136547   2.816   5.542  14.851  0.7497 -1.3064  0.3321
 5044TIP3    H236548   2.961   5.562  14.887  1.0310 -1.8513 -0.4689
 5045TIP3   OH236549   3.370   1.963   0.046 -0.4196 -0.3307  0.4634
 5045TIP3    H136550   3.438   2.025   0.019 -1.7350  1.4589  1.1533
 5045TIP3    H236551   3.399   1.932   0.132  0.0048 -0.2772  0.3406
 5046TIP3   OH236552   5.619   5.651  13.819 -0.3262 -0.3281  0.5801
 5046TIP3    H136553   5.604   5.745  13.832 -0.8618 -0.2394 -0.5875
 5046TIP3    H236554   5.685   5.646  13.750 -2.3894 -0.8048 -1.4273
 5047TIP3   OH236555   4.950   5.011  15.656  0.9113 -0.3103 -0.2547
 5047TIP3    H136556   5.019   5.006  15.590  0.2195 -1.4705 -0.9027
 5047TIP3    H236557   4.918   4.921  15.665 -0.6932  0.2529 -0.1491
 5048TIP3   OH236558   1.811   6.338   1.365  0.5923  0.2414 -0.1326
 5048TIP3    H136559   1.759   6.396   1.420 -1.0296  0.6524 -2.0580
 5048TIP3    H236560   1.776   6.349   1.277  3.9795  0.6039 -1.5397
 5049TIP3   OH236561   1.289   4.034   2.341 -0.5898 -0.2409  0.1540
 5049TIP3    H136562   1.355   3.990   2.287  0.5814  1.6646 -0.0059
 5049TIP3    H236563   1.248   3.963   2.391 -0.4075 -1.8052 -1.8548
 5050TIP3   OH236564   5.970   2.254  16.442  0.4177  0.6500  0.4775
 5050TIP3    H136565   5.953   2.169  16.482  0.1810  0.8850  0.8782
 5050TIP3    H236566   5.884   2.287  16.416  0.4280  1.1006  1.0038
 5051TIP3   OH236567   5.385   4.784  12.672  0.3362  0.1910 -0.4078
 5051TIP3    H136568   5.459   4.843  12.657  1.3131 -0.7303  0.6924
 5051TIP3    H236569   5.316   4.817  12.613  1.5697  1.1215 -1.3690
 5052TIP3   OH236570   0.290   1.282   2.483  0.1558  0.0350  0.7883
 5052TIP3    H136571   0.253   1.295   2.396  0.1593 -0.2535  0.7460
 5052TIP3    H236572   0.292   1.188   2.495 -1.6145  0.1067  1.8614
 5053TIP3   OH236573   0.608   5.707   3.244 -0.2031  0.4828 -0.2446
 5053TIP3    H136574   0.621   5.621   3.283  0.4355  0.7461  0.1283
 5053TIP3    H236575   0.513   5.717   3.238 -0.3132  0.7155  1.8364
 5054TIP3   OH236576   3.521   6.373   3.295 -0.3672 -0.3646  0.4735
 5054TIP3    H136577   3.599   6.323   3.319  0.4597 -0.1336 -1.5839
 5054TIP3    H236578   3.448   6.321   3.326  0.5766 -1.1823  1.3593
 5055TIP3   OH236579   5.178   1.716   0.707  0.0630  0.2663  0.0887
 5055TIP3    H136580   5.205   1.624   0.700  1.2191  0.5979  0.0754
 5055TIP3    H236581   5.257   1.762   0.734 -0.5635  1.2363  0.2897
 5056TIP3   OH236582   6.639   2.757   1.942  0.0420 -0.0394  0.1822
 5056TIP3    H136583   6.707   2.715   1.996  0.5901  1.4525  0.6770
 5056TIP3    H236584   6.567   2.773   2.003  0.3870  1.0159  0.3150
 5057TIP3   OH236585   2.480   3.649   1.857 -0.1275  0.6787  0.5665
 5057TIP3    H136586   2.480   3.579   1.792 -0.1284 -0.5426  1.8522
 5057TIP3    H236587   2.445   3.725   1.810  0.2081 -0.0760 -0.9515
 5058TIP3   OH236588   1.165   3.794  15.513 -0.3670 -0.6387  0.7771
 5058TIP3    H136589   1.105   3.735  15.558  0.4056 -2.6102 -0.7100
 5058TIP3    H236590   1.188   3.748  15.432 -1.1611  2.4922 -1.3210
 5059TIP3   OH236591   1.392   5.226  16.308  0.7751 -0.3284 -0.3574
 5059TIP3    H136592   1.363   5.211  16.398  0.2652  1.5989 -0.1924
 5059TIP3    H236593   1.432   5.313  16.309  1.3006 -0.5317 -1.8681
 5060TIP3   OH236594   4.337   3.000   2.577 -0.0526  0.1159  0.0223
 5060TIP3    H136595   4.411   2.971   2.630  0.1104 -0.5006 -0.5206
 5060TIP3    H236596   4.263   3.001   2.637  0.3633  0.5735  0.5292
 5061TIP3   OH236597   1.001   2.951  11.090 -0.2063  0.2347  0.1863
 5061TIP3    H136598   1.036   2.890  11.025 -0.4086  0.6684 -0.3336
 5061TIP3    H236599   1.013   3.038  11.050 -0.2046  0.5121  0.7876
 5062TIP3   OH236600   5.931   1.636   2.726  0.3336  0.2025 -0.0979
 5062TIP3    H136601   5.859   1.699   2.727  0.6139  0.5145  1.2631
 5062TIP3    H236602   5.889   1.551   2.735  0.1093  0.3541  0.2894
 5063TIP3   OH236603   3.641   4.371   5.954 -0.2861 -0.2110 -0.4959
 5063TIP3    H136604   3.635   4.398   6.046  0.2860  0.6918 -0.7162
 5063TIP3    H236605   3.574   4.423   5.910  0.2328  0.2117 -0.7824
 5064TIP3   OH236606   0.576   5.470   3.356 -0.9815 -0.1251 -0.0901
 5064TIP3    H136607   0.631   5.433   3.425 -2.7196  0.0625  1.4372
 5064TIP3    H236608   0.524   5.396   3.325 -1.8819  0.2883  0.4359
 5065TIP3   OH236609   6.686   3.440   0.880 -0.3262 -0.9609  0.0642
 5065TIP3    H136610   6.722   3.355   0.856 -0.9806 -1.2856  0.2179
 5065TIP3    H236611   6.738   3.504   0.830  0.2393 -1.4367  0.0403
 5066TIP3   OH236612   4.610   1.337   0.319 -0.5735  0.6060  0.2113
 5066TIP3    H136613   4.579   1.411   0.267 -1.6260  0.4449  0.5909
 5066TIP3    H236614   4.594   1.261   0.263 -0.5547  0.5538  0.2778
 5067TIP3   OH236615   5.819   0.698   2.008  0.6173  0.0242  0.3773
 5067TIP3    H136616   5.876   0.769   1.979  1.7626 -0.4978  1.2640
 5067TIP3    H236617   5.826   0.632   1.939  0.4399  0.3080  0.0893
 5068TIP3   OH236618   5.222   5.711  11.459  0.3718  0.0994  0.3332
 5068TIP3    H136619   5.138   5.692  11.417  0.1906  0.2752  0.6133
 5068TIP3    H236620   5.220   5.806  11.473  0.1844 -0.0472  1.2771
 5069TIP3   OH236621   5.683   5.348  14.595  0.1679  0.6111  0.3966
 5069TIP3    H136622   5.709   5.342  14.687  0.1493 -0.3451  0.3370
 5069TIP3    H236623   5.605   5.293  14.588  0.0546  0.8401 -0.1556
 5070TIP3   OH236624   6.257   4.082   2.356 -0.5373  0.2214 -0.0223
 5070TIP3    H136625   6.187   4.059   2.295  1.6618 -1.8165 -1.8801
 5070TIP3    H236626   6.325   4.121   2.301  0.6927  0.1481  1.4187
 5071TIP3   OH236627   0.188   3.630  12.124 -0.0149  0.6871  0.3672
 5071TIP3    H136628   0.238   3.688  12.066 -2.5543  1.0626 -1.4859
 5071TIP3    H236629   0.096   3.650  12.106 -1.0098 -3.9777 -0.4139
 5072TIP3   OH236630   0.223   5.759   2.430 -0.3290  0.5547  0.2212
 5072TIP3    H136631   0.155   5.812   2.389 -0.1646  0.2149 -0.4893
 5072TIP3    H236632   0.304   5.784   2.386 -0.4842 -1.4432 -1.2408
 5073TIP3   OH236633   4.786   4.223  11.499 -0.2859  0.3906  0.2972
 5073TIP3    H136634   4.750   4.138  11.522  0.0406 -0.3818 -1.9395
 5073TIP3    H236635   4.833   4.208  11.417  1.0668  2.3958  0.6604
 5074TIP3   OH236636   5.307   3.372  11.373  0.1414 -0.4623 -0.2335
 5074TIP3    H136637   5.268   3.304  11.317  1.4123 -0.6321 -0.9327
 5074TIP3    H236638   5.346   3.434  11.311 -0.3661  0.5271  0.4222
 5075TIP3   OH236639   4.133   4.390   2.179 -0.0535 -1.0607 -0.0508
 5075TIP3    H136640   4.124   4.324   2.248 -1.2129 -1.0534 -0.1858
 5075TIP3    H236641   4.114   4.473   2.223  1.2848 -0.8194  0.0911
 5076TIP3   OH236642   1.462   1.417  16.659 -0.3832  0.2295  0.0619
 5076TIP3    H136643   1.433   1.413  16.567 -0.6406 -2.6945  0.2225
 5076TIP3    H236644   1.552   1.383  16.657 -0.0746  1.0035  0.7743
 5077TIP3   OH236645   6.068   2.269  14.800 -0.5244  0.0567 -0.3847
 5077TIP3    H136646   6.023   2.221  14.731 -1.2318 -0.3944  0.3809
 5077TIP3    H236647   6.007   2.339  14.824 -0.2392  0.2701 -0.2740
 5078TIP3   OH236648   1.962   0.989   3.192  0.6042  0.5112 -0.7435
 5078TIP3    H136649   1.970   1.067   3.138 -0.5793  1.0622 -0.1495
 5078TIP3    H236650   1.966   1.022   3.282 -1.4312  0.0821 -0.4743
 5079TIP3   OH236651   5.962   1.653   1.764 -0.1353  0.0572  0.5495
 5079TIP3    H136652   5.899   1.705   1.814  0.3659  0.8693  0.3557
 5079TIP3    H236653   5.988   1.583   1.823 -1.0417 -0.1552  0.7129
 5080TIP3   OH236654   1.194   1.045  15.070  0.0598  0.7969  0.2096
 5080TIP3    H136655   1.121   0.985  15.054  0.7677 -0.0462  0.0676
 5080TIP3    H236656   1.272   0.993  15.050  0.7384  1.3912  1.2896
 5081TIP3   OH236657   3.545   5.186   1.491 -0.1376 -0.0532  0.1078
 5081TIP3    H136658   3.603   5.153   1.560 -0.1027  2.2345  1.2230
 5081TIP3    H236659   3.603   5.229   1.429 -0.1915 -1.9366 -1.2976
 5082TIP3   OH236660   2.228   2.358  14.598 -0.7576  0.5571  0.0394
 5082TIP3    H136661   2.301   2.408  14.634  0.3488 -0.7744 -0.3327
 5082TIP3    H236662   2.194   2.414  14.527  2.3090 -0.4147 -2.3332
 5083TIP3   OH236663   4.640   5.691  15.215  0.0708  0.1945 -0.2326
 5083TIP3    H136664   4.695   5.761  15.249 -0.7039  0.6414  0.1274
 5083TIP3    H236665   4.617   5.720  15.126  0.3586  0.0393 -0.3591
 5084TIP3   OH236666   6.012   1.729  13.692 -0.2571  0.0451  0.2490
 5084TIP3    H136667   5.948   1.766  13.631  1.2338  1.7132 -0.3223
 5084TIP3    H236668   6.063   1.667  13.640 -0.0148  0.3017  0.1793
 5085TIP3   OH236669   4.132   2.964   4.690 -0.0338 -0.2642 -0.2793
 5085TIP3    H136670   4.057   2.908   4.668  0.5700 -0.6311 -1.4256
 5085TIP3    H236671   4.098   3.053   4.683 -0.4750 -0.4377 -0.3917
 5086TIP3   OH236672   1.157   6.620   5.890 -0.2055 -0.2585  0.0901
 5086TIP3    H136673   1.078   6.643   5.840  0.7312 -0.5833 -1.6011
 5086TIP3    H236674   1.126   6.562   5.959 -1.7369  1.2833  0.7286
 5087TIP3   OH236675   4.548   1.344  11.243  0.4665 -0.5239 -0.0951
 5087TIP3    H136676   4.499   1.273  11.284  0.5445  0.3512  1.5314
 5087TIP3    H236677   4.505   1.357  11.158 -0.8109 -1.1585  0.4446
 5088TIP3   OH236678   2.758   2.328   5.560 -0.0572 -0.7877 -0.2820
 5088TIP3    H136679   2.753   2.247   5.612 -1.7588 -2.4095 -2.8663
 5088TIP3    H236680   2.684   2.380   5.591  1.1532 -0.0928  1.5243
 5089TIP3   OH236681   4.489   2.049  13.813 -0.3690  0.4404  0.4051
 5089TIP3    H136682   4.544   1.980  13.777  0.1664  0.5541  0.9993
 5089TIP3    H236683   4.461   2.016  13.898  0.9418  1.4780  1.2624
 5090TIP3   OH236684   2.209   6.031   1.036 -0.2021 -0.3002  0.4398
 5090TIP3    H136685   2.129   6.073   1.069  0.8388  2.2235 -0.1130
 5090TIP3    H236686   2.225   5.959   1.097 -2.3876 -0.2997  1.0783
 5091TIP3   OH236687   4.048   1.312   1.397  0.0523  0.1319  0.1733
 5091TIP3    H136688   4.116   1.249   1.419  1.7962  1.8785 -0.1176
 5091TIP3    H236689   4.016   1.284   1.311  0.0654 -0.9534  0.5146
 5092TIP3   OH236690   6.023   6.636  15.086  0.2014 -0.1432  0.3656
 5092TIP3    H136691   5.933   6.603  15.088 -0.0367  0.4859  0.0269
 5092TIP3    H236692   6.025   6.706  15.151  1.0548 -1.6728  2.0375
 5093TIP3   OH236693   3.324   0.403  11.637 -0.7783  0.0869 -0.0463
 5093TIP3    H136694   3.361   0.433  11.554 -2.1760 -0.0061 -0.7283
 5093TIP3    H236695   3.342   0.309  11.640 -0.5172  0.1360 -0.1373
 5094TIP3   OH236696   1.428   4.623  14.200  0.3662  0.2912 -0.3405
 5094TIP3    H136697   1.442   4.553  14.264 -0.3631  1.2161  0.8515
 5094TIP3    H236698   1.499   4.611  14.136 -0.4292 -2.2236 -0.8090
 5095TIP3   OH236699   4.850   2.366  14.825  0.0773  0.0622 -0.2705
 5095TIP3    H136700   4.822   2.277  14.848  0.2229 -0.2878 -1.4230
 5095TIP3    H236701   4.924   2.353  14.766  0.0129  0.9491 -0.5446
 5096TIP3   OH236702   5.227   5.244   2.091  0.1729 -0.4103 -0.5415
 5096TIP3    H136703   5.140   5.257   2.128  0.0769 -1.5411 -0.3423
 5096TIP3    H236704   5.282   5.223   2.167  0.5826  0.1722 -0.6817
 5097TIP3   OH236705   3.563   6.715  14.000  0.0725 -0.2110 -0.3090
 5097TIP3    H136706   3.602   6.646  14.054 -0.0072  0.0418  0.0740
 5097TIP3    H236707   3.635   6.745  13.944  0.1581 -0.4719 -0.3362
 5098TIP3   OH236708   3.077   6.273  12.291  0.2180 -0.4178 -0.1062
 5098TIP3    H136709   3.137   6.346  12.276  1.4654 -1.4115 -0.0753
 5098TIP3    H236710   3.080   6.258  12.385  0.7972 -1.1869 -0.2400
 5099TIP3   OH236711   5.616   2.466  15.438 -0.5636 -0.2302 -0.1467
 5099TIP3    H136712   5.653   2.443  15.353 -0.9791 -0.5412 -0.2451
 5099TIP3    H236713   5.661   2.408  15.500  0.1857  0.4246 -0.0698
 5100TIP3   OH236714   6.186   6.301   4.500  0.6391  0.3763 -0.3607
 5100TIP3    H136715   6.147   6.318   4.414  0.7287 -1.4160 -0.7698
 5100TIP3    H236716   6.194   6.387   4.540 -0.7649  1.0775 -1.5643
 5101TIP3   OH236717   1.388   3.782  16.139  0.9010 -0.1851 -0.3005
 5101TIP3    H136718   1.426   3.837  16.070  1.6057 -0.2045  0.0637
 5101TIP3    H236719   1.363   3.844  16.208 -2.0204  0.0937 -1.5532
 5102TIP3   OH236720   0.567   6.329  16.361 -0.2053  0.3040  0.0042
 5102TIP3    H136721   0.660   6.311  16.373 -0.0852  0.7239 -0.2582
 5102TIP3    H236722   0.541   6.376  16.440 -0.0886  0.5713 -0.1144
 5103TIP3   OH236723   3.219   1.389  15.656 -0.0053  0.1532  0.7095
 5103TIP3    H136724   3.251   1.475  15.681  0.0187 -0.1303  1.7130
 5103TIP3    H236725   3.239   1.381  15.563 -0.0586  1.2488  0.5957
 5104TIP3   OH236726   2.833   0.492  14.825 -0.1224  0.0884 -0.1560
 5104TIP3    H136727   2.779   0.525  14.753  0.2418 -0.5863 -0.7477
 5104TIP3    H236728   2.923   0.515  14.799 -0.0072 -0.0017  0.1677
 5105TIP3   OH236729   3.380   2.901  15.745  0.3667 -0.1051 -0.2197
 5105TIP3    H136730   3.319   2.973  15.730  0.9578  0.1819 -1.3026
 5105TIP3    H236731   3.461   2.929  15.702  0.6433 -1.3403 -0.5123
 5106TIP3   OH236732   4.626   5.834  15.730  0.8924  0.4623 -0.0037
 5106TIP3    H136733   4.700   5.775  15.741 -0.0425 -0.7983 -0.4738
 5106TIP3    H236734   4.604   5.830  15.637  1.9622  2.9582 -0.4250
 5107TIP3   OH236735   4.286   1.547  10.510 -0.0963  0.3041  0.1563
 5107TIP3    H136736   4.372   1.589  10.516  0.1012  0.0855 -0.9798
 5107TIP3    H236737   4.228   1.604  10.559  0.8379  0.0586  1.5883
 5108TIP3   OH236738   1.886   3.813  11.389 -0.0427  0.5159  0.7894
 5108TIP3    H136739   1.865   3.764  11.469 -3.1147  0.2048 -0.1529
 5108TIP3    H236740   1.859   3.903  11.408  0.9494  0.8285  0.7396
 5109TIP3   OH236741   5.146   6.631  12.991 -0.1563  0.3937 -0.3012
 5109TIP3    H136742   5.179   6.567  12.928 -0.0591 -1.6739  1.7832
 5109TIP3    H236743   5.218   6.642  13.053 -1.4332 -0.1835  1.3266
 5110TIP3   OH236744   4.577   1.867   1.100  0.0288 -0.6589 -0.1151
 5110TIP3    H136745   4.630   1.884   1.178  0.8415  0.2438 -0.8511
 5110TIP3    H236746   4.504   1.927   1.107  0.6076  0.0965 -0.5272
 5111TIP3   OH236747   5.171   3.244  12.205 -0.0556  0.0370  0.8889
 5111TIP3    H136748   5.180   3.338  12.185  1.5186 -0.2389  0.2351
 5111TIP3    H236749   5.132   3.242  12.292 -2.5694  1.2834 -0.1553
 5112TIP3   OH236750   6.194   2.691  12.886  0.0719  0.0275 -0.1984
 5112TIP3    H136751   6.195   2.743  12.806  0.9862 -1.0438 -0.8967
 5112TIP3    H236752   6.101   2.676  12.904 -0.1238 -0.1626 -1.3392
 5113TIP3   OH236753   2.640   5.933  12.181 -0.2994 -0.3621  0.5981
 5113TIP3    H136754   2.596   6.009  12.144  0.0209  0.0261  1.0146
 5113TIP3    H236755   2.581   5.904  12.251 -1.0760 -1.3046 -0.4243
 5114TIP3   OH236756   1.546   0.068  11.290 -0.1819 -0.0917 -0.2167
 5114TIP3    H136757   1.621   0.016  11.261  0.5557  0.5158  0.5667
 5114TIP3    H236758   1.543   0.056  11.385  0.8170  2.3153  0.1680
 5115TIP3   OH236759   2.085   4.787  11.759  0.1782  0.2222  0.4622
 5115TIP3    H136760   2.043   4.729  11.821  1.0478 -0.8160  0.1133
 5115TIP3    H236761   2.027   4.863  11.752  0.1987  0.4712  2.7085
 5116TIP3   OH236762   0.626   0.128   3.015 -0.6381  0.2064  0.0491
 5116TIP3    H136763   0.538   0.143   2.980 -0.9461  0.4774  0.9080
 5116TIP3    H236764   0.615   0.134   3.110  0.4721  1.1863  0.1318
 5117TIP3   OH236765   2.982   2.566   0.128  0.2342 -0.3261 -0.5325
 5117TIP3    H136766   3.014   2.488   0.174  0.8467 -0.9372 -1.9864
 5117TIP3    H236767   2.996   2.547   0.035 -0.7641  1.0068 -0.9658
 5118TIP3   OH236768   6.457   0.993  12.945 -0.4425  0.4056 -0.1254
 5118TIP3    H136769   6.411   0.914  12.974  0.2978 -0.1043 -0.3099
 5118TIP3    H236770   6.513   1.015  13.020  2.3385 -1.5798 -1.5300
 5119TIP3   OH236771   4.672   6.240   3.730 -0.0517  0.8335 -0.1152
 5119TIP3    H136772   4.619   6.162   3.744 -1.5258  1.8050 -0.1439
 5119TIP3    H236773   4.761   6.207   3.720 -0.8990 -1.0173 -2.0154
 5120TIP3   OH236774   0.541   4.824   4.657 -0.0383  0.0481  0.0336
 5120TIP3    H136775   0.463   4.792   4.702 -0.1717  1.4687  0.8856
 5120TIP3    H236776   0.513   4.842   4.568  0.1201 -2.4232 -0.5415
 5121TIP3   OH236777   2.376   6.023  11.053  0.6413 -0.1329 -0.1646
 5121TIP3    H136778   2.320   6.001  11.127  0.7316 -1.6602 -0.5190
 5121TIP3    H236779   2.330   6.093  11.007 -0.2990 -0.4137  0.3363
 5122TIP3   OH236780   1.722   5.446  11.365  0.6686 -0.5173 -0.7702
 5122TIP3    H136781   1.814   5.448  11.392  0.5609  0.6741 -0.4702
 5122TIP3    H236782   1.712   5.523  11.309 -0.4623  0.1135  0.2765
 5123TIP3   OH236783   5.940   1.904  13.912 -0.2721  0.5035  0.5701
 5123TIP3    H136784   5.950   1.817  13.872 -0.3960  0.5554  0.4232
 5123TIP3    H236785   5.875   1.891  13.981  0.6973  0.1968  1.4349
 5124TIP3   OH236786   6.300   3.302   3.069  0.0561 -0.1025 -0.0904
 5124TIP3    H136787   6.263   3.216   3.087 -0.0538  0.1338  0.8470
 5124TIP3    H236788   6.332   3.332   3.154 -3.0226  2.2769  0.2740
 5125TIP3   OH236789   3.948   6.392  11.682  0.4747 -0.2620  0.2934
 5125TIP3    H136790   3.954   6.299  11.702 -0.2312 -0.3691  0.0255
 5125TIP3    H236791   3.878   6.425  11.739  2.1017  0.5339  1.8795
 5126TIP3   OH236792   2.045   4.137   4.250 -0.8438 -0.7158  0.1878
 5126TIP3    H136793   2.051   4.055   4.200  1.0298 -0.3386 -0.2358
 5126TIP3    H236794   2.019   4.202   4.186  0.5004 -0.4412 -0.0986
 5127TIP3   OH236795   5.509   0.938  14.641 -0.6352 -0.3066 -0.3535
 5127TIP3    H136796   5.466   1.007  14.692  0.9384  0.7707 -0.4226
 5127TIP3    H236797   5.506   0.861  14.698 -0.8363  0.3042  0.4781
 5128TIP3   OH236798   2.597   5.267  15.546  0.1758 -0.0972  0.4145
 5128TIP3    H136799   2.611   5.233  15.634  1.4007 -2.2337 -0.5667
 5128TIP3    H236800   2.502   5.280  15.541  0.0673 -0.1517  1.9688
 5129TIP3   OH236801   0.140   5.720   0.343 -0.6229  0.0913  0.1870
 5129TIP3    H136802   0.114   5.763   0.425 -3.7383 -0.1073 -0.6386
 5129TIP3    H236803   0.092   5.637   0.343  1.2033 -1.0044 -0.7516
 5130TIP3   OH236804   5.282   3.947  15.730  0.6995  0.6714 -0.3206
 5130TIP3    H136805   5.338   3.990  15.795  0.6078  2.1849 -1.2033
 5130TIP3    H236806   5.230   4.018  15.693  1.7517  0.1006 -3.0311
 5131TIP3   OH236807   2.515   1.187  12.814 -0.3529  0.1470 -0.0794
 5131TIP3    H136808   2.588   1.223  12.865  0.0396  2.3194 -2.0954
 5131TIP3    H236809   2.544   1.099  12.789  1.6567  1.0288 -0.9481
 5132TIP3   OH236810   5.160   6.696  11.487  0.0565  0.0558 -0.1934
 5132TIP3    H136811   5.208   6.626  11.531  0.6248  1.6075  1.7051
 5132TIP3    H236812   5.102   6.650  11.426  0.7403 -2.0384  0.6820
 5133TIP3   OH236813   4.744   3.545  15.347 -0.3674  0.0842  0.5074
 5133TIP3    H136814   4.670   3.529  15.289  0.4420  1.4047 -0.9524
 5133TIP3    H236815   4.807   3.476  15.326 -0.4988 -0.0535  0.5666
 5134TIP3   OH236816   4.343   1.900  16.146  0.3168 -0.1024  0.1251
 5134TIP3    H136817   4.379   1.987  16.131  1.7233 -0.1464  2.8316
 5134TIP3    H236818   4.379   1.846  16.076  2.5197  0.6790  0.6358
 5135TIP3   OH236819   3.646   3.250   2.337  0.2401 -0.0314  0.3723
 5135TIP3    H136820   3.641   3.161   2.372  0.4070  0.3431  1.3521
 5135TIP3    H236821   3.625   3.306   2.411  2.9107  0.8803  0.4881
 5136TIP3   OH236822   3.867   1.915   1.228 -0.5135  0.5705 -0.4392
 5136TIP3    H136823   3.873   1.920   1.324  0.1278 -0.6629 -0.3942
 5136TIP3    H236824   3.891   1.824   1.208 -1.4386  0.5998 -1.7142
 5137TIP3   OH236825   4.737   2.689  16.784  0.1682 -0.5734  0.4116
 5137TIP3    H136826   4.715   2.708  16.875 -1.6855 -0.8956  0.0629
 5137TIP3    H236827   4.801   2.618  16.788  1.1213  0.3324  1.4839
 5138TIP3   OH236828   3.123   5.034   1.459  0.3684 -0.1743  0.3636
 5138TIP3    H136829   3.082   5.021   1.545 -0.8311  2.0189  0.1829
 5138TIP3    H236830   3.090   5.120   1.430  2.4421  0.0941 -1.3334
 5139TIP3   OH236831   2.243   3.983  15.150  0.1039  0.0120  0.1226
 5139TIP3    H136832   2.164   3.958  15.198 -1.1019  0.1501 -1.7325
 5139TIP3    H236833   2.309   3.919  15.177 -1.6577 -2.3982 -1.0869
 5140TIP3   OH236834   2.140   6.042   0.738 -0.4457  0.3406 -0.0938
 5140TIP3    H136835   2.146   6.053   0.833 -0.3660  1.0229 -0.1749
 5140TIP3    H236836   2.177   5.956   0.721  0.6751  0.7314  0.3704
 5141TIP3   OH236837   1.570   1.893  12.825  0.1028  0.1797 -0.4521
 5141TIP3    H136838   1.548   1.922  12.913  0.9567 -0.0775 -0.1542
 5141TIP3    H236839   1.495   1.921  12.771 -1.3295 -1.4033  0.6773
 5142TIP3   OH236840   5.050   6.424   5.997 -0.0648 -0.2792 -0.3860
 5142TIP3    H136841   5.130   6.439   5.946  1.1976  0.1488  1.6680
 5142TIP3    H236842   5.021   6.512   6.022  0.1007 -0.5698  0.8168
 5143TIP3   OH236843   1.755   2.560   2.816 -0.3086 -0.3976 -0.6405
 5143TIP3    H136844   1.822   2.562   2.747 -1.3361 -1.9248 -1.7223
 5143TIP3    H236845   1.673   2.574   2.770 -0.9727 -1.0168  0.3263
 5144TIP3   OH236846   0.423   5.299   3.229 -0.1899  0.7478 -0.3113
 5144TIP3    H136847   0.361   5.227   3.238  0.2508  0.4274  0.2010
 5144TIP3    H236848   0.488   5.268   3.167  1.7230 -0.5280  2.2300
 5145TIP3   OH236849   6.078   2.194   1.568  0.5637  0.1917  0.0851
 5145TIP3    H136850   6.172   2.208   1.575  0.7656 -0.5220 -1.0432
 5145TIP3    H236851   6.053   2.241   1.488 -0.1790  1.0541  0.8174
 5146TIP3   OH236852   4.355   4.137  15.470  0.0428 -0.3949  0.0425
 5146TIP3    H136853   4.413   4.095  15.534  0.2156  0.2600  0.3189
 5146TIP3    H236854   4.360   4.080  15.393  0.0510 -1.0389  0.5067
 5147TIP3   OH236855   1.600   2.243   5.493 -0.1826 -0.8875 -0.3907
 5147TIP3    H136856   1.605   2.251   5.588 -0.2010  2.4044 -0.6037
 5147TIP3    H236857   1.667   2.178   5.471  1.0534 -0.3813  1.7391
 5148TIP3   OH236858   5.173   3.679  14.596  0.0566 -0.1542 -0.1325
 5148TIP3    H136859   5.227   3.731  14.656  0.2757  1.2147 -1.4884
 5148TIP3    H236860   5.198   3.710  14.509 -0.4469 -1.9430 -0.9263
 5149TIP3   OH236861   2.000   5.708   0.560 -0.3371  0.2713  0.2044
 5149TIP3    H136862   2.026   5.713   0.468 -0.7510 -0.4549  0.0518
 5149TIP3    H236863   1.982   5.616   0.576 -1.8692  0.6141  0.5764
 5150TIP3   OH236864   1.751   6.038   2.301 -0.1158  0.3025 -0.1044
 5150TIP3    H136865   1.846   6.040   2.307  0.1544 -1.4036 -2.9058
 5150TIP3    H236866   1.721   6.043   2.392  2.6911 -1.0716  0.9588
 5151TIP3   OH236867   5.500   0.316   0.184  0.1252 -0.1848 -0.3799
 5151TIP3    H136868   5.493   0.228   0.147  1.1945  0.2731 -1.6865
 5151TIP3    H236869   5.486   0.303   0.278 -1.3657 -1.5224 -0.7551
 5152TIP3   OH236870   6.221   5.645  10.918  0.1076  0.9825  0.8097
 5152TIP3    H136871   6.238   5.688  11.002 -1.4181  0.3860  1.4448
 5152TIP3    H236872   6.232   5.552  10.936  0.5323  0.8980  0.1475
 5153TIP3   OH236873   6.348   1.160   0.065 -0.6641  0.1783 -0.4673
 5153TIP3    H136874   6.316   1.104  -0.005  0.6237 -1.9773  0.5855
 5153TIP3    H236875   6.372   1.099   0.135  3.5491  1.7368 -0.3592
 5154TIP3   OH236876   0.647   6.594   5.232  0.4123 -0.4703 -0.1264
 5154TIP3    H136877   0.564   6.622   5.193  1.3190 -1.3860 -2.8181
 5154TIP3    H236878   0.637   6.500   5.245  1.0651 -0.6115 -0.6090
 5155TIP3   OH236879   3.661   4.117  11.833 -0.4202  0.1411  0.2028
 5155TIP3    H136880   3.694   4.033  11.801  0.8120  0.5471  0.3892
 5155TIP3    H236881   3.576   4.096  11.873  1.1927 -1.5115  2.8935
 5156TIP3   OH236882   3.268   1.890   4.988  0.0084  0.4256  0.0430
 5156TIP3    H136883   3.179   1.904   4.957  0.4652 -0.2916 -1.6391
 5156TIP3    H236884   3.324   1.929   4.920  0.9885  0.2363  0.7280
 5157TIP3   OH236885   4.977   2.441   1.533 -0.4236 -0.1404 -0.3961
 5157TIP3    H136886   5.068   2.469   1.520 -0.6617  1.4359  1.1249
 5157TIP3    H236887   4.956   2.469   1.622 -2.0751 -1.4235 -0.3653
 5158TIP3   OH236888   6.742   0.255  12.940  0.3129 -0.0418  0.4255
 5158TIP3    H136889   6.791   0.336  12.952 -0.3493  0.1318  2.0137
 5158TIP3    H236890   6.652   0.278  12.961 -0.3700 -0.5366 -1.7746
 5159TIP3   OH236891   3.817   1.489  11.228 -0.3307 -0.4063  0.4686
 5159TIP3    H136892   3.814   1.571  11.179  1.8664 -0.6147 -0.0796
 5159TIP3    H236893   3.735   1.446  11.208  0.9532 -0.9963 -3.9795
 5160TIP3   OH236894   0.170   5.281   1.034  0.4426  0.5586 -0.3600
 5160TIP3    H136895   0.141   5.366   1.067  1.2834  0.3380  1.0071
 5160TIP3    H236896   0.264   5.291   1.020  0.1789  0.5171 -2.3588
 5161TIP3   OH236897   4.367   6.721   5.922  0.0022 -0.4769  0.3218
 5161TIP3    H136898   4.302   6.787   5.895  0.6654  0.0973  0.0978
 5161TIP3    H236899   4.348   6.645   5.866 -0.1809 -0.1480 -0.0701
 5162TIP3   OH236900   2.035   4.693  14.430 -0.3010 -0.3134  0.0375
 5162TIP3    H136901   2.020   4.787  14.417 -0.8331 -0.6351 -1.9411
 5162TIP3    H236902   1.951   4.652  14.409  0.4760 -1.3558 -1.1560
 5163TIP3   OH236903   6.564   2.058  14.801  0.3967  0.0283 -0.1982
 5163TIP3    H136904   6.471   2.071  14.823  0.6513  2.0021 -0.2196
 5163TIP3    H236905   6.591   1.985  14.856 -1.1276 -0.4557 -0.0609
 5164TIP3   OH236906   1.421   3.540  12.930 -1.4427 -0.3533 -0.0914
 5164TIP3    H136907   1.407   3.602  12.859  0.7318  0.3543  0.0493
 5164TIP3    H236908   1.422   3.593  13.009 -2.1210 -0.9139  0.3007
 5165TIP3   OH236909   0.814   4.399   3.005 -0.0951  0.2521 -0.4746
 5165TIP3    H136910   0.763   4.470   3.046 -0.1842  0.3047 -0.6753
 5165TIP3    H236911   0.895   4.396   3.055 -0.2493  0.2438 -0.2227
 5166TIP3   OH236912   1.267   5.729  12.672  0.1169  0.3465  0.5263
 5166TIP3    H136913   1.284   5.699  12.762 -1.0817 -1.5150  0.1501
 5166TIP3    H236914   1.238   5.650  12.626  1.5874  1.0961 -1.7342
 5167TIP3   OH236915   2.215   6.710   2.028  0.0924 -0.4445  0.1143
 5167TIP3    H136916   2.232   6.721   2.121 -0.6012  0.4066  0.1444
 5167TIP3    H236917   2.120   6.700   2.021 -0.0173  1.0121 -0.6313
 5168TIP3   OH236918   4.606   1.045  15.158 -0.2817  0.0357 -0.3005
 5168TIP3    H136919   4.665   1.112  15.193  0.4871 -0.9334  0.2893
 5168TIP3    H236920   4.558   1.013  15.235  2.3494 -3.0380  0.1298
 5169TIP3   OH236921   0.697   4.578  15.236 -0.4999 -0.1912  0.2866
 5169TIP3    H136922   0.689   4.529  15.154 -0.8216  0.4097 -0.0486
 5169TIP3    H236923   0.609   4.610  15.253 -0.0288  1.4714 -0.2660
 5170TIP3   OH236924   3.998   4.179  11.304 -0.1245  0.0731 -0.0574
 5170TIP3    H136925   4.063   4.227  11.356  0.0351 -0.4655  0.2370
 5170TIP3    H236926   3.916   4.189  11.353  0.0251 -0.4301  0.2831
 5171TIP3   OH236927   2.277   1.965  11.862 -0.2627  0.0628 -0.0217
 5171TIP3    H136928   2.294   2.054  11.831 -0.2378 -0.1646 -0.6694
 5171TIP3    H236929   2.294   1.969  11.956 -1.8173  1.1245  0.2401
 5172TIP3   OH236930   0.605   4.135  15.517 -0.2197  0.2861  0.3211
 5172TIP3    H136931   0.532   4.184  15.553 -2.2133 -2.5496  0.2978
 5172TIP3    H236932   0.605   4.156  15.423 -0.5846  0.7826  0.4328
 5173TIP3   OH236933   1.887   1.216   1.568 -0.1190  0.9013  0.3248
 5173TIP3    H136934   1.888   1.192   1.660 -0.9718  1.9773  0.6344
 5173TIP3    H236935   1.977   1.206   1.539  0.3118  1.3136  1.4931
 5174TIP3   OH236936   2.279   3.001   1.116 -0.2462  0.0801  0.3779
 5174TIP3    H136937   2.290   2.990   1.021 -0.4274  1.3312  0.2001
 5174TIP3    H236938   2.367   2.995   1.152 -0.4205 -2.9991  0.4418
 5175TIP3   OH236939   3.054   0.476  14.378  0.3956  0.6896  0.1275
 5175TIP3    H136940   3.146   0.480  14.352  0.3517 -0.5936 -0.2394
 5175TIP3    H236941   3.006   0.479  14.296  0.1728 -0.3473  0.2076
 5176TIP3   OH236942   5.322   5.654  14.651  0.2008  0.4218 -0.0386
 5176TIP3    H136943   5.344   5.568  14.618  0.1489  0.4335 -0.1052
 5176TIP3    H236944   5.379   5.714  14.603  2.0592  0.1987  1.8150
 5177TIP3   OH236945   3.896   3.296  13.005 -0.0489 -0.0934  0.0957
 5177TIP3    H136946   3.976   3.316  13.055  0.9221 -0.7356 -1.1711
 5177TIP3    H236947   3.859   3.382  12.984  0.9209  0.2455 -0.2644
 5178TIP3   OH236948   0.538   2.994  16.120  0.1444  0.3573 -0.0408
 5178TIP3    H136949   0.629   3.023  16.130 -0.0960  0.6355  1.4245
 5178TIP3    H236950   0.526   2.928  16.188 -1.1123  1.2397  0.6177
 5179TIP3   OH236951   3.640   3.756   6.018 -0.3788 -0.5351  0.4029
 5179TIP3    H136952   3.690   3.809   6.080 -0.7975 -0.7677  0.9371
 5179TIP3    H236953   3.623   3.815   5.944  0.1263 -0.2643  0.5012
 5180TIP3   OH236954   1.580   5.980   4.268 -0.5164 -0.0979 -0.4646
 5180TIP3    H136955   1.533   6.009   4.191 -0.3867  3.0448  0.5907
 5180TIP3    H236956   1.671   6.005   4.252 -0.3817  0.0041  0.4339
 5181TIP3   OH236957   3.276   1.424   3.723  0.2448 -0.2779 -0.1739
 5181TIP3    H136958   3.275   1.329   3.735  0.0724 -0.5648 -2.2813
 5181TIP3    H236959   3.362   1.442   3.685  0.6859  0.5639  1.1836
 5182TIP3   OH236960   2.331   2.487   0.752 -0.5482 -0.0005  0.1712
 5182TIP3    H136961   2.302   2.462   0.664 -0.4195  1.3507 -0.2608
 5182TIP3    H236962   2.257   2.536   0.788 -0.3183  0.0747  0.5420
 5183TIP3   OH236963   1.274   4.351   2.826  0.0012  0.3702 -0.9420
 5183TIP3    H136964   1.271   4.434   2.874 -0.4607  0.0123 -0.3636
 5183TIP3    H236965   1.355   4.357   2.775  1.2112  0.1589  0.9201
 5184TIP3   OH236966   3.305   0.823   1.402  0.0612  0.2589  0.5092
 5184TIP3    H136967   3.331   0.907   1.365  0.5699 -0.1500 -0.0719
 5184TIP3    H236968   3.369   0.806   1.470  1.3726 -0.7681 -0.9498
 5185TIP3   OH236969   2.706   1.679  15.923 -0.4870  0.3504  0.0688
 5185TIP3    H136970   2.660   1.604  15.886 -2.0364  0.9249  0.8038
 5185TIP3    H236971   2.759   1.643  15.994 -0.6353 -0.1571 -0.0797
 5186TIP3   OH236972   3.203   1.341  11.318  0.2411 -0.0562  0.2867
 5186TIP3    H136973   3.117   1.363  11.355  0.3118  0.9607 -0.1516
 5186TIP3    H236974   3.257   1.417  11.336  0.8848 -0.4427 -0.0056
 5187TIP3   OH236975   0.891   1.290  13.778  0.2680 -0.3592 -0.0841
 5187TIP3    H136976   0.974   1.241  13.785 -0.6959 -2.0435 -0.0250
 5187TIP3    H236977   0.825   1.222  13.762 -1.0025  1.0402 -0.8943
 5188TIP3   OH236978   2.243   2.302   0.241 -0.2927  0.4868 -0.6484
 5188TIP3    H136979   2.317   2.295   0.301 -1.5277  0.2333  0.8819
 5188TIP3    H236980   2.228   2.212   0.211 -1.0684  0.2407  0.4224
 5189TIP3   OH236981   4.768   5.598   2.222 -0.1137 -0.5616 -0.3039
 5189TIP3    H136982   4.820   5.677   2.241 -0.9522  0.2187 -1.1769
 5189TIP3    H236983   4.713   5.587   2.299 -1.8220  1.2137 -1.2315
 5190TIP3   OH236984   5.883   2.718  15.196 -0.4415 -0.5712 -0.1360
 5190TIP3    H136985   5.840   2.756  15.273 -1.7231 -1.0211 -0.6177
 5190TIP3    H236986   5.914   2.632  15.226  2.2686  0.7181  0.8928
 5191TIP3   OH236987   6.335   3.760  13.655 -0.2954 -0.0312  0.1801
 5191TIP3    H136988   6.420   3.723  13.630  0.4330  1.1656  0.8392
 5191TIP3    H236989   6.322   3.833  13.595 -0.4381  0.3442  0.6616
 5192TIP3   OH236990   3.990   4.295  13.227  1.2565 -0.1466  0.4393
 5192TIP3    H136991   3.930   4.225  13.254  0.0161  0.0324 -1.7721
 5192TIP3    H236992   4.066   4.248  13.193  1.2618 -0.4003  0.7926
 5193TIP3   OH236993   4.991   3.136  15.454  0.0542  0.5017  0.0118
 5193TIP3    H136994   4.968   3.210  15.398  1.3142  0.2841 -0.8005
 5193TIP3    H236995   4.989   3.060  15.396 -0.5378 -0.0150  0.6930
 5194TIP3   OH236996   3.637   5.139   6.408  0.0887  0.0067  0.1768
 5194TIP3    H136997   3.685   5.190   6.473  0.3451 -0.4284  0.3309
 5194TIP3    H236998   3.611   5.059   6.455 -0.7353  0.2107  0.0831
 5195TIP3   OH236999   4.392   6.477  17.123 -0.0522 -0.4336  0.1321
 5195TIP3    H137000   4.399   6.419  17.047  2.9745 -0.3504  0.3109
 5195TIP3    H237001   4.400   6.565  17.086 -0.2790 -0.3132  0.3714
 5196TIP3   OH237002   4.633   1.223   5.680  0.0075  0.2229 -0.1542
 5196TIP3    H137003   4.559   1.266   5.638  0.8513  0.2905 -1.6187
 5196TIP3    H237004   4.616   1.129   5.669  0.3968  0.2440 -0.9703
 5197TIP3   OH237005   1.599   3.421   0.472 -0.1844  0.0776  0.0700
 5197TIP3    H137006   1.689   3.390   0.470 -0.5372 -0.9481 -0.1731
 5197TIP3    H237007   1.582   3.443   0.563  0.5512  1.0144 -0.0087
 5198TIP3   OH237008   3.197   3.682   3.452 -0.1093  0.1056  0.1130
 5198TIP3    H137009   3.285   3.715   3.470  0.1798 -1.4301  1.7772
 5198TIP3    H237010   3.192   3.601   3.504 -1.6988 -1.0119 -1.7251
 5199TIP3   OH237011   4.150   3.239  16.755  0.1609 -0.6846  0.5598
 5199TIP3    H137012   4.132   3.222  16.847 -0.3568  0.6968  0.7235
 5199TIP3    H237013   4.063   3.237  16.713  0.4206 -1.5769  0.0498
 5200TIP3   OH237014   3.213   5.358   5.923 -0.0322  0.2483  0.5790
 5200TIP3    H137015   3.225   5.376   6.016  0.3964  1.9770  0.2085
 5200TIP3    H237016   3.217   5.444   5.881  0.2493 -0.5510 -1.0862
 5201TIP3   OH237017   4.876   0.731   1.173 -0.5541  0.7937 -0.1750
 5201TIP3    H137018   4.785   0.726   1.144 -1.3157  2.3543  1.8855
 5201TIP3    H237019   4.918   0.790   1.111 -0.3614 -1.5880 -2.4318
 5202TIP3   OH237020   2.284   1.816   1.452 -0.1229  0.6712  0.1047
 5202TIP3    H137021   2.245   1.748   1.396  1.0911 -1.0507  1.3237
 5202TIP3    H237022   2.257   1.898   1.410  0.1662 -0.5526 -2.6174
 5203TIP3   OH237023   4.348   5.523  15.805 -0.0681  0.6005  0.2559
 5203TIP3    H137024   4.311   5.449  15.854 -0.3657  0.1573 -0.6335
 5203TIP3    H237025   4.419   5.484  15.754 -0.0062  0.9903  0.0488
 5204TIP3   OH237026   4.123   3.955   5.071  0.0213 -0.4238 -0.0029
 5204TIP3    H137027   4.089   3.876   5.112  0.6297  0.4536  2.2641
 5204TIP3    H237028   4.209   3.931   5.038 -0.6112 -1.2333 -1.0626
 5205TIP3   OH237029   2.840   0.046   5.046  0.2718 -0.2139  0.0384
 5205TIP3    H137030   2.810   0.129   5.083 -0.2899 -1.1184  1.6881
 5205TIP3    H237031   2.770   0.018   4.988  0.4409  0.4453 -0.4855
 5206TIP3   OH237032   1.547   5.760  13.094  0.2528  0.1798 -0.1905
 5206TIP3    H137033   1.576   5.673  13.064  0.2507 -0.1556  0.7553
 5206TIP3    H237034   1.617   5.819  13.068  0.0585 -0.0363 -1.2292
 5207TIP3   OH237035   4.288   4.981   2.456 -0.2508 -0.7247  0.2226
 5207TIP3    H137036   4.372   4.976   2.410 -0.9237 -0.5106 -1.0496
 5207TIP3    H237037   4.222   4.965   2.388 -1.1628 -3.1319  1.6052
 5208TIP3   OH237038   0.632   1.493  16.313  0.0328  0.8978  0.2891
 5208TIP3    H137039   0.539   1.476  16.296  0.7445 -1.1318 -1.8602
 5208TIP3    H237040   0.678   1.448  16.242  2.6925  1.4640  1.5852
 5209TIP3   OH237041   4.844   6.383   2.374 -0.4942 -0.0851  0.2585
 5209TIP3    H137042   4.761   6.369   2.418 -0.4164  1.0530  0.7952
 5209TIP3    H237043   4.822   6.386   2.281 -0.8579 -1.0984  0.3101
 5210TIP3   OH237044   5.839   0.494  14.896 -0.3457 -0.1038 -0.3836
 5210TIP3    H137045   5.750   0.491  14.930 -1.2205  1.1340 -2.4223
 5210TIP3    H237046   5.888   0.546  14.959 -1.1716 -0.4328  0.5374
 5211TIP3   OH237047   2.899   2.842   1.891 -0.1733  0.8293 -0.7616
 5211TIP3    H137048   2.965   2.909   1.906  1.4294 -0.3226 -2.5116
 5211TIP3    H237049   2.859   2.866   1.807 -1.5746  1.1815 -0.0089
 5212TIP3   OH237050   4.978   1.240  16.079 -0.1938 -0.6509 -0.4049
 5212TIP3    H137051   5.024   1.183  16.017  0.5229  1.1260 -1.5514
 5212TIP3    H237052   5.046   1.272  16.137 -0.8441 -2.1861  1.2407
 5213TIP3   OH237053   4.716   0.007  14.276  0.1183 -0.2343 -0.0575
 5213TIP3    H137054   4.643   0.043  14.326 -1.1337 -1.9088 -0.6303
 5213TIP3    H237055   4.675  -0.036  14.201  1.5338 -2.8183  0.5951
 5214TIP3   OH237056   6.767   4.663   3.081 -0.5574  0.3928 -0.4383
 5214TIP3    H137057   6.781   4.677   2.987 -0.3981 -0.1948 -0.5036
 5214TIP3    H237058   6.692   4.603   3.085 -0.1496 -0.1057 -0.2079
 5215TIP3   OH237059   5.492   3.876   3.874  0.1678  0.2978  0.3440
 5215TIP3    H137060   5.460   3.961   3.846 -0.0042  0.2735  0.4650
 5215TIP3    H237061   5.424   3.843   3.933 -1.7414 -1.6999 -2.8489
 5216TIP3   OH237062   0.761   2.057   5.475 -0.7135  0.2458 -0.1947
 5216TIP3    H137063   0.804   2.100   5.550  0.9608 -1.1891 -0.3006
 5216TIP3    H237064   0.731   1.973   5.510  0.8097 -0.7904 -1.3086
 5217TIP3   OH237065   4.733   2.576   0.039  0.3761  0.4490 -0.0524
 5217TIP3    H137066   4.796   2.597  -0.030 -0.2032 -1.8811 -1.3442
 5217TIP3    H237067   4.705   2.486   0.019 -0.7000  0.1711  2.5284
 5218TIP3   OH237068   1.079   0.047  14.728 -0.1372 -0.6728  0.2302
 5218TIP3    H137069   1.072   0.115  14.662 -2.4664  0.9977  2.1101
 5218TIP3    H237070   0.988   0.022  14.746  0.4504 -1.2456  2.6094
 5219TIP3   OH237071   1.524   1.214   3.073  0.4778  0.0939 -0.3344
 5219TIP3    H137072   1.535   1.119   3.061 -0.3305 -0.1147  0.4448
 5219TIP3    H237073   1.584   1.236   3.144 -0.1685 -0.0543  0.2664
 5220TIP3   OH237074   1.019   1.503   5.487 -0.7409  0.1335  0.1120
 5220TIP3    H137075   1.099   1.453   5.502 -0.4781  0.8580  1.1888
 5220TIP3    H237076   1.032   1.585   5.535 -1.6828  0.7113 -0.5967
 5221TIP3   OH237077   3.908   1.180   0.584 -0.1970 -0.1578 -0.1612
 5221TIP3    H137078   3.874   1.201   0.497 -2.1254 -0.9555  0.3645
 5221TIP3    H237079   3.885   1.256   0.638  1.5082  0.5879 -0.4651
 5222TIP3   OH237080   0.169   6.570   6.382 -0.2942 -0.1660 -0.2260
 5222TIP3    H137081   0.244   6.555   6.325  1.8943 -0.3342  2.5762
 5222TIP3    H237082   0.126   6.484   6.386  0.3633 -0.5181 -0.4900
 5223TIP3   OH237083   3.851   6.509  16.643  0.5564  0.1072  0.1225
 5223TIP3    H137084   3.923   6.551  16.595 -0.0571  0.5694 -0.4042
 5223TIP3    H237085   3.853   6.418  16.615  0.3280  0.3309 -0.6398
 5224TIP3   OH237086   6.651   1.948  12.242 -0.4031  0.8111  0.5298
 5224TIP3    H137087   6.633   1.867  12.290 -2.6393  1.2946  0.5648
 5224TIP3    H237088   6.721   1.990  12.293  0.6432 -0.9810  0.6156
 5225TIP3   OH237089   2.424   1.902  14.475  0.1587  0.4374 -0.2287
 5225TIP3    H137090   2.433   1.986  14.431 -0.3257  0.8167  0.3821
 5225TIP3    H237091   2.372   1.849  14.414 -1.4333  1.3116  0.3158
 5226TIP3   OH237092   3.637   5.010  13.585  0.3323  0.0930 -0.0800
 5226TIP3    H137093   3.598   4.943  13.529  0.8331  1.7255 -2.4471
 5226TIP3    H237094   3.562   5.058  13.621  0.0103 -1.0455  0.8089
 5227TIP3   OH237095   1.888   2.854   2.198 -0.0236  0.1073 -0.2381
 5227TIP3    H137096   1.873   2.771   2.243  1.3251 -0.7116 -1.2850
 5227TIP3    H237097   1.915   2.915   2.267  0.7585 -0.7928  0.2444
 5228TIP3   OH237098   5.192   2.264  15.066  0.1573 -0.8994  0.3531
 5228TIP3    H137099   5.280   2.261  15.027 -0.4082  1.2871 -1.1213
 5228TIP3    H237100   5.205   2.309  15.150  0.2671  0.5041 -0.4025
 5229TIP3   OH237101   3.817   6.471   2.541  0.1551  0.7302  0.5595
 5229TIP3    H137102   3.816   6.382   2.506 -1.1354  0.2537  1.7642
 5229TIP3    H237103   3.755   6.519   2.487 -1.3756  0.1451  1.7515
 5230TIP3   OH237104   3.757   1.329   2.281  0.3528  0.0406 -0.0156
 5230TIP3    H137105   3.847   1.296   2.287  0.1236 -0.4423  0.7974
 5230TIP3    H237106   3.760   1.414   2.324  0.6451  0.4882 -0.9103
 5231TIP3   OH237107   0.501   1.481   3.745  0.1103 -0.1621  0.0392
 5231TIP3    H137108   0.573   1.533   3.710  0.4643 -0.0953  0.8485
 5231TIP3    H237109   0.496   1.404   3.688  2.3819 -1.3657  1.3810
 5232TIP3   OH237110   3.434   2.431   2.385  0.3275 -0.1381  0.1990
 5232TIP3    H137111   3.387   2.465   2.461  1.6954  3.6899 -0.5453
 5232TIP3    H237112   3.525   2.459   2.399  0.5078  1.1020 -3.0125
 5233TIP3   OH237113   2.609   2.125  12.078  0.1626  0.4598 -0.4565
 5233TIP3    H137114   2.558   2.187  12.027  0.6995  3.2094  2.2327
 5233TIP3    H237115   2.698   2.160  12.077  0.5184 -0.3341  0.9547
 5234TIP3   OH237116   1.005   4.812  10.219 -0.7778 -0.0138 -0.2115
 5234TIP3    H137117   1.086   4.802  10.170 -1.0877 -0.3713 -0.6528
 5234TIP3    H237118   0.976   4.901  10.199 -2.0825 -0.8925 -2.5102
 5235TIP3   OH237119   4.469   4.374  15.554  0.0716  0.2275 -0.1807
 5235TIP3    H137120   4.442   4.286  15.528  0.4796 -0.5000  1.7552
 5235TIP3    H237121   4.389   4.427  15.552 -0.8934 -1.0619  2.0927
 5236TIP3   OH237122   0.857   5.136  11.875 -0.5778  0.6231 -0.1045
 5236TIP3    H137123   0.939   5.162  11.833 -1.4105 -1.4533 -3.1659
 5236TIP3    H237124   0.879   5.059  11.926 -0.7397 -0.3559 -1.4964
 5237TIP3   OH237125   5.343   4.479   3.958  0.2080 -0.4454  0.5782
 5237TIP3    H137126   5.321   4.460   3.867 -0.2367 -2.1315  1.0275
 5237TIP3    H237127   5.259   4.476   4.004  0.6605 -1.3693  1.3497
 5238TIP3   OH237128   1.316   0.342  14.530  0.3802 -0.1823  0.4694
 5238TIP3    H137129   1.349   0.416  14.580 -0.1815  0.5422 -0.2185
 5238TIP3    H237130   1.329   0.367  14.439 -0.2171 -0.7356  0.2271
 5239TIP3   OH237131   4.812   4.743   5.108  0.0486 -0.2125  0.1664
 5239TIP3    H137132   4.749   4.721   5.177 -1.1906  1.4414 -0.3904
 5239TIP3    H237133   4.894   4.760   5.154 -0.4307 -0.4087  1.1017
 5240TIP3   OH237134   1.171   0.153  16.119 -0.0964  0.3214  0.3668
 5240TIP3    H137135   1.096   0.096  16.134  0.2108  0.3791  2.1456
 5240TIP3    H237136   1.248   0.096  16.128  0.1854  0.8751  1.4746
 5241TIP3   OH237137   0.191   2.953  13.350  0.1402  0.3883  0.9533
 5241TIP3    H137138   0.122   2.910  13.400  0.4873  1.0850  2.0562
 5241TIP3    H237139   0.208   3.034  13.397  1.2438  0.5428  0.3196
 5242TIP3   OH237140   5.626   2.279  13.452  0.1316 -0.0556 -0.3384
 5242TIP3    H137141   5.575   2.266  13.532 -1.3707  0.1717 -1.2205
 5242TIP3    H237142   5.649   2.191  13.423  1.3485 -0.1023  0.7543
 5243TIP3   OH237143   6.242   3.125  15.183 -0.2850  0.1424 -0.2425
 5243TIP3    H137144   6.177   3.190  15.155  0.1923  1.1741  1.0189
 5243TIP3    H237145   6.191   3.051  15.214 -0.8445  0.6205 -0.0285
 5244TIP3   OH237146   2.919   3.140  13.928  0.3425 -0.0843 -0.1477
 5244TIP3    H137147   2.852   3.202  13.899  0.7426  0.2496 -0.3656
 5244TIP3    H237148   3.002   3.186  13.914  0.5917 -0.2733  0.6522
 5245TIP3   OH237149   6.629   0.457   5.111 -0.0628 -0.2487 -0.3159
 5245TIP3    H137150   6.640   0.403   5.032  0.1178 -0.4687 -0.1382
 5245TIP3    H237151   6.621   0.546   5.077  2.9574  0.0200 -0.4167
 5246TIP3   OH237152   2.207   6.540   3.079  0.1566  0.5758 -0.0261
 5246TIP3    H137153   2.137   6.488   3.039  1.6738 -1.1947 -0.4110
 5246TIP3    H237154   2.163   6.587   3.150 -1.2063 -1.4370  0.5046
 5247TIP3   OH237155   3.760   4.519   5.376  0.5677 -0.0352  0.1018
 5247TIP3    H137156   3.693   4.583   5.351  0.2879 -0.6265 -0.6961
 5247TIP3    H237157   3.841   4.569   5.381  0.5158  0.2076 -1.4209
 5248TIP3   OH237158   0.958   0.839  14.114 -0.2167 -0.2398 -0.1730
 5248TIP3    H137159   0.963   0.791  14.197  0.2976  0.4229  0.1793
 5248TIP3    H237160   0.885   0.798  14.067 -0.0445 -1.0923  0.3030
 5249TIP3   OH237161   2.310   1.045   4.266  0.4310  0.2366  0.3160
 5249TIP3    H137162   2.355   0.990   4.330  0.3211 -1.0598 -0.7109
 5249TIP3    H237163   2.381   1.093   4.222  0.6444 -0.1631  0.2204
 5250TIP3   OH237164   3.939   5.521  13.097 -0.5026 -0.0046  0.4251
 5250TIP3    H137165   4.034   5.529  13.085 -0.5563  0.0588  0.0330
 5250TIP3    H237166   3.906   5.610  13.081 -0.7070 -0.1889 -0.1962
 5251TIP3   OH237167   2.372   3.003  16.628  0.3255 -0.0325 -0.3839
 5251TIP3    H137168   2.463   2.977  16.614 -0.0053 -0.8969 -0.9416
 5251TIP3    H237169   2.367   3.092  16.593  0.7478 -0.2948 -1.1192
 5252TIP3   OH237170   1.814   6.738   3.937  0.8734  0.0066  0.6208
 5252TIP3    H137171   1.775   6.781   3.860  2.4231 -2.6952 -1.7921
 5252TIP3    H237172   1.833   6.810   3.997 -2.9303  1.9315 -0.3069
 5253TIP3   OH237173   6.338   4.592   4.790 -0.0725  0.0694 -0.2154
 5253TIP3    H137174   6.380   4.608   4.705 -0.4983 -0.2249 -0.4828
 5253TIP3    H237175   6.389   4.645   4.852  0.3204  0.1846 -0.6311
 5254TIP3   OH237176   4.620   2.530   6.002  0.5489 -0.6607 -0.2085
 5254TIP3    H137177   4.634   2.623   6.022  0.7960 -0.7947  0.2464
 5254TIP3    H237178   4.692   2.485   6.046  1.0248 -0.9812 -1.3002
 5255TIP3   OH237179   5.333   5.511  16.542  0.8956 -0.1163 -0.2306
 5255TIP3    H137180   5.295   5.599  16.543  0.6726 -0.2094 -0.7662
 5255TIP3    H237181   5.288   5.466  16.471  1.0011 -0.6682  0.0506
 5256TIP3   OH237182   3.165   3.386   0.811  0.1864  0.1575  0.0727
 5256TIP3    H137183   3.074   3.396   0.784  0.1559  0.5297  0.3065
 5256TIP3    H237184   3.201   3.475   0.810  0.2504  0.1507  1.0086
 5257TIP3   OH237185   3.988   4.792   4.377 -0.5031  0.1584 -0.5041
 5257TIP3    H137186   4.079   4.762   4.376 -0.4176  0.4020 -0.1490
 5257TIP3    H237187   3.942   4.731   4.320 -0.4567 -1.0177  0.6945
 5258TIP3   OH237188   1.583   1.030   1.853 -0.2823  0.5904  0.0462
 5258TIP3    H137189   1.556   1.122   1.848  0.3158  0.8930  2.0094
 5258TIP3    H237190   1.534   0.994   1.927  1.5258  0.0526  1.0054
 5259TIP3   OH237191   2.766   3.467  16.722 -0.1130  0.4148  0.2283
 5259TIP3    H137192   2.749   3.404  16.793  0.5516 -0.2727 -0.2092
 5259TIP3    H237193   2.715   3.433  16.649  1.9612 -0.8705 -0.6699
 5260TIP3   OH237194   5.916   4.775  12.617 -0.1888 -0.1227 -0.0099
 5260TIP3    H137195   5.917   4.870  12.602 -0.4862 -0.5607 -3.0944
 5260TIP3    H237196   6.004   4.756  12.649  0.4210  0.9772 -0.9825
 5261TIP3   OH237197   6.638   6.161  14.459  0.4836 -0.4171 -0.5131
 5261TIP3    H137198   6.616   6.236  14.405 -0.1047 -0.7106 -0.6927
 5261TIP3    H237199   6.695   6.196  14.528  1.2404 -0.0512 -1.3242
 5262TIP3   OH237200   4.443   3.349   3.629  0.1671 -0.3777  0.9166
 5262TIP3    H137201   4.471   3.430   3.673  1.9214 -0.8871  0.7960
 5262TIP3    H237202   4.351   3.339   3.653  0.6376  0.2559  3.1364
 5263TIP3   OH237203   2.650   4.409   5.948 -0.0571 -0.0721  0.6224
 5263TIP3    H137204   2.691   4.496   5.955  0.2027  0.2162 -3.3979
 5263TIP3    H237205   2.724   4.349   5.936 -0.4172 -0.4073  0.0629
 5264TIP3   OH237206   3.525   3.081   0.917 -0.4450 -0.3219 -0.2334
 5264TIP3    H137207   3.500   3.113   0.830  0.6577  1.3049  0.0256
 5264TIP3    H237208   3.444   3.046   0.954 -1.5159  1.3513 -0.9098
 5265TIP3   OH237209   0.844   2.973  11.305 -0.0236  0.1320  0.0438
 5265TIP3    H137210   0.870   3.055  11.348 -1.0970  1.7804 -2.3716
 5265TIP3    H237211   0.924   2.941  11.265 -0.2892  1.8514 -1.9489
 5266TIP3   OH237212   4.379   1.441  15.677  0.5838 -0.0444  0.1371
 5266TIP3    H137213   4.306   1.441  15.616 -0.3013  1.2664  1.1869
 5266TIP3    H237214   4.453   1.476  15.627 -0.1121  0.9361 -0.2075
 5267TIP3   OH237215   3.769   3.904  12.067 -0.0883 -0.6326 -0.2790
 5267TIP3    H137216   3.814   3.831  12.111 -1.5134 -0.4029  1.6599
 5267TIP3    H237217   3.766   3.878  11.975  0.7888 -2.3072  0.1279
 5268TIP3   OH237218   1.383   6.020  12.168  0.3348 -0.3618  0.0715
 5268TIP3    H137219   1.310   6.080  12.154  0.3574 -0.2477  0.4457
 5268TIP3    H237220   1.460   6.070  12.141  0.2471 -0.5765 -0.5841
 5269TIP3   OH237221   5.762   5.658  15.039  0.1025  0.9072  0.0582
 5269TIP3    H137222   5.824   5.694  15.102  0.1073  0.2475  0.4324
 5269TIP3    H237223   5.694   5.725  15.030 -0.2505  0.7285  1.2723
 5270TIP3   OH237224   3.775   1.351  10.959  0.1485  0.0750  0.9014
 5270TIP3    H137225   3.755   1.355  10.866  0.3802  0.3567  0.8653
 5270TIP3    H237226   3.868   1.375  10.965  0.4011 -0.8981  1.1027
 5271TIP3   OH237227   6.077   0.949   4.157 -0.2911 -0.2515  0.2541
 5271TIP3    H137228   6.152   0.926   4.102  0.5520 -0.2602  1.3921
 5271TIP3    H237229   6.085   0.893   4.234 -0.9581  0.3884  0.8001
 5272TIP3   OH237230   4.151   4.047  16.945 -0.1271 -0.3645  0.4472
 5272TIP3    H137231   4.232   4.019  16.902 -0.4794  2.9300 -2.6766
 5272TIP3    H237232   4.085   4.044  16.876 -2.0153 -0.1432  2.2003
 5273TIP3   OH237233   5.385   1.758   6.410 -0.0730  0.1403 -0.1573
 5273TIP3    H137234   5.477   1.756   6.386  0.1394  1.2328  0.5248
 5273TIP3    H237235   5.341   1.790   6.331  0.2543  0.6544 -0.1351
 5274TIP3   OH237236   1.568   6.509  12.726 -0.6318  0.1540 -0.5120
 5274TIP3    H137237   1.625   6.436  12.702  0.1005 -0.2604  2.2702
 5274TIP3    H237238   1.491   6.467  12.765 -0.8240  0.8160 -0.1709
 5275TIP3   OH237239   6.622   0.024   4.057 -0.4528 -0.0706  0.0961
 5275TIP3    H137240   6.658  -0.065   4.057 -0.1487  0.0446  1.1404
 5275TIP3    H237241   6.533   0.014   4.090 -0.7550 -0.1084 -0.7142
 5276TIP3   OH237242   2.001   1.086   5.432  0.6303 -0.3670 -0.5515
 5276TIP3    H137243   2.043   1.000   5.437 -1.0883 -1.2128 -0.2373
 5276TIP3    H237244   1.994   1.104   5.339  3.5905  0.7720 -0.6136
 5277TIP3   OH237245   0.456   4.347   2.386  0.1977 -0.0010 -0.0073
 5277TIP3    H137246   0.364   4.360   2.412 -0.3487 -0.2959 -1.7188
 5277TIP3    H237247   0.452   4.331   2.291  1.7052 -2.9282  0.3489
 5278TIP3   OH237248   3.688   4.081   2.327  0.4456 -0.0690  0.6177
 5278TIP3    H137249   3.640   4.025   2.267  3.0949 -1.2810 -0.4387
 5278TIP3    H237250   3.673   4.043   2.414  0.1200 -0.8878  0.2009
 5279TIP3   OH237251   6.215   2.904  12.716  0.0017 -0.5421 -0.2275
 5279TIP3    H137252   6.299   2.910  12.761 -0.5538  1.7757  0.5860
 5279TIP3    H237253   6.236   2.919  12.624  0.5931 -0.9928 -0.1676
 5280TIP3   OH237254   3.321   0.547  14.305 -0.0389  0.1583  0.4087
 5280TIP3    H137255   3.307   0.612  14.373 -1.3819 -0.8539  1.1454
 5280TIP3    H237256   3.383   0.485  14.344 -0.2766 -0.0518  0.4524
 5281TIP3   OH237257   2.445   2.297  11.956 -0.2806  0.2078 -0.1314
 5281TIP3    H137258   2.368   2.339  11.996 -0.1079 -0.4870  0.9337
 5281TIP3    H237259   2.413   2.265  11.871 -1.1196  0.1087  0.2154
 5282TIP3   OH237260   6.140   6.550   0.597 -0.3053 -0.1434  0.0285
 5282TIP3    H137261   6.161   6.639   0.568  1.2069 -0.3427  0.4722
 5282TIP3    H237262   6.088   6.563   0.676 -0.0139  0.3533  0.1440
 5283TIP3   OH237263   6.436   0.784   2.535  0.2892  0.1706  0.3122
 5283TIP3    H137264   6.393   0.792   2.450  0.0370  0.2685  0.4470
 5283TIP3    H237265   6.441   0.874   2.567 -1.8896 -0.1148  1.5159
 5284TIP3   OH237266   3.387   5.858  16.570 -0.6875  0.0145 -0.1232
 5284TIP3    H137267   3.419   5.948  16.563 -0.4336  0.0081  0.9427
 5284TIP3    H237268   3.320   5.852  16.502  0.7312  0.3759 -1.6038
 5285TIP3   OH237269   2.392   1.526   5.328  0.1662  0.9902  0.4571
 5285TIP3    H137270   2.432   1.516   5.242  1.3838  0.4382  1.0767
 5285TIP3    H237271   2.311   1.475   5.322  2.4266 -2.9090  1.0204
 5286TIP3   OH237272   2.336   6.134   0.432 -0.4414  0.6030  0.1104
 5286TIP3    H137273   2.388   6.059   0.460  1.6210  1.9869  0.1236
 5286TIP3    H237274   2.264   6.096   0.381  1.6230 -1.2979 -1.5096
 5287TIP3   OH237275   6.530   4.169   1.297  0.4264 -0.2150  0.2514
 5287TIP3    H137276   6.613   4.123   1.305 -0.5898 -1.8497  1.5749
 5287TIP3    H237277   6.464   4.104   1.317 -1.2275  0.9655 -1.1596
 5288TIP3   OH237278   5.409   6.660  13.092  0.3129 -0.4611 -0.1656
 5288TIP3    H137279   5.498   6.629  13.080  1.0381  1.4470  0.2167
 5288TIP3    H237280   5.414   6.755  13.084 -2.0261 -0.4349 -2.2013
 5289TIP3   OH237281   1.609   1.084   3.635 -0.0684  0.1951  0.2815
 5289TIP3    H137282   1.582   1.169   3.671  1.0566 -0.4140  2.7208
 5289TIP3    H237283   1.699   1.074   3.667  0.5368 -0.9818 -1.7478
 5290TIP3   OH237284   0.426   1.722   3.297  0.2507  0.4102 -0.0675
 5290TIP3    H137285   0.340   1.760   3.315 -0.0133 -0.0284 -0.3859
 5290TIP3    H237286   0.476   1.794   3.258  0.1090  0.7358  0.3421
 5291TIP3   OH237287   3.802   6.728  11.512  0.0348  0.2383  0.4551
 5291TIP3    H137288   3.738   6.685  11.454  0.8462 -0.8545  0.3692
 5291TIP3    H237289   3.779   6.697  11.600 -1.3664  2.1053  0.7860
 5292TIP3   OH237290   1.726   3.690  12.992 -0.0986  0.3972  0.2430
 5292TIP3    H137291   1.813   3.719  12.966 -0.6890  0.4177 -1.8372
 5292TIP3    H237292   1.737   3.598  13.015  0.4401  0.3538 -0.1752
 5293TIP3   OH237293   0.674   1.426  12.029 -0.3283  0.2373  0.2106
 5293TIP3    H137294   0.742   1.491  12.042 -0.4627  0.4961 -0.3958
 5293TIP3    H237295   0.720   1.348  11.999 -0.3367  0.5246 -0.5566
 5294TIP3   OH237296   2.985   1.858  16.355 -0.4635  0.1020 -0.8339
 5294TIP3    H137297   2.900   1.896  16.374  0.3355  1.4394  0.1578
 5294TIP3    H237298   3.010   1.813  16.436  0.4431  1.0331 -0.5782
 5295TIP3   OH237299   0.037   3.450  11.396 -0.5953  0.0029 -0.2998
 5295TIP3    H137300   0.052   3.482  11.307  0.7560  1.6980  0.5127
 5295TIP3    H237301  -0.057   3.430  11.398 -0.8897  1.1233 -1.7471
 5296TIP3   OH237302   3.484   2.169   2.795  0.4110  0.1597 -0.4987
 5296TIP3    H137303   3.515   2.243   2.743  0.2939 -0.3424 -1.3003
 5296TIP3    H237304   3.390   2.163   2.776  0.3887 -0.0999 -0.3248
 5297TIP3   OH237305   3.237   5.614   1.818 -0.0123 -0.3620  0.0705
 5297TIP3    H137306   3.296   5.688   1.831 -2.0662  1.2702  0.4318
 5297TIP3    H237307   3.252   5.557   1.893  0.6774  0.3261  0.4536
 5298TIP3   OH237308   1.925   4.563  12.656  0.4369 -0.2626 -0.1924
 5298TIP3    H137309   1.882   4.647  12.642 -1.6463 -1.2987 -0.1927
 5298TIP3    H237310   1.995   4.582  12.719 -1.2980  1.1027  1.3824
 5299TIP3   OH237311   4.868   2.953   0.828 -0.3762  0.0329 -0.2826
 5299TIP3    H137312   4.934   2.992   0.770  0.1089 -0.8630 -0.3487
 5299TIP3    H237313   4.900   2.973   0.916 -0.4079  0.2430 -0.3180
 5300TIP3   OH237314   5.263   4.636   3.339  0.0596  0.0499  0.5515
 5300TIP3    H137315   5.230   4.548   3.319 -0.4087  0.3220  0.1315
 5300TIP3    H237316   5.227   4.692   3.271 -1.7199  1.0128  2.2170
 5301TIP3   OH237317   4.567   0.570  16.670 -0.3734  0.3157  0.2076
 5301TIP3    H137318   4.583   0.639  16.735 -0.5696 -0.5588  1.1905
 5301TIP3    H237319   4.625   0.499  16.694 -2.6793 -1.2534  1.3395
 5302TIP3   OH237320   2.234   2.167   5.283  0.3156  0.1627  0.6497
 5302TIP3    H137321   2.179   2.235   5.244 -1.0579 -0.8200  0.8742
 5302TIP3    H237322   2.276   2.211   5.358 -0.5404  0.7682  0.7784
 5303TIP3   OH237323   0.420   3.788  14.293  0.2713 -0.3905  0.0052
 5303TIP3    H137324   0.369   3.786  14.212 -0.1011 -1.1226  0.2533
 5303TIP3    H237325   0.510   3.805  14.264 -0.0132  0.3063 -0.4811
 5304TIP3   OH237326   0.617   3.343  16.840 -0.4812 -0.3067 -0.0542
 5304TIP3    H137327   0.687   3.334  16.775 -0.1769  1.4398  0.0248
 5304TIP3    H237328   0.539   3.310  16.795 -0.5826  2.2950 -1.8754
 5305TIP3   OH237329   0.589   3.151  10.363 -0.2809 -0.7776  0.9432
 5305TIP3    H137330   0.554   3.117  10.280  0.0106  0.3461  0.3551
 5305TIP3    H237331   0.678   3.115  10.368  0.5709  1.0698 -0.4093
 5306TIP3   OH237332   1.410   4.207   0.938  0.6313  0.3650  0.3542
 5306TIP3    H137333   1.482   4.157   0.976  0.8811 -0.0812 -0.6859
 5306TIP3    H237334   1.422   4.296   0.971  1.1508  0.1002  0.8814
 5307TIP3   OH237335   0.593   4.560   1.728  0.0837 -0.7945 -0.1615
 5307TIP3    H137336   0.681   4.593   1.711  0.4971 -1.8678 -0.1599
 5307TIP3    H237337   0.542   4.583   1.651 -0.1827  1.6940  0.7227
 5308TIP3   OH237338   1.307   0.738   1.179 -0.5837 -0.0848 -0.1179
 5308TIP3    H137339   1.288   0.681   1.252 -0.4464 -2.4012 -1.8388
 5308TIP3    H237340   1.403   0.739   1.172 -0.5985  0.0147 -0.3360
 5309TIP3   OH237341   1.952   5.428  14.766  0.0980  0.6443  0.4517
 5309TIP3    H137342   2.012   5.486  14.813 -0.2738 -0.0024  1.7538
 5309TIP3    H237343   1.876   5.421  14.823  1.1712 -3.1404  1.5499
 5310TIP3   OH237344   0.842   5.156   2.088 -0.7319  0.0044 -0.0352
 5310TIP3    H137345   0.823   5.233   2.035 -0.1687  0.6172  0.6403
 5310TIP3    H237346   0.819   5.082   2.032 -0.7195  0.6525 -0.9061
 5311TIP3   OH237347   1.845   2.596  14.635  0.4484 -0.1740  0.2045
 5311TIP3    H137348   1.788   2.529  14.596  1.2893 -0.5507 -0.4035
 5311TIP3    H237349   1.867   2.653  14.561  0.0033  0.5865  0.6560
 5312TIP3   OH237350   6.137   5.177   2.709  0.1296  0.3021  0.1642
 5312TIP3    H137351   6.077   5.247   2.683  0.3112  0.3612 -0.0877
 5312TIP3    H237352   6.172   5.143   2.627  0.5857  0.3937  0.3194
 5313TIP3   OH237353   6.264   2.874   5.130 -0.0875 -0.0412  0.6109
 5313TIP3    H137354   6.239   2.883   5.038  3.6716 -0.3965 -0.5584
 5313TIP3    H237355   6.217   2.796   5.160 -1.1006 -0.1248 -1.1403
 5314TIP3   OH237356   6.181   2.443  13.427 -0.3119  0.7352  0.1352
 5314TIP3    H137357   6.131   2.463  13.506  1.4912 -0.4275  1.6058
 5314TIP3    H237358   6.157   2.353  13.406  1.4203  0.0245  1.0898
 5315TIP3   OH237359   4.003   0.795  10.914  0.4548 -0.4885  0.7573
 5315TIP3    H137360   4.075   0.733  10.903  0.2794 -0.5534 -0.1011
 5315TIP3    H237361   4.041   0.869  10.961  0.9184 -0.8077  0.8811
 5316TIP3   OH237362   3.992   3.467  11.007  0.0277  0.1963 -0.4574
 5316TIP3    H137363   4.046   3.394  10.978 -0.0273  0.5376 -1.4213
 5316TIP3    H237364   3.979   3.451  11.101 -0.3334 -1.2540 -0.7363
 5317TIP3   OH237365   1.977   3.542   5.982  0.9046 -0.5188  0.0379
 5317TIP3    H137366   1.924   3.553   6.061  0.8636 -0.3971 -0.0065
 5317TIP3    H237367   2.059   3.504   6.013  1.5160  1.0323  0.3466
 5318TIP3   OH237368   3.400   5.142   3.296 -0.1842  0.1679 -0.3131
 5318TIP3    H137369   3.368   5.145   3.205 -1.4093  0.7409  0.1249
 5318TIP3    H237370   3.408   5.234   3.321  1.5725  0.0295 -0.3157
 5319TIP3   OH237371   1.851   1.371  14.470  0.4337  0.4575 -0.1763
 5319TIP3    H137372   1.821   1.446  14.521 -0.6582  2.6583 -3.8506
 5319TIP3    H237373   1.772   1.338  14.427  1.3840 -0.9838 -0.8597
 5320TIP3   OH237374   6.158   5.440   2.432 -0.1728  0.0108  0.0932
 5320TIP3    H137375   6.102   5.367   2.458  1.6397 -0.6622  2.1841
 5320TIP3    H237376   6.246   5.403   2.427  0.5512  1.7188 -0.3169
 5321TIP3   OH237377   5.627   6.699   2.283 -0.1862 -0.1619 -0.3139
 5321TIP3    H137378   5.591   6.661   2.363  1.8083  2.3493  1.8560
 5321TIP3    H237379   5.565   6.767   2.258 -0.4347 -0.4442 -0.4601
 5322TIP3   OH237380   1.786   5.310   1.690  0.0514 -0.0332 -0.2729
 5322TIP3    H137381   1.774   5.230   1.640  0.1009  0.1320 -0.5464
 5322TIP3    H237382   1.736   5.377   1.642  0.4410  0.2171 -0.3356
 5323TIP3   OH237383   2.748   0.344   6.592 -0.4433  0.0864  0.0463
 5323TIP3    H137384   2.773   0.362   6.502 -1.8342 -1.0658 -0.5813
 5323TIP3    H237385   2.685   0.413   6.614 -0.8086 -0.1842 -0.1641
 5324TIP3   OH237386   2.161   6.483  14.988  0.4772  0.4158 -0.4512
 5324TIP3    H137387   2.124   6.452  14.905 -1.3786  0.7218  0.2328
 5324TIP3    H237388   2.255   6.484  14.974  0.2349 -0.5205 -2.2180
 5325TIP3   OH237389   2.837   5.491   5.406 -0.2355  1.0330  0.6565
 5325TIP3    H137390   2.809   5.582   5.405 -0.1739  1.0518  0.5953
 5325TIP3    H237391   2.859   5.473   5.498  0.2247  1.2284  0.5894
 5326TIP3   OH237392   1.287   5.915  13.557 -0.3393  0.8006 -0.1329
 5326TIP3    H137393   1.204   5.961  13.565 -0.5785  0.2758  0.5148
 5326TIP3    H237394   1.331   5.956  13.482 -0.7365  1.7641  0.1525
 5327TIP3   OH237395   0.544   0.554  15.002 -0.0117 -0.5350  0.3714
 5327TIP3    H137396   0.573   0.578  15.090 -0.1418 -1.5305  0.6894
 5327TIP3    H237397   0.519   0.637  14.962  2.3718  0.2404  0.3956
 5328TIP3   OH237398   5.205   3.157   0.438 -0.5841  0.1065 -0.1854
 5328TIP3    H137399   5.299   3.140   0.428 -0.3018  0.8776  0.9998
 5328TIP3    H237400   5.194   3.246   0.405 -0.8875  0.0548 -0.2242
 5329TIP3   OH237401   3.596   0.854   5.761 -0.3854  0.7656  0.2746
 5329TIP3    H137402   3.657   0.838   5.833  0.1298  1.5181  0.0110
 5329TIP3    H237403   3.510   0.831   5.797  0.1674 -1.4389  0.2813
 5330TIP3   OH237404   4.773   2.797   5.832 -0.2834 -0.5842  0.4107
 5330TIP3    H137405   4.680   2.774   5.827  0.5382 -3.8239 -0.9752
 5330TIP3    H237406   4.798   2.776   5.923 -0.6784 -0.6084  0.5145
 5331TIP3   OH237407   6.190   2.277   3.363 -0.2110  0.1628 -0.3104
 5331TIP3    H137408   6.220   2.290   3.273 -0.5440 -1.9820 -0.7741
 5331TIP3    H237409   6.107   2.324   3.369  1.2027  2.7248 -0.2348
 5332TIP3   OH237410   5.976   1.029  11.199  1.1964  0.2169  0.1439
 5332TIP3    H137411   5.910   1.020  11.130  1.1534  0.5905  0.1382
 5332TIP3    H237412   6.053   1.065  11.155  1.1484  0.5141  0.3034
 5333TIP3   OH237413   2.811   3.968   1.423 -0.1083  0.7542  0.5750
 5333TIP3    H137414   2.801   3.994   1.331  0.3703  1.4806  0.7273
 5333TIP3    H237415   2.895   4.005   1.449 -0.3995  0.8291  1.4090
 5334TIP3   OH237416   0.347   3.842   3.838  0.2998 -0.0044 -0.3552
 5334TIP3    H137417   0.289   3.843   3.762  1.8931 -2.6564 -1.6900
 5334TIP3    H237418   0.419   3.899   3.814  0.5149 -0.3792 -0.6076
 5335TIP3   OH237419   3.651   3.152  11.275  0.1481  0.0018 -0.5763
 5335TIP3    H137420   3.576   3.208  11.297  0.1317 -0.1255 -0.3047
 5335TIP3    H237421   3.704   3.205  11.216  0.9346  0.8975  0.9125
 5336TIP3   OH237422   4.807   2.502  15.300  0.1378  0.2412 -0.4193
 5336TIP3    H137423   4.813   2.409  15.279  0.7700  0.4578 -1.1952
 5336TIP3    H237424   4.717   2.513  15.334  0.7774 -1.0635  1.8275
 5337TIP3   OH237425   4.049   0.966   6.167 -0.0727 -0.0043  0.3528
 5337TIP3    H137426   3.978   0.914   6.206 -0.6908  1.2538  0.9437
 5337TIP3    H237427   4.074   0.917   6.089  1.3068 -2.6617  2.3941
 5338TIP3   OH237428   0.991   1.259   1.446 -0.3841  0.3356  0.7109
 5338TIP3    H137429   0.927   1.194   1.475  0.4436 -0.9434 -0.2680
 5338TIP3    H237430   0.946   1.309   1.378 -0.9080  0.5640  1.2214
 5339TIP3   OH237431   6.113   6.009  17.023 -0.0837  0.2775 -0.2610
 5339TIP3    H137432   6.044   6.076  17.029  0.0233  0.3070  0.6096
 5339TIP3    H237433   6.071   5.936  16.977 -0.8157  0.1505  0.5937
 5340TIP3   OH237434   3.453   1.424   1.652 -0.0690  0.2096  0.4341
 5340TIP3    H137435   3.413   1.504   1.687  0.9995  1.4947 -1.2093
 5340TIP3    H237436   3.421   1.355   1.709 -0.7454  1.8527  2.1077
 5341TIP3   OH237437   5.358   5.627  12.232  0.0889  0.2046 -0.3784
 5341TIP3    H137438   5.267   5.598  12.226  0.6217 -1.9003  1.2905
 5341TIP3    H237439   5.353   5.716  12.268 -1.2807  0.1148 -0.3213
 5342TIP3   OH237440   4.424   1.601  11.419 -0.1268 -0.1007  0.5214
 5342TIP3    H137441   4.467   1.522  11.385  0.3976  0.1156  0.6683
 5342TIP3    H237442   4.433   1.593  11.514 -1.3034 -0.5452  0.5973
 5343TIP3   OH237443   5.356   0.145   0.838 -0.0899 -0.4010  0.5643
 5343TIP3    H137444   5.302   0.145   0.916 -0.1844  0.8982  0.5220
 5343TIP3    H237445   5.300   0.109   0.769 -0.7200  0.4262  0.6396
 5344TIP3   OH237446   3.378   4.901   5.078  0.0243 -0.0469  0.3483
 5344TIP3    H137447   3.458   4.943   5.109 -0.2315  1.2099 -0.6714
 5344TIP3    H237448   3.324   4.893   5.156  0.3867  0.8230  0.7001
 5345TIP3   OH237449   2.618   0.279  14.868  0.4009 -0.3259  0.1860
 5345TIP3    H137450   2.625   0.371  14.845  1.9041 -0.3493  0.5246
 5345TIP3    H237451   2.581   0.238  14.789  3.2030 -0.0137 -1.3703
 5346TIP3   OH237452   4.247   3.310   5.810 -0.7798  0.2014  0.0312
 5346TIP3    H137453   4.277   3.230   5.766 -0.6630 -1.4723  2.9898
 5346TIP3    H237454   4.327   3.356   5.834 -0.7829  0.1588  0.1259
 5347TIP3   OH237455   5.415   5.471   4.035  0.0315  0.1796  0.1142
 5347TIP3    H137456   5.444   5.389   4.074 -0.5070  1.6418  3.8547
 5347TIP3    H237457   5.484   5.495   3.974  0.1357 -3.0604 -1.1082
 5348TIP3   OH237458   2.649   0.180  15.564 -0.5388  0.5837 -0.0619
 5348TIP3    H137459   2.602   0.119  15.621 -1.8439  1.7808  0.1880
 5348TIP3    H237460   2.667   0.255  15.621 -0.1904  1.0062 -0.7371
 5349TIP3   OH237461   3.793   6.023   4.958 -0.2007  0.1425 -0.2899
 5349TIP3    H137462   3.726   5.967   4.998 -0.1305  1.5044  1.8211
 5349TIP3    H237463   3.744   6.078   4.897 -0.7647  0.0126  0.0332
 5350TIP3   OH237464   2.221   6.210   4.049 -0.3904 -0.6163  0.4454
 5350TIP3    H137465   2.296   6.270   4.049  0.7992 -2.0662  0.0414
 5350TIP3    H237466   2.164   6.244   3.980  1.9661 -1.9504 -2.2478
 5351TIP3   OH237467   2.438   3.688  13.561 -0.2699  0.2160 -0.2578
 5351TIP3    H137468   2.506   3.694  13.495 -2.2979  2.1260 -2.2810
 5351TIP3    H237469   2.387   3.610  13.538 -0.3416  0.2780 -0.3097
 5352TIP3   OH237470   4.534   3.375  14.358 -0.1563 -0.3302  0.7364
 5352TIP3    H137471   4.553   3.363  14.451 -0.2521 -0.3527  0.7534
 5352TIP3    H237472   4.468   3.309  14.338 -0.8549  0.3059  0.8899
 5353TIP3   OH237473   2.754   6.476   1.080 -0.0424  0.3566  0.3443
 5353TIP3    H137474   2.753   6.421   1.158 -2.1606  0.5751  0.5121
 5353TIP3    H237475   2.685   6.541   1.096  1.6940  2.4354 -0.2941
 5354TIP3   OH237476   0.100   3.395   4.301 -0.2025  0.4474 -0.3900
 5354TIP3    H137477   0.053   3.338   4.361  0.0671  1.2569  0.6172
 5354TIP3    H237478   0.187   3.403   4.340  0.4555 -0.2316 -1.6985
 5355TIP3   OH237479   3.036   4.019   2.184 -0.1864 -0.0508  0.2800
 5355TIP3    H137480   3.125   4.035   2.152 -0.7850 -1.3112 -2.1205
 5355TIP3    H237481   2.980   4.075   2.130 -1.1364 -1.6412 -0.4201
 5356TIP3   OH237482   5.903   4.333   4.391 -0.1021  0.5639  0.1793
 5356TIP3    H137483   5.989   4.345   4.350 -0.1052 -0.3115 -0.1083
 5356TIP3    H237484   5.843   4.324   4.317 -0.4539  1.2394  0.3804
 5357TIP3   OH237485   2.313   4.592   5.414 -0.0363  0.4068  0.1225
 5357TIP3    H137486   2.233   4.554   5.378  0.5309  0.1364 -0.8457
 5357TIP3    H237487   2.306   4.577   5.509 -0.1837 -1.3972 -0.1602
 5358TIP3   OH237488   2.023   2.491  14.979 -0.0089  0.3605 -0.3079
 5358TIP3    H137489   2.020   2.429  15.052  0.7130  1.0925  0.3611
 5358TIP3    H237490   2.000   2.576  15.018  1.9701  1.0540 -0.5848
 5359TIP3   OH237491   0.485   4.930  16.699 -0.0873 -0.0359 -0.1034
 5359TIP3    H137492   0.518   5.020  16.706 -0.1665 -0.1237  1.5735
 5359TIP3    H237493   0.416   4.934  16.633  2.1304  0.4794 -2.5062
 5360TIP3   OH237494   3.148   5.836  16.410 -0.9618 -0.0158  0.6599
 5360TIP3    H137495   3.123   5.822  16.319 -0.6077 -0.3468  0.6118
 5360TIP3    H237496   3.071   5.812  16.461 -1.1014  0.0007  0.4571
 5361TIP3   OH237497   2.826   2.025   3.964 -0.2001  0.9577  0.0200
 5361TIP3    H137498   2.821   1.950   3.905  0.5559  0.4033  0.6436
 5361TIP3    H237499   2.822   1.987   4.052 -0.6337  1.7171  0.3384
 5362TIP3   OH237500   1.993   4.083   0.801 -0.0109 -0.6333 -0.0205
 5362TIP3    H137501   2.057   4.012   0.805 -0.6492 -1.2531 -0.7372
 5362TIP3    H237502   1.998   4.114   0.711  1.3934  1.2917  0.6880
 5363TIP3   OH237503   0.924   4.349  12.457  0.1563 -0.1699  0.0563
 5363TIP3    H137504   0.924   4.299  12.539 -0.6002  1.3010  0.9897
 5363TIP3    H237505   0.839   4.329  12.417  0.8645 -1.5345 -0.7926
 5364TIP3   OH237506   0.920   5.186  15.886 -0.1637  0.4054 -0.8549
 5364TIP3    H137507   0.880   5.234  15.959  0.1897  0.1859 -0.5153
 5364TIP3    H237508   0.927   5.251  15.815 -2.4079  0.1078 -1.3987
 5365TIP3   OH237509   6.210   4.831   4.629  0.3857  0.4405  0.4922
 5365TIP3    H137510   6.196   4.872   4.544 -0.8965 -0.2523  0.3473
 5365TIP3    H237511   6.202   4.737   4.612 -2.0657  0.3743  1.7135
 5366TIP3   OH237512   4.608   6.694   5.078  0.3856  0.3507  0.4344
 5366TIP3    H137513   4.513   6.698   5.091  0.4438  0.7484  0.7601
 5366TIP3    H237514   4.619   6.675   4.985 -0.0306 -1.5567  0.7416
 5367TIP3   OH237515   6.676   4.188  11.114 -0.5556 -0.0931  0.3675
 5367TIP3    H137516   6.743   4.234  11.064  1.0927  0.8205  3.2613
 5367TIP3    H237517   6.598   4.243  11.106 -0.3815 -0.0527 -1.2709
 5368TIP3   OH237518   4.476   3.371  15.305  0.1750 -0.4878  0.0226
 5368TIP3    H137519   4.386   3.350  15.279 -0.3044 -0.4209  1.5982
 5368TIP3    H237520   4.491   3.458  15.268  0.3295 -1.3438 -2.0079
 5369TIP3   OH237521   1.043   4.543  15.952 -0.0721  0.1421 -0.0652
 5369TIP3    H137522   1.087   4.620  15.988 -1.1267  0.3521  0.8109
 5369TIP3    H237523   1.102   4.471  15.972  0.2221  0.5198  0.4483
 5370TIP3   OH237524   5.086   0.748  12.192  0.1457 -0.1933 -0.6092
 5370TIP3    H137525   5.017   0.702  12.145  1.2123 -1.3428 -1.0688
 5370TIP3    H237526   5.064   0.738  12.285 -1.2153  0.9003 -0.8036
 5371TIP3   OH237527   3.679   2.646   1.198 -0.4267  0.4208 -0.4379
 5371TIP3    H137528   3.664   2.635   1.292 -1.0649 -2.1056 -0.8225
 5371TIP3    H237529   3.592   2.663   1.162 -0.2399  0.9615 -0.6404
 5372TIP3   OH237530   3.932   6.517   4.369 -0.2057  0.4760 -0.2144
 5372TIP3    H137531   3.892   6.437   4.404  0.9236  0.6647  1.5990
 5372TIP3    H237532   3.982   6.487   4.293 -0.2098 -0.4627  0.1389
 5373TIP3   OH237533   0.588   5.175  13.713 -0.2786 -0.0149 -0.2659
 5373TIP3    H137534   0.597   5.269  13.727 -0.6842 -0.2512  1.7508
 5373TIP3    H237535   0.666   5.150  13.663 -0.6463  1.5267 -1.6515
 5374TIP3   OH237536   1.421   3.961  12.776 -0.0068 -0.1707 -0.2434
 5374TIP3    H137537   1.457   3.875  12.755 -0.2150 -0.6328  1.1872
 5374TIP3    H237538   1.488   4.002  12.830 -0.2150  0.2725 -0.3239
 5375TIP3   OH237539   6.096   1.094  14.985 -0.2422  0.2262 -0.3320
 5375TIP3    H137540   6.008   1.073  14.956 -0.2284  1.5699 -1.4121
 5375TIP3    H237541   6.133   1.146  14.913  0.6802  1.4733  1.0202
 5376TIP3   OH237542   3.885   6.268  14.501 -0.1574 -0.2567 -0.2628
 5376TIP3    H137543   3.855   6.352  14.536  0.7159 -0.6425  1.5140
 5376TIP3    H237544   3.820   6.205  14.532  0.5726 -0.5916  0.6159
 5377TIP3   OH237545   2.861   5.584   5.122 -0.6525  0.2772 -0.5897
 5377TIP3    H137546   2.955   5.597   5.138 -0.7556  1.5226 -0.9998
 5377TIP3    H237547   2.828   5.546   5.204  0.5484 -1.9228 -1.0817
 5378TIP3   OH237548   2.939   2.255  11.052 -0.1714  0.2639 -0.0523
 5378TIP3    H137549   3.034   2.245  11.051 -0.0981  0.9925 -2.2747
 5378TIP3    H237550   2.906   2.174  11.012 -0.4783  0.2430  0.2331
 5379TIP3   OH237551   4.150   0.278  16.729 -0.2881  0.1595 -0.3729
 5379TIP3    H137552   4.172   0.370  16.711  1.2644  0.1379  1.2881
 5379TIP3    H237553   4.136   0.240  16.642 -0.6622  1.8907 -1.0919
 5380TIP3   OH237554   3.943   3.973   4.850 -0.0123  0.7298 -0.3732
 5380TIP3    H137555   3.983   3.980   4.937  2.1017  0.6293 -1.3115
 5380TIP3    H237556   3.973   4.052   4.804  1.0050 -0.4932 -1.8429
 5381TIP3   OH237557   6.062   3.973   0.393  0.3831 -0.3808  0.6082
 5381TIP3    H137558   6.074   3.974   0.298  0.5136 -2.7935  0.5632
 5381TIP3    H237559   6.144   4.008   0.428  0.7974 -0.5746 -0.1494
 5382TIP3   OH237560   0.677   3.789   5.469 -0.1515 -0.2869  0.3514
 5382TIP3    H137561   0.661   3.753   5.557 -0.3152 -3.1925 -0.8161
 5382TIP3    H237562   0.597   3.838   5.448 -0.9096 -1.1866  1.0711
 5383TIP3   OH237563   4.265   3.172   4.364 -0.0431 -0.2829  0.3166
 5383TIP3    H137564   4.223   3.086   4.363  1.6623 -1.1642  1.5371
 5383TIP3    H237565   4.213   3.223   4.426  0.9102 -1.5047  2.1694
 5384TIP3   OH237566   0.934   4.994   5.076  0.2076 -0.1318 -1.0179
 5384TIP3    H137567   0.889   5.076   5.055  0.6433 -0.2742 -2.6161
 5384TIP3    H237568   0.865   4.936   5.108 -0.0722  0.9180  0.2846
 5385TIP3   OH237569   2.628   4.434  13.578  0.1420 -0.0836 -0.0949
 5385TIP3    H137570   2.676   4.503  13.532  1.4058  0.3890  1.8880
 5385TIP3    H237571   2.539   4.438  13.541  0.6912  1.3590 -1.3082
 5386TIP3   OH237572   4.757   5.051  13.997  0.2031 -0.0989  0.2675
 5386TIP3    H137573   4.776   5.144  13.984  1.2120 -0.4355 -0.7862
 5386TIP3    H237574   4.666   5.049  14.027 -0.1109  1.1694 -0.5650
 5387TIP3   OH237575   1.359   0.244  13.943  0.4459  0.2206  0.0671
 5387TIP3    H137576   1.390   0.257  14.032  0.6372 -0.1553  0.0555
 5387TIP3    H237577   1.313   0.160  13.945 -1.1984  1.1043  0.2491
 5388TIP3   OH237578   4.875   2.209   4.477 -0.1041  0.0155  0.2753
 5388TIP3    H137579   4.895   2.170   4.563 -0.3107  2.6544  1.5742
 5388TIP3    H237580   4.810   2.277   4.496 -0.9510 -0.0711 -2.1512
 5389TIP3   OH237581   1.679   6.696  14.996 -0.2550  0.4491 -0.5630
 5389TIP3    H137582   1.767   6.681  14.961  0.9225  2.7966  1.2740
 5389TIP3    H237583   1.636   6.610  14.989  2.6296 -1.0953 -0.2739
 5390TIP3   OH237584   4.425   5.927   3.500  0.2594 -0.0540 -0.6320
 5390TIP3    H137585   4.474   5.846   3.487  0.1993 -0.3152  0.6930
 5390TIP3    H237586   4.457   5.961   3.584 -0.0543  1.0482 -0.9475
 5391TIP3   OH237587   1.000   0.350  16.045  0.2559 -0.0605  0.1397
 5391TIP3    H137588   0.935   0.314  15.984 -0.5740  1.6376  0.0006
 5391TIP3    H237589   1.062   0.278  16.059 -0.3102 -0.9321 -1.6291
 5392TIP3   OH237590   5.186   6.139  15.831 -0.0983  0.0504 -0.2124
 5392TIP3    H137591   5.095   6.125  15.858  0.1070 -1.0277 -0.0702
 5392TIP3    H237592   5.189   6.113  15.740  0.5133 -1.8411  0.3303
 5393TIP3   OH237593   3.952   6.302   2.922  0.4741  0.1278  0.6548
 5393TIP3    H137594   4.043   6.273   2.912 -0.1793 -1.8903  0.2802
 5393TIP3    H237595   3.903   6.221   2.939 -1.2915  1.1545  0.5696
 5394TIP3   OH237596   3.000   3.317   3.353  0.5452 -0.1840  0.4581
 5394TIP3    H137597   2.905   3.327   3.348  0.4344 -1.3217  0.2694
 5394TIP3    H237598   3.023   3.350   3.440  0.4167  3.3565 -0.7637
 5395TIP3   OH237599   4.668   2.883   1.822  0.5987 -0.1050  0.3429
 5395TIP3    H137600   4.650   2.955   1.761  0.9514  0.3905  0.8234
 5395TIP3    H237601   4.721   2.923   1.891  0.3329 -0.7065  0.8931
 5396TIP3   OH237602   6.280   4.136   5.097 -0.5460  0.9922 -0.6019
 5396TIP3    H137603   6.257   4.045   5.078 -0.1646  0.5500  0.9594
 5396TIP3    H237604   6.204   4.187   5.067 -2.1086 -0.1307  1.2859
 5397TIP3   OH237605   4.773   2.713   2.055 -0.4109  0.1657  0.5416
 5397TIP3    H137606   4.705   2.772   2.022 -1.0768 -0.9078 -0.0105
 5397TIP3    H237607   4.811   2.760   2.130 -0.1291  1.8076 -0.6077
 5398TIP3   OH237608   1.670   3.908  12.140 -0.0857 -0.1357 -0.1484
 5398TIP3    H137609   1.728   3.957  12.081  0.2742 -1.9469 -1.3440
 5398TIP3    H237610   1.696   3.936  12.228  0.6655  1.1769 -0.7691
 5399TIP3   OH237611   5.691   0.692   0.611 -0.0397  0.7243  0.0133
 5399TIP3    H137612   5.650   0.674   0.526 -1.7160 -1.7915  1.2718
 5399TIP3    H237613   5.770   0.638   0.611  0.2361  1.1295 -0.1582
 5400TIP3   OH237614   5.257   4.178   3.030 -0.4503 -0.3015  0.4261
 5400TIP3    H137615   5.343   4.217   3.017 -0.5531 -0.3882 -0.5314
 5400TIP3    H237616   5.206   4.206   2.954 -1.4452  0.2322  1.2656
 5401TIP3   OH237617   5.960   3.085  11.759 -0.4772  0.2166  0.4036
 5401TIP3    H137618   5.898   3.113  11.692 -0.6391 -2.6260 -0.6643
 5401TIP3    H237619   6.040   3.132  11.739 -0.7345 -0.0882 -1.3540
 5402TIP3   OH237620   1.313   0.962   5.321 -0.7048  0.1007  0.1253
 5402TIP3    H137621   1.403   0.945   5.350 -0.0894 -0.3549 -1.9771
 5402TIP3    H237622   1.278   0.875   5.303 -1.4725  0.3009  0.6530
 5403TIP3   OH237623   4.064   5.401  15.868 -0.5064  0.2589  0.6694
 5403TIP3    H137624   4.028   5.388  15.780  0.4560 -0.5684  0.3903
 5403TIP3    H237625   4.059   5.496  15.882 -0.6072  0.4022 -0.3048
 5404TIP3   OH237626   6.592   0.347  15.073  0.2631  0.4909 -0.0640
 5404TIP3    H137627   6.622   0.341  15.163 -0.1645  0.4417  0.0765
 5404TIP3    H237628   6.509   0.299  15.071  0.6183 -0.1036 -0.6389
 5405TIP3   OH237629   0.767   5.160   4.923 -0.0313  0.7768 -0.4618
 5405TIP3    H137630   0.702   5.090   4.909 -0.2839  0.9836 -0.3237
 5405TIP3    H237631   0.727   5.238   4.885  0.0206  0.9624 -0.1409
 5406TIP3   OH237632   3.162   6.014  14.414  0.2462 -0.4738  0.6548
 5406TIP3    H137633   3.193   5.986  14.328  0.4786 -0.2653  0.6703
 5406TIP3    H237634   3.241   6.038  14.461  0.2220 -1.6461  1.3112
 5407TIP3   OH237635   5.938   3.625   0.763 -0.6093  0.4613 -0.6059
 5407TIP3    H137636   6.001   3.673   0.709  1.4353 -2.4317 -0.9758
 5407TIP3    H237637   5.951   3.659   0.851  2.0555 -0.5055 -0.5592
 5408TIP3   OH237638   5.564   2.169   5.833 -0.3612  0.1444 -0.1924
 5408TIP3    H137639   5.508   2.112   5.887  1.4084  0.8313  2.4470
 5408TIP3    H237640   5.503   2.215   5.776 -1.9558 -3.5129 -1.5865
 5409TIP3   OH237641   5.137   3.598  16.855 -0.3305 -0.1133  0.2837
 5409TIP3    H137642   5.111   3.664  16.920 -0.5787 -1.2870  1.4055
 5409TIP3    H237643   5.155   3.520  16.907  3.5528  0.0620 -0.6206
 5410TIP3   OH237644   2.905   1.152  15.426  0.1870  0.2168 -0.1006
 5410TIP3    H137645   2.921   1.176  15.518 -0.2811  2.2142 -0.5063
 5410TIP3    H237646   2.946   1.222  15.376 -1.0295  0.0405 -1.3796
 5411TIP3   OH237647   6.305   4.900  10.630  0.4050 -0.0147 -0.0549
 5411TIP3    H137648   6.295   4.974  10.570  0.6531 -0.7655 -1.0262
 5411TIP3    H237649   6.399   4.890  10.641  0.4677 -1.4514 -1.5464
 5412TIP3   OH237650   2.193   0.302  15.622  0.1393  0.1634 -0.0290
 5412TIP3    H137651   2.240   0.235  15.572  1.1646  1.8869 -1.4366
 5412TIP3    H237652   2.167   0.258  15.703  1.2085 -1.7875 -0.7163
 5413TIP3   OH237653   0.986   5.797   3.715 -0.0763  0.1249 -0.7715
 5413TIP3    H137654   0.920   5.829   3.654  0.7084 -2.0259 -2.8258
 5413TIP3    H237655   0.936   5.752   3.783 -0.7818 -1.2996 -2.1974
 5414TIP3   OH237656   2.020   0.151   4.421 -0.0315 -0.3098 -0.2631
 5414TIP3    H137657   2.105   0.183   4.451 -0.5498  1.2560 -0.4584
 5414TIP3    H237658   1.956   0.210   4.460 -0.9784 -0.8881 -0.9143
 5415TIP3   OH237659   5.666   6.552  15.373  0.1823 -0.2565  0.1993
 5415TIP3    H137660   5.722   6.579  15.446 -0.7356  0.9319  0.4844
 5415TIP3    H237661   5.658   6.457  15.383  0.0254 -0.0982  1.6916
 5416TIP3   OH237662   2.856   0.045   4.060  0.2714  0.0859 -0.1274
 5416TIP3    H137663   2.831   0.137   4.065 -0.7466 -0.2405  1.0558
 5416TIP3    H237664   2.845   0.022   3.968  0.2582  1.0653 -0.3753
 5417TIP3   OH237665   5.097   2.507  15.363 -0.0912  0.4336  0.5160
 5417TIP3    H137666   5.003   2.495  15.377 -0.0840  0.4929  0.6148
 5417TIP3    H237667   5.138   2.451  15.428 -0.0573  0.1399  0.2413
 5418TIP3   OH237668   0.322   4.565  16.515 -0.3623  0.5092 -0.2140
 5418TIP3    H137669   0.405   4.601  16.547 -0.9804  1.8140 -0.0665
 5418TIP3    H237670   0.347   4.504  16.445  0.8969 -1.0784  1.5534
 5419TIP3   OH237671   0.072   4.037  11.882  0.0166  0.0026  0.4179
 5419TIP3    H137672   0.155   3.992  11.891  0.8563  1.3768 -0.2838
 5419TIP3    H237673   0.018   4.004  11.955  1.4440 -0.2889  1.3546
 5420TIP3   OH237674   5.044   0.390   1.465 -0.4776  0.1803  0.6700
 5420TIP3    H137675   5.070   0.298   1.468  0.4405  0.4567  1.3796
 5420TIP3    H237676   5.125   0.437   1.445 -0.5522  0.9835  2.2106
 5421TIP3   OH237677   4.744   1.077  11.948 -0.5203 -0.3671 -0.2254
 5421TIP3    H137678   4.804   1.090  12.021  1.4269 -0.8997 -1.7079
 5421TIP3    H237679   4.775   1.136  11.879 -2.8314  0.7387 -0.3644
 5422TIP3   OH237680   6.737   3.148   2.015 -0.2288 -0.2339 -0.6284
 5422TIP3    H137681   6.680   3.086   2.060 -1.9948  2.0354  0.3377
 5422TIP3    H237682   6.823   3.137   2.057 -1.2830  0.1684  1.6715
 5423TIP3   OH237683   4.435   1.167  15.728  0.1924  0.3609  0.0864
 5423TIP3    H137684   4.382   1.169  15.807 -1.6161  0.3106 -1.0895
 5423TIP3    H237685   4.427   1.255  15.691 -0.0542 -0.0025 -0.7361
 5424TIP3   OH237686   5.988   0.336  16.529  0.0169 -0.7479  0.5316
 5424TIP3    H137687   5.925   0.290  16.585  0.9662 -2.4958  0.2050
 5424TIP3    H237688   5.958   0.427  16.527 -0.9000 -0.9980  2.6187
 5425TIP3   OH237689   1.264   0.996  15.536 -0.0470 -0.2452  0.2517
 5425TIP3    H137690   1.242   1.058  15.466 -0.6790 -0.7883 -0.0398
 5425TIP3    H237691   1.224   0.913  15.508  1.7552 -1.0840  0.0611
 5426TIP3   OH237692   4.694   1.532  14.213 -0.6554  0.6221 -0.2564
 5426TIP3    H137693   4.609   1.510  14.175  0.3395  0.2185 -2.3329
 5426TIP3    H237694   4.719   1.454  14.263 -1.6733  0.8929  0.6889
 5427TIP3   OH237695   2.284   6.502   1.178 -0.1602 -0.9153 -0.3745
 5427TIP3    H137696   2.342   6.493   1.102  0.9773  0.8345  0.2737
 5427TIP3    H237697   2.231   6.579   1.159  0.2413 -0.3717  0.6729
 5428TIP3   OH237698   4.630   2.895   5.216 -0.1440  0.5101 -0.0587
 5428TIP3    H137699   4.596   2.937   5.137  0.0998  1.0437  0.1201
 5428TIP3    H237700   4.569   2.922   5.285  0.4614  1.2078  0.2045
 5429TIP3   OH237701   1.126   6.013   0.513  0.1675 -0.4514 -0.3846
 5429TIP3    H137702   1.130   6.039   0.421 -3.8787  1.3905 -0.1516
 5429TIP3    H237703   1.060   5.944   0.516  1.3171 -1.5241  0.9749
 5430TIP3   OH237704   0.402   3.736   6.354  0.4627 -0.2090  0.5941
 5430TIP3    H137705   0.397   3.831   6.341 -1.0300 -0.5210 -1.4651
 5430TIP3    H237706   0.452   3.705   6.278 -1.1339 -1.2890 -0.0295
 5431TIP3   OH237707   3.648   1.718   5.216  0.2122 -0.0266  0.0187
 5431TIP3    H137708   3.703   1.655   5.263  2.8069  0.7614 -1.8113
 5431TIP3    H237709   3.584   1.664   5.170  2.7857 -1.4379 -2.0155
 5432TIP3   OH237710   5.818   2.971   0.455 -0.5941  0.2961 -0.4394
 5432TIP3    H137711   5.910   2.987   0.436 -0.3078 -1.2573 -0.3941
 5432TIP3    H237712   5.773   2.979   0.371 -0.3200  0.2961 -0.5827
 5433TIP3   OH237713   4.756   3.791  15.453 -0.2620  0.3765 -1.4213
 5433TIP3    H137714   4.753   3.709  15.404 -0.2612  0.0083 -0.8072
 5433TIP3    H237715   4.848   3.799  15.480 -0.8852 -1.0554  1.2730
 5434TIP3   OH237716   2.511   3.403  11.803  0.1451 -0.1563 -0.1710
 5434TIP3    H137717   2.537   3.370  11.889 -0.4261 -1.0714 -0.3387
 5434TIP3    H237718   2.435   3.459  11.821  0.9339  0.8343  0.0845
 5435TIP3   OH237719   1.937   2.584   5.500 -0.5203 -0.5882 -0.3371
 5435TIP3    H137720   1.855   2.576   5.451  0.3185  1.1235 -2.0965
 5435TIP3    H237721   1.990   2.511   5.469 -0.2508  0.0872 -1.5088
 5436TIP3   OH237722   5.208   4.793  15.568 -0.1447 -0.3253 -0.1192
 5436TIP3    H137723   5.249   4.734  15.504  2.3428  0.6083  0.5523
 5436TIP3    H237724   5.224   4.881  15.534  1.4648  0.2017  1.8888
 5437TIP3   OH237725   3.854   2.533   5.637 -0.5468 -1.1180  0.0079
 5437TIP3    H137726   3.883   2.576   5.557  0.7697  0.9002  1.5348
 5437TIP3    H237727   3.771   2.577   5.659  0.6298  0.4776  1.3837
 5438TIP3   OH237728   6.733   3.636  13.390 -0.2593  0.2082  0.2372
 5438TIP3    H137729   6.719   3.569  13.322 -0.4623  1.0123 -0.5195
 5438TIP3    H237730   6.817   3.612  13.430 -0.2223 -0.3688 -0.1792
 5439TIP3   OH237731   0.760   5.598   0.577 -0.0299 -0.1486  0.0090
 5439TIP3    H137732   0.710   5.588   0.496  0.3346  0.8628 -0.3426
 5439TIP3    H237733   0.802   5.683   0.569 -0.3622  0.1682  1.4630
 5440TIP3   OH237734   6.746   0.189   1.268 -0.3467  0.3302 -0.1010
 5440TIP3    H137735   6.695   0.267   1.250 -3.2095 -1.2966  0.6129
 5440TIP3    H237736   6.741   0.137   1.188 -0.3336 -0.1065  0.1756
 5441TIP3   OH237737   5.542   5.855  10.431 -0.2845  0.2873  0.5325
 5441TIP3    H137738   5.628   5.875  10.395 -0.2159  0.7231  0.9346
 5441TIP3    H237739   5.515   5.775  10.386 -0.1853  0.8035 -0.4476
 5442TIP3   OH237740   2.326   3.288  16.543  0.5498  0.4763 -1.1026
 5442TIP3    H137741   2.237   3.286  16.508 -0.0281 -0.5352  0.4173
 5442TIP3    H237742   2.338   3.378  16.573 -0.9340 -0.0512  1.1585
 5443TIP3   OH237743   6.441   1.006   4.140 -0.8618  0.2518 -0.1654
 5443TIP3    H137744   6.490   0.951   4.202  0.5770  1.2051 -0.4192
 5443TIP3    H237745   6.367   0.952   4.112 -0.8056 -0.6580  1.4110
 5444TIP3   OH237746   2.561   0.734  14.935 -0.2226 -0.6410  0.1915
 5444TIP3    H137747   2.587   0.813  14.982  0.0964 -1.3514  1.2303
 5444TIP3    H237748   2.467   0.725  14.954  0.2214 -1.7215  1.8765
 5445TIP3   OH237749   0.661   6.685  13.655 -0.3980 -0.1994 -1.0081
 5445TIP3    H137750   0.750   6.716  13.671 -0.4608 -0.2427 -0.5735
 5445TIP3    H237751   0.606   6.763  13.664 -0.5492 -0.4191  0.0310
 5446TIP3   OH237752   2.460   5.477   0.408  0.3083  0.1909  0.0364
 5446TIP3    H137753   2.401   5.509   0.476  0.9258  0.3881  0.4873
 5446TIP3    H237754   2.514   5.412   0.452 -1.5515 -2.1773 -1.1079
 5447TIP3   OH237755   1.745   2.102  11.827  0.5332 -0.1072 -0.0231
 5447TIP3    H137756   1.694   2.056  11.760  0.8998  1.3034 -1.3073
 5447TIP3    H237757   1.835   2.074  11.813  0.4591 -0.6550  0.5958
 5448TIP3   OH237758   6.078   5.127   0.568 -0.6551 -0.1834 -0.3646
 5448TIP3    H137759   6.052   5.043   0.530 -1.0762 -0.2848  0.1347
 5448TIP3    H237760   6.015   5.141   0.639  1.2937 -0.9295  1.5748
 5449TIP3   OH237761   6.556   4.611   2.442 -0.7422  0.0282  0.4281
 5449TIP3    H137762   6.634   4.618   2.387 -0.9035 -0.2910  0.1615
 5449TIP3    H237763   6.576   4.540   2.503 -0.2400  0.9096  1.3064
 5450TIP3   OH237764   1.959   4.321   4.007 -0.1601 -0.3700  0.1226
 5450TIP3    H137765   1.973   4.251   3.943  1.1246  0.5219 -0.5797
 5450TIP3    H237766   1.864   4.329   4.013 -0.3214 -1.8462 -0.1425
 5451TIP3   OH237767   0.819   6.467  13.792 -0.2688  0.5655 -0.4034
 5451TIP3    H137768   0.734   6.502  13.766 -1.1671 -0.7138  0.7101
 5451TIP3    H237769   0.798   6.391  13.847  1.5907  0.2599 -0.0675
 5452TIP3   OH237770   4.931   0.480  15.694  0.2468  0.4335  0.1783
 5452TIP3    H137771   4.945   0.527  15.776  0.8928 -0.6194  0.6860
 5452TIP3    H237772   4.858   0.421  15.711  0.2618  0.3463 -0.0506
 5453TIP3   OH237773   1.179   0.149   5.107  0.0495  0.0300 -0.3188
 5453TIP3    H137774   1.088   0.145   5.079 -0.2210 -0.3247  0.5944
 5453TIP3    H237775   1.189   0.235   5.148  0.3045  0.3378 -1.0262
 5454TIP3   OH237776   2.220   4.645   1.278 -0.2527 -0.1087 -0.1662
 5454TIP3    H137777   2.227   4.704   1.354 -1.4997  0.6711 -0.6447
 5454TIP3    H237778   2.309   4.610   1.267 -0.4949 -1.9841  3.0394
 5455TIP3   OH237779   2.922   3.589   2.535  0.0229 -0.3090  0.0043
 5455TIP3    H137780   2.840   3.573   2.488 -0.4071  3.0818 -0.5111
 5455TIP3    H237781   2.940   3.682   2.521  3.6107 -0.8179  0.6858
 5456TIP3   OH237782   3.684   6.315  15.356  0.2530 -0.2801  0.0219
 5456TIP3    H137783   3.694   6.317  15.261 -0.0812 -1.3710 -0.0396
 5456TIP3    H237784   3.655   6.226  15.375 -0.7075  0.2481  1.0466
 5457TIP3   OH237785   2.718   6.669   1.816 -0.6772  0.4559 -0.1307
 5457TIP3    H137786   2.650   6.727   1.849 -0.4609  0.8549 -0.3895
 5457TIP3    H237787   2.755   6.629   1.895 -1.0437  0.4195  0.0254
 5458TIP3   OH237788   1.227   1.096   1.488  0.0833 -0.3730 -0.3341
 5458TIP3    H137789   1.157   1.161   1.491  1.4307  1.0981 -0.0604
 5458TIP3    H237790   1.235   1.074   1.396 -0.4810 -0.2489 -0.4143
 5459TIP3   OH237791   0.904   1.881  16.418  0.3222 -0.0651 -0.0657
 5459TIP3    H137792   0.874   1.792  16.400  2.5723 -0.9865  0.5081
 5459TIP3    H237793   0.896   1.890  16.513 -0.1053  0.4373 -0.1469
 5460TIP3   OH237794   0.364   3.460   0.665  0.1537  0.4108  1.0204
 5460TIP3    H137795   0.338   3.549   0.690 -0.8045  0.0961  1.1929
 5460TIP3    H237796   0.445   3.444   0.714  0.2900  1.1617  1.0452
 5461TIP3   OH237797   2.687   6.518  15.289 -0.0960  0.2507  0.5964
 5461TIP3    H137798   2.614   6.578  15.273 -0.7448 -0.8839 -0.9279
 5461TIP3    H237799   2.648   6.431  15.280  0.2263 -0.5379  5.3682
 5462TIP3   OH237800   3.659   0.260   0.095  0.0040 -0.6665 -0.4840
 5462TIP3    H137801   3.646   0.205   0.173 -1.0902  0.1061 -0.1128
 5462TIP3    H237802   3.572   0.268   0.056  0.5389 -0.9932 -1.7612
 5463TIP3   OH237803   4.209   6.077   2.279  0.0395 -0.3928 -0.9016
 5463TIP3    H137804   4.280   6.032   2.235  1.2647 -0.0476  0.6845
 5463TIP3    H237805   4.240   6.167   2.292 -1.8395  0.5698 -2.8017
 5464TIP3   OH237806   2.968   0.229   0.226 -0.4736 -0.7075  0.1386
 5464TIP3    H137807   3.054   0.213   0.187 -0.6759 -0.5418 -0.3817
 5464TIP3    H237808   2.953   0.153   0.282  0.2739 -0.4468  0.7033
 5465TIP3   OH237809   5.649   4.975  15.387 -0.0621  0.3717 -0.4934
 5465TIP3    H137810   5.612   5.043  15.329 -0.0036  2.6632  2.0385
 5465TIP3    H237811   5.663   5.020  15.470  4.2387 -1.6129 -0.0022
 5466TIP3   OH237812   4.811   5.414   3.877  0.1711  0.2808  1.0409
 5466TIP3    H137813   4.778   5.368   3.955  2.1939  0.0214  1.7752
 5466TIP3    H237814   4.838   5.500   3.910  0.7482  0.2815  0.5662
 5467TIP3   OH237815   5.604   1.470   2.318 -0.4449  0.0729 -0.4318
 5467TIP3    H137816   5.534   1.534   2.310  0.4138  0.8738 -1.7561
 5467TIP3    H237817   5.626   1.446   2.227 -0.5330 -1.8510  0.0280
 5468TIP3   OH237818   5.754   5.171   0.307  0.0923 -0.0276  0.3960
 5468TIP3    H137819   5.700   5.136   0.378  0.5872 -0.4374  0.5652
 5468TIP3    H237820   5.691   5.209   0.246 -0.4009 -0.6492  0.5181
 5469TIP3   OH237821   2.448   2.405  12.921  0.4838 -0.0204 -0.6975
 5469TIP3    H137822   2.479   2.376  12.835  1.7952 -0.6008 -0.0439
 5469TIP3    H237823   2.436   2.323  12.970  2.1828  0.4156  0.4811
 5470TIP3   OH237824   4.460   3.221   3.921  0.5849 -0.1628  0.1697
 5470TIP3    H137825   4.515   3.208   3.999  1.4685 -0.5065 -0.5053
 5470TIP3    H237826   4.376   3.251   3.956 -0.2868 -3.9599  1.5064
 5471TIP3   OH237827   2.937   0.048  13.531  0.4080  0.2118 -0.6292
 5471TIP3    H137828   2.947   0.052  13.436 -0.5296  0.1054 -0.7337
 5471TIP3    H237829   2.891  -0.035  13.547 -1.8380  1.4675 -0.2938
 5472TIP3   OH237830   4.853   0.785   1.682  0.0001 -0.1412 -0.3177
 5472TIP3    H137831   4.895   0.722   1.624 -1.4251 -0.2941 -1.2169
 5472TIP3    H237832   4.924   0.842   1.712  1.1017 -1.4285 -0.4512
 5473TIP3   OH237833   3.906   1.469  12.884 -0.7702 -0.0416  0.0416
 5473TIP3    H137834   3.841   1.417  12.837 -0.7713 -0.0363  0.0370
 5473TIP3    H237835   3.990   1.428  12.862 -0.9853 -1.8080  2.2814
 5474TIP3   OH237836   6.231   1.046  17.076  0.2321 -0.5113  0.0491
 5474TIP3    H137837   6.190   1.082  16.997 -1.9856 -0.4684  1.1878
 5474TIP3    H237838   6.284   0.973  17.044 -0.6938 -0.5464 -1.4863
 5475TIP3   OH237839   6.373   4.019  16.108  0.1370  0.1302 -0.1291
 5475TIP3    H137840   6.446   4.053  16.160 -0.0756 -1.2525  1.1381
 5475TIP3    H237841   6.323   4.096  16.082  0.8271  0.9284  0.8860
 5476TIP3   OH237842   5.391   6.080  15.087  0.3716 -0.2479 -0.2738
 5476TIP3    H137843   5.479   6.079  15.126  1.1330 -0.2503 -1.9727
 5476TIP3    H237844   5.350   6.000  15.119  1.5697 -1.0644 -0.7719
 5477TIP3   OH237845   6.271   6.006  16.784 -0.1309  0.5614  0.0733
 5477TIP3    H137846   6.244   6.048  16.866  3.0515 -0.5682  1.8071
 5477TIP3    H237847   6.240   5.916  16.791 -0.1792  0.5634 -0.1103
 5478TIP3   OH237848   6.361   1.940   1.114  0.0258  0.0423 -0.0879
 5478TIP3    H137849   6.434   1.974   1.167 -0.7661  1.5101  0.0675
 5478TIP3    H237850   6.331   2.015   1.063 -1.0652 -0.6826 -0.5245
 5479TIP3   OH237851   1.817   3.737  14.088 -0.3623 -0.3991  0.0373
 5479TIP3    H137852   1.844   3.661  14.139  0.4013 -0.1400  0.0320
 5479TIP3    H237853   1.812   3.705  13.998  3.7435  0.4179 -0.5861
 5480TIP3   OH237854   5.998   6.737   4.710 -0.3865 -0.5812 -0.2760
 5480TIP3    H137855   5.942   6.800   4.663  1.7238  1.0429 -0.6768
 5480TIP3    H237856   5.963   6.738   4.800 -0.4427  1.1305 -0.2839
 5481TIP3   OH237857   1.455   5.377   4.899 -0.2393  0.5480  0.6720
 5481TIP3    H137858   1.503   5.435   4.841  0.0803 -0.9787 -0.6426
 5481TIP3    H237859   1.363   5.401   4.888 -0.0136  1.6107  1.0745
 5482TIP3   OH237860   5.560   0.031   4.974  0.2658  0.0814  0.1672
 5482TIP3    H137861   5.592   0.042   5.064  0.7944 -0.7545  0.0840
 5482TIP3    H237862   5.470   0.063   4.977  0.4147  0.4581  0.8966
 5483TIP3   OH237863   5.445   5.444  13.690  0.0299 -0.4196 -0.2642
 5483TIP3    H137864   5.518   5.417  13.635  0.9327  0.9099  0.2617
 5483TIP3    H237865   5.480   5.514  13.744 -1.0483 -1.2185  1.5107
 5484TIP3   OH237866   4.728   1.274   0.989  0.1711  0.4199 -0.2924
 5484TIP3    H137867   4.761   1.357   0.955  0.6791 -0.6321 -2.4507
 5484TIP3    H237868   4.804   1.216   0.990 -0.4718 -0.4353 -0.1671
 5485TIP3   OH237869   3.841   0.927  13.341 -0.4256 -0.2867  0.2559
 5485TIP3    H137870   3.804   0.968  13.419  0.0369 -0.1336  0.3926
 5485TIP3    H237871   3.934   0.950  13.343 -0.4667 -0.0563 -0.4847
 5486TIP3   OH237872   0.627   5.295  10.486 -0.5257  0.2668  0.7972
 5486TIP3    H137873   0.535   5.291  10.513 -0.8032  0.5700 -0.0830
 5486TIP3    H237874   0.676   5.300  10.568 -1.3183  0.5577  1.2602
 5487TIP3   OH237875   1.709   5.697   6.003  0.2095  0.4003  0.0833
 5487TIP3    H137876   1.758   5.780   6.009  0.1407  0.3866  0.8160
 5487TIP3    H237877   1.622   5.718   6.036 -0.2399  0.3774 -1.0585
 5488TIP3   OH237878   3.142   6.319  13.555 -0.7979  0.2241  0.5074
 5488TIP3    H137879   3.136   6.259  13.629 -1.1996 -0.4979 -0.1115
 5488TIP3    H237880   3.121   6.266  13.479  2.0326  0.3931 -0.4267
 5489TIP3   OH237881   4.249   0.776   0.335  0.0055  0.7198  0.3377
 5489TIP3    H137882   4.222   0.868   0.340 -3.0425  0.0067 -1.2395
 5489TIP3    H237883   4.182   0.729   0.384  1.1645 -0.7424  0.5459
 5490TIP3   OH237884   1.665   5.770   1.718 -0.1210  0.1019 -0.6151
 5490TIP3    H137885   1.584   5.819   1.712  0.0930  0.6001  0.5396
 5490TIP3    H237886   1.724   5.826   1.768  0.0771 -1.3765  0.8367
 5491TIP3   OH237887   1.186   3.673   0.141 -0.5065 -0.0286  0.3008
 5491TIP3    H137888   1.188   3.596   0.085 -1.1924 -0.6484  1.1232
 5491TIP3    H237889   1.270   3.717   0.124  0.0170 -1.1055  0.0482
 5492TIP3   OH237890   4.527   3.032   4.193  0.7165  0.3789 -0.2223
 5492TIP3    H137891   4.526   2.954   4.249  2.1528  0.3493 -0.2095
 5492TIP3    H237892   4.460   3.015   4.127 -0.3072 -0.0214  0.9147
 5493TIP3   OH237893   2.578   2.723   2.204 -0.5523 -0.2214 -0.8744
 5493TIP3    H137894   2.562   2.719   2.299  1.8112  1.2106 -0.3526
 5493TIP3    H237895   2.525   2.797   2.174  0.4543  0.7813 -0.2317
 5494TIP3   OH237896   0.895   1.261   4.842  0.0162 -0.0835  0.7220
 5494TIP3    H137897   0.943   1.189   4.883  0.1451  0.3971  1.4141
 5494TIP3    H237898   0.875   1.321   4.913  1.5409  1.4989 -0.1426
 5495TIP3   OH237899   3.445   1.366  12.387 -0.1659 -0.0482  0.3951
 5495TIP3    H137900   3.495   1.284  12.386 -0.6235 -0.3174 -0.3197
 5495TIP3    H237901   3.510   1.433  12.365 -0.1367 -0.4086 -0.6060
 5496TIP3   OH237902   3.985   3.599   4.116  0.4520  0.0745 -0.8276
 5496TIP3    H137903   3.946   3.687   4.112  0.8208  0.2763 -0.1664
 5496TIP3    H237904   3.935   3.547   4.053 -0.2811  0.5638 -0.6568
 5497TIP3   OH237905   3.405   3.618   3.825  0.0838 -0.2466 -0.1795
 5497TIP3    H137906   3.403   3.599   3.732  0.7792 -2.5058  0.2228
 5497TIP3    H237907   3.314   3.635   3.849 -0.0922  0.3205 -1.2429
 5498TIP3   OH237908   3.949   2.488   2.587  0.2266  0.0209  0.6154
 5498TIP3    H137909   4.003   2.409   2.596 -0.2790 -0.2723  1.0639
 5498TIP3    H237910   3.862   2.455   2.566 -0.1818  0.4194  1.6635
 5499TIP3   OH237911   1.948   3.572   4.136  0.1038  0.3171 -0.2404
 5499TIP3    H137912   1.860   3.554   4.167  0.8840 -1.1153  1.1982
 5499TIP3    H237913   1.972   3.654   4.179 -0.8748  1.2510 -1.4239
 5500TIP3   OH237914   1.450   1.394   4.416 -0.4221  0.1801  0.8572
 5500TIP3    H137915   1.515   1.338   4.459  0.7125  0.8738  0.0723
 5500TIP3    H237916   1.488   1.482   4.419 -0.8597  0.4285 -0.4933
 5501TIP3   OH237917   3.751   6.016   4.131 -0.2509 -0.5985  0.7539
 5501TIP3    H137918   3.737   5.992   4.040 -0.4552  1.2354  0.2848
 5501TIP3    H237919   3.721   5.941   4.181 -1.3542 -1.0934 -0.6431
 5502TIP3   OH237920   0.780   1.089   1.482  0.0491  0.3400 -0.3399
 5502TIP3    H137921   0.696   1.052   1.455 -1.7984  2.1090  2.6323
 5502TIP3    H237922   0.836   1.013   1.497 -1.5798 -0.9548 -0.7189
 5503TIP3   OH237923   1.622   1.122   4.815  0.5699  0.6091  0.1547
 5503TIP3    H137924   1.673   1.164   4.885 -1.3185  0.6107  1.5792
 5503TIP3    H237925   1.577   1.195   4.772 -0.4272  0.3521  0.7441
 5504TIP3   OH237926   4.071   1.069  16.630 -0.0817 -0.0420 -0.7199
 5504TIP3    H137927   3.981   1.102  16.639  0.3173  1.4431 -2.0505
 5504TIP3    H237928   4.062   0.974  16.632 -1.4402  0.0907  1.4509
 5505TIP3   OH237929   0.623   6.373   4.027  0.1561 -0.1048  0.2865
 5505TIP3    H137930   0.574   6.366   3.945  1.5393  0.1780 -0.5738
 5505TIP3    H237931   0.569   6.429   4.083 -0.2394  0.6734 -0.8561
 5506TIP3   OH237932   0.006   3.253   1.243 -0.2023  0.8682  0.1394
 5506TIP3    H137933  -0.079   3.211   1.254  0.3920 -0.4513 -0.2170
 5506TIP3    H237934   0.045   3.251   1.330  1.0468 -2.0436 -0.4271
 5507TIP3   OH237935   1.100   1.693   1.898 -0.6906 -0.4628  0.5811
 5507TIP3    H137936   1.058   1.648   1.825  0.7828 -1.5083  0.3433
 5507TIP3    H237937   1.145   1.768   1.857 -1.9767  0.4321  0.7828
 5508TIP3   OH237938   4.663   0.759  15.495 -0.0004 -0.7094 -0.6806
 5508TIP3    H137939   4.735   0.703  15.464  0.1910 -0.9239  0.1573
 5508TIP3    H237940   4.706   0.828  15.545 -0.1305  0.9087 -2.7097
 5509TIP3   OH237941   4.073   2.366  11.439  0.0195  0.0611 -0.2659
 5509TIP3    H137942   4.014   2.304  11.396  0.4504  0.0430 -0.8232
 5509TIP3    H237943   4.014   2.425  11.486 -0.3708 -1.4460  1.2337
 5510TIP3   OH237944   0.621   3.471  12.361 -0.2126 -0.4009 -0.0211
 5510TIP3    H137945   0.537   3.510  12.385 -0.2700 -0.6721  0.2296
 5510TIP3    H237946   0.685   3.541  12.374 -0.0805 -0.8686  2.0609
 5511TIP3   OH237947   2.451   3.390   1.767  0.1909  0.1998  0.1859
 5511TIP3    H137948   2.506   3.385   1.845 -0.9021 -1.4922  0.8726
 5511TIP3    H237949   2.511   3.378   1.694  0.9604 -0.0435  0.8501
 5512TIP3   OH237950   4.956   5.886  17.177  0.3063  0.2050 -0.3060
 5512TIP3    H137951   4.879   5.871  17.122 -0.1900  0.2747  0.3671
 5512TIP3    H237952   4.966   5.806  17.228 -0.2058  0.7576  0.6782
 5513TIP3   OH237953   4.069   5.219  15.346 -0.6288  0.5026  0.2574
 5513TIP3    H137954   4.069   5.308  15.383 -1.1022  0.5205  0.2217
 5513TIP3    H237955   4.080   5.232  15.252 -0.3144  0.5041  0.2956
 5514TIP3   OH237956   2.140   4.721   4.667  0.1989  0.4521 -0.3172
 5514TIP3    H137957   2.145   4.810   4.633  0.7715  1.1774  1.5794
 5514TIP3    H237958   2.085   4.728   4.745  0.2444 -0.8501 -0.1566
 5515TIP3   OH237959   6.603   4.530  13.500  0.0250 -0.0572 -0.2165
 5515TIP3    H137960   6.555   4.575  13.430  0.8924 -0.7326 -1.2656
 5515TIP3    H237961   6.586   4.437  13.484  1.7333 -0.3118 -0.6519
 5516TIP3   OH237962   2.401   0.823   1.041  0.0558 -0.0021 -0.3541
 5516TIP3    H137963   2.447   0.891   0.992  1.0821  0.8716  1.7467
 5516TIP3    H237964   2.309   0.848   1.035  0.1611  0.0866 -1.8103
 5517TIP3   OH237965   3.518   2.292   4.424  0.1488 -0.1461  0.3347
 5517TIP3    H137966   3.572   2.273   4.500  0.6532 -0.0812 -0.0062
 5517TIP3    H237967   3.535   2.384   4.404 -1.3929  0.3579  1.2622
 5518TIP3   OH237968   5.659   4.782  14.516  0.5991 -0.2507  0.3044
 5518TIP3    H137969   5.646   4.842  14.589 -0.2786  0.0242 -0.0726
 5518TIP3    H237970   5.704   4.706  14.555 -1.7494 -1.0382  1.5857
 5519TIP3   OH237971   0.050   3.433   4.874 -0.6669  0.0187  0.0373
 5519TIP3    H137972   0.131   3.390   4.903 -0.6691  0.2808  0.4305
 5519TIP3    H237973   0.010   3.370   4.814 -0.0753 -0.0325 -0.3068
 5520TIP3   OH237974   0.844   5.276   5.706 -0.1934  0.3372  0.4960
 5520TIP3    H137975   0.828   5.288   5.799  0.6828  1.3634  0.5360
 5520TIP3    H237976   0.937   5.298   5.695 -0.2046 -0.0989 -0.5612
 5521TIP3   OH237977   4.551   0.845   6.500  0.4316  0.1010  0.8465
 5521TIP3    H137978   4.470   0.897   6.499 -0.3783 -1.1531 -0.9541
 5521TIP3    H237979   4.613   0.896   6.448  0.0664 -0.0441  0.2577
 5522TIP3   OH237980   5.231   6.538   3.776  0.5184 -0.4605 -0.6227
 5522TIP3    H137981   5.221   6.443   3.787 -0.3981 -0.0611  2.1442
 5522TIP3    H237982   5.153   6.564   3.726 -2.0224 -0.4269  3.1895
 5523TIP3   OH237983   1.062   5.554  11.606 -0.3247  0.4358  0.5426
 5523TIP3    H137984   0.992   5.617  11.624 -1.3725 -0.6008  0.1411
 5523TIP3    H237985   1.083   5.515  11.691 -1.9411 -1.0118  0.2897
 5524TIP3   OH237986   6.503   5.750  12.106 -0.0623 -0.1301  0.6350
 5524TIP3    H137987   6.518   5.811  12.034 -0.7158 -1.1812 -0.4062
 5524TIP3    H237988   6.524   5.800  12.185  1.3195  0.8262 -0.3175
 5525TIP3   OH237989   3.423   4.910  12.941  0.5930  0.0492 -0.0426
 5525TIP3    H137990   3.368   4.837  12.913 -2.3564  2.1067  0.2583
 5525TIP3    H237991   3.480   4.927  12.866 -0.7115 -0.6397 -1.2018
 5526TIP3   OH237992   1.641   1.641  12.807  0.8041 -0.2872 -0.5822
 5526TIP3    H137993   1.639   1.646  12.903  0.6532  1.6507 -0.6633
 5526TIP3    H237994   1.630   1.732  12.779  1.1163 -0.8197 -2.4373
 5527TIP3   OH237995   6.153   4.665  12.390  0.3267  0.1648  0.0286
 5527TIP3    H137996   6.240   4.628  12.371  0.5411  0.7259 -0.0837
 5527TIP3    H237997   6.164   4.712  12.472 -0.5743 -2.1502  1.5209
 5528TIP3   OH237998   2.976   2.244   4.013  0.0621  0.3271  0.8963
 5528TIP3    H137999   2.922   2.173   3.978  0.1576  0.4311  0.5419
 5528TIP3    H238000   3.066   2.216   3.996  0.0497  1.9515 -2.0163
 5529TIP3   OH238001   3.872   6.224  16.663 -0.3867  0.4536  0.2104
 5529TIP3    H138002   3.784   6.188  16.676  0.1421 -0.3131  1.6896
 5529TIP3    H238003   3.926   6.148  16.642  0.1172  0.8046  0.2473
 5530TIP3   OH238004   5.656   4.066   3.414 -0.3964 -0.1833 -0.1518
 5530TIP3    H138005   5.652   3.988   3.470  0.5214  0.8987  1.4833
 5530TIP3    H238006   5.655   4.032   3.325  1.4810 -2.1558  0.5278
 5531TIP3   OH238007   2.486   3.377  17.192 -0.3818  0.0605  0.2947
 5531TIP3    H138008   2.429   3.321  17.140  0.7824 -0.1716 -0.7585
 5531TIP3    H238009   2.523   3.318  17.258 -0.4051 -0.0667  0.1963
 5532TIP3   OH238010   4.510   5.705  14.922 -0.6581 -0.2476 -0.1522
 5532TIP3    H138011   4.581   5.653  14.885  0.0184  0.6202 -0.1052
 5532TIP3    H238012   4.436   5.691  14.864 -0.8873 -2.3155  0.6030
 5533TIP3   OH238013   1.667   1.584   2.212  0.6595  0.0857 -0.4570
 5533TIP3    H138014   1.649   1.498   2.249  1.7193 -0.2747 -0.7781
 5533TIP3    H238015   1.686   1.640   2.288 -0.6591  0.1966 -0.2007
 5534TIP3   OH238016   5.998   6.100  11.901  0.0112  0.0459  0.2944
 5534TIP3    H138017   5.939   6.056  11.839  0.4866 -0.2116  0.0269
 5534TIP3    H238018   6.030   6.176  11.854  0.7890 -0.4403  0.0286
 5535TIP3   OH238019   5.807   4.743   3.625 -0.2456  0.8161 -0.1413
 5535TIP3    H138020   5.812   4.838   3.610 -1.2735  0.6096 -2.0269
 5535TIP3    H238021   5.888   4.709   3.588  0.0562  0.9412  0.4007
 5536TIP3   OH238022   5.042   3.954   4.882  0.8604 -0.1380  0.3793
 5536TIP3    H138023   4.982   4.019   4.918 -2.5199 -1.9702 -1.7480
 5536TIP3    H238024   5.087   4.000   4.811 -0.0768  0.4518  0.1578
 5537TIP3   OH238025   4.964   2.721   0.616  0.8407  0.1360  0.5105
 5537TIP3    H138026   4.901   2.752   0.552 -1.4217 -1.1160  2.0479
 5537TIP3    H238027   4.995   2.800   0.661 -0.8916  0.6325  0.8419
 5538TIP3   OH238028   3.857   5.233   2.384  0.0257  0.0559 -0.2159
 5538TIP3    H138029   3.930   5.172   2.389  0.3864  0.4604 -0.4415
 5538TIP3    H238030   3.779   5.179   2.396  0.3364 -0.4528 -0.4579
 5539TIP3   OH238031   4.046   1.592  12.531 -0.4224 -0.3692  0.0456
 5539TIP3    H138032   4.034   1.668  12.473 -0.1776 -1.4044 -1.3862
 5539TIP3    H238033   4.077   1.523  12.473 -1.2379 -1.7447  1.2356
 5540TIP3   OH238034   1.879   4.775  12.261 -0.0357  0.0530  0.2241
 5540TIP3    H138035   1.821   4.784  12.186 -0.6217 -1.1830  0.5100
 5540TIP3    H238036   1.936   4.700  12.240  1.5321  1.3085 -0.0941
 5541TIP3   OH238037   2.269   6.046   4.275  0.0040  0.4223  0.0175
 5541TIP3    H138038   2.209   6.110   4.238 -0.8853 -0.3418  0.1041
 5541TIP3    H238039   2.343   6.043   4.215 -1.1700 -0.4038 -1.4231
 5542TIP3   OH238040   1.853   3.825  14.508  0.1294  0.4557 -0.3782
 5542TIP3    H138041   1.796   3.858  14.577  0.6924  0.3178  0.1609
 5542TIP3    H238042   1.924   3.890  14.503 -1.1593  1.7547 -2.4997
 5543TIP3   OH238043   2.957   4.708   3.147 -0.0249  0.4853  0.0685
 5543TIP3    H138044   2.898   4.730   3.074  0.5151 -0.2534 -0.6068
 5543TIP3    H238045   3.036   4.759   3.130  0.2947 -0.0759 -0.1522
 5544TIP3   OH238046   5.184   4.840   3.106  0.0188  0.2958  0.0963
 5544TIP3    H138047   5.115   4.903   3.086  0.1780  0.0606 -1.2330
 5544TIP3    H238048   5.199   4.794   3.024  0.8491 -0.5555  0.7136
 5545TIP3   OH238049   6.598   3.027   6.817  0.3033  0.0282 -0.5538
 5545TIP3    H138050   6.518   2.976   6.825  0.7117 -0.2658  1.8802
 5545TIP3    H238051   6.573   3.117   6.839  0.5887 -0.0160 -0.0426
 5546TIP3   OH238052   4.814   0.912   2.669 -0.4548 -0.0712 -0.1101
 5546TIP3    H138053   4.764   0.991   2.652  0.7277  0.9007  0.8069
 5546TIP3    H238054   4.819   0.906   2.765  0.5323 -0.5631 -0.1829
 5547TIP3   OH238055   2.526   1.727   0.766  0.3324  0.2728 -0.6855
 5547TIP3    H138056   2.517   1.773   0.682 -0.6543 -0.2777 -0.8990
 5547TIP3    H238057   2.520   1.795   0.832 -1.1258  0.4816 -0.9980
 5548TIP3   OH238058   4.067   0.764  11.573  0.2733 -0.1511 -0.0980
 5548TIP3    H138059   4.021   0.689  11.612  1.1363 -0.3414  0.5736
 5548TIP3    H238060   4.075   0.741  11.480  1.4136 -1.3639  0.2790
 5549TIP3   OH238061   6.757   1.522   1.588  0.1602 -0.1149  0.1455
 5549TIP3    H138062   6.747   1.519   1.683 -0.9088  0.1441  0.0530
 5549TIP3    H238063   6.667   1.530   1.555  0.5313 -0.0954 -0.8783
 5550TIP3   OH238064   5.059   5.901   1.300 -0.2221 -0.1234  0.4622
 5550TIP3    H138065   5.005   5.848   1.242  1.4107 -0.7006 -0.5562
 5550TIP3    H238066   5.119   5.839   1.342  0.6661  0.6969  0.4387
 5551TIP3   OH238067   3.059   5.934  12.670 -0.6422  0.2707 -0.5578
 5551TIP3    H138068   3.028   5.897  12.588 -0.5449 -0.0243 -0.4647
 5551TIP3    H238069   3.006   6.012  12.683  0.6443  1.3966 -1.8713
 5552TIP3   OH238070   4.443   6.017  13.135 -0.5212 -0.0890  0.1988
 5552TIP3    H138071   4.449   6.105  13.172  0.4908 -0.5908  1.2692
 5552TIP3    H238072   4.352   6.009  13.105 -1.1119  0.6728  1.7535
 5553TIP3   OH238073   5.970   4.331  14.691 -0.7289 -0.0965 -0.4648
 5553TIP3    H138074   5.929   4.316  14.776 -0.9562 -1.1719 -0.7667
 5553TIP3    H238075   6.048   4.382  14.712 -1.3100  0.5216  0.2823
 5554TIP3   OH238076   2.628   6.750  11.752 -0.1841 -0.3830  0.0674
 5554TIP3    H138077   2.604   6.795  11.832  2.8083 -0.0747  0.8328
 5554TIP3    H238078   2.637   6.819  11.687  0.8451 -0.2599  0.3402
 5555TIP3   OH238079   2.678   0.719  11.692 -0.6407 -0.9087 -0.4436
 5555TIP3    H138080   2.610   0.736  11.757 -0.0930  1.8894 -0.5726
 5555TIP3    H238081   2.634   0.727  11.608 -0.5024 -0.6965 -0.4957
 5556TIP3   OH238082   6.454   0.612   6.031 -0.0910  0.6656  0.2181
 5556TIP3    H138083   6.488   0.690   6.075  1.1582 -0.9326  2.1474
 5556TIP3    H238084   6.524   0.547   6.039 -1.2132 -0.7525 -1.1196
 5557TIP3   OH238085   1.251   4.334   6.161  0.1317  0.5505 -0.5097
 5557TIP3    H138086   1.273   4.361   6.250 -1.4282  2.8686 -0.7797
 5557TIP3    H238087   1.335   4.333   6.115  0.9076 -0.3697  0.9062
 5558TIP3   OH238088   4.845   5.492  13.871 -0.0820 -0.1298 -0.0972
 5558TIP3    H138089   4.793   5.522  13.797  0.2163 -0.0388 -0.2651
 5558TIP3    H238090   4.799   5.413  13.901 -0.8413  0.4563  0.3250
 5559TIP3   OH238091   6.053   5.048   3.605  0.1010 -0.3123 -0.0526
 5559TIP3    H138092   6.132   5.068   3.656 -0.7274  2.4278  0.2565
 5559TIP3    H238093   5.982   5.087   3.655 -1.3618 -1.9911 -0.7934
 5560TIP3   OH238094   5.501   6.199  11.563 -0.3858 -0.3498  0.3097
 5560TIP3    H138095   5.508   6.129  11.497  1.0368 -0.9217  1.0702
 5560TIP3    H238096   5.547   6.273  11.524  0.9219 -0.8570  0.8861
 5561TIP3   OH238097   3.274   2.334   5.224 -0.0762 -0.2433  0.0637
 5561TIP3    H138098   3.235   2.379   5.300  0.2779  0.1584  0.0089
 5561TIP3    H238099   3.303   2.250   5.259 -1.7557 -0.9055 -0.0753
 5562TIP3   OH238100   4.032   1.349  17.094 -0.9240  0.0741  0.2725
 5562TIP3    H138101   4.090   1.325  17.022 -0.0073  0.0953  0.9927
 5562TIP3    H238102   4.091   1.387  17.160 -1.6667 -0.5838  1.3179
 5563TIP3   OH238103   5.306   5.525   6.432  0.9154 -0.3401 -0.2802
 5563TIP3    H138104   5.325   5.616   6.455  3.9864 -0.9854  0.0202
 5563TIP3    H238105   5.215   5.512   6.456  0.8855  2.2209  1.1114
 5564TIP3   OH238106   3.848   4.818  12.790  0.1804 -0.0879 -0.1073
 5564TIP3    H138107   3.853   4.862  12.875  0.8781  0.5964 -0.5018
 5564TIP3    H238108   3.826   4.727  12.812 -3.0898  0.7980  0.6277
 5565TIP3   OH238109   1.867   5.692  15.718  0.0150  0.0909  0.8671
 5565TIP3    H138110   1.810   5.621  15.688 -0.4279 -0.7892  3.6289
 5565TIP3    H238111   1.807   5.758  15.752  0.5516 -0.5681  3.2190
 5566TIP3   OH238112   5.962   5.876  14.918  0.4114 -0.3584  0.1680
 5566TIP3    H138113   6.048   5.835  14.909 -0.0032 -0.8698 -1.5573
 5566TIP3    H238114   5.940   5.908  14.830 -1.1013 -0.1024  0.6137
 5567TIP3   OH238115   1.013   0.264  16.495 -0.3198  0.6416 -0.3807
 5567TIP3    H138116   1.024   0.200  16.425 -0.0890 -1.4042  1.4731
 5567TIP3    H238117   0.928   0.242  16.534  1.4214 -0.9824  2.6540
 5568TIP3   OH238118   6.227   1.573  15.777  0.5202  0.0148  0.7935
 5568TIP3    H138119   6.160   1.513  15.744 -0.5760 -0.1010  3.1377
 5568TIP3    H238120   6.242   1.635  15.705 -2.3849  0.2628  0.3453
 5569TIP3   OH238121   4.183   5.322  13.097 -0.0646 -0.7258 -0.2650
 5569TIP3    H138122   4.201   5.312  13.004 -0.1985  0.2939 -0.4047
 5569TIP3    H238123   4.088   5.311  13.105 -0.3163  1.0559 -0.5237
 5570TIP3   OH238124   3.477   1.439   2.316 -0.6458 -0.1063 -0.1061
 5570TIP3    H138125   3.468   1.484   2.400 -0.1132  2.3761 -1.3164
 5570TIP3    H238126   3.567   1.459   2.289 -0.8363 -0.8443 -1.2952
 5571TIP3   OH238127   6.449   4.796   4.970  0.0436  0.5786  0.1226
 5571TIP3    H138128   6.400   4.815   5.050  0.9343  1.1008  0.5453
 5571TIP3    H238129   6.539   4.786   4.999  0.3306  0.5241 -0.7848
 5572TIP3   OH238130   4.010   1.348  14.271  0.0870 -0.0492 -0.2537
 5572TIP3    H138131   4.099   1.383  14.280  0.3278 -0.5131 -0.8197
 5572TIP3    H238132   3.960   1.418  14.229  0.1594  0.2494  0.1561
 5573TIP3   OH238133   0.632   2.481  16.750  0.2337 -0.4505  0.1402
 5573TIP3    H138134   0.610   2.567  16.785  0.9456 -0.4315  0.5359
 5573TIP3    H238135   0.564   2.423  16.786  0.9249 -0.4198  1.5032
 5574TIP3   OH238136   0.414   3.937   4.121  0.0933  0.3861  0.5536
 5574TIP3    H138137   0.479   3.883   4.165 -1.0788 -2.4363 -1.0507
 5574TIP3    H238138   0.411   3.904   4.031 -1.7060  2.1783 -0.1120
 5575TIP3   OH238139   5.927   5.976   2.468 -0.0563  0.0959  0.2567
 5575TIP3    H138140   5.933   6.067   2.440  0.7330 -0.3325 -1.0429
 5575TIP3    H238141   6.018   5.949   2.481 -0.3876  0.1465  2.8615
 5576TIP3   OH238142   0.294   0.815  13.470 -0.3320  0.8260  0.2963
 5576TIP3    H138143   0.349   0.846  13.541  1.0750 -0.5966 -0.1380
 5576TIP3    H238144   0.309   0.878  13.399 -0.0784  1.0405  0.5382
 5577TIP3   OH238145   4.613   6.744  10.878 -0.5346 -0.3725 -0.0526
 5577TIP3    H138146   4.524   6.770  10.898 -0.5486  0.7560 -1.4583
 5577TIP3    H238147   4.663   6.766  10.956 -1.3244 -0.1615  0.3972
 5578TIP3   OH238148   0.619   3.725  12.953 -0.3112  0.0237 -0.6346
 5578TIP3    H138149   0.573   3.665  13.013 -1.8563  2.1761  0.4236
 5578TIP3    H238150   0.695   3.676  12.924 -1.1620 -2.2082  0.7289
 5579TIP3   OH238151   1.336   1.380   5.072  0.4205 -0.6942 -0.0820
 5579TIP3    H138152   1.413   1.404   5.020 -0.5941  2.0234 -0.4088
 5579TIP3    H238153   1.316   1.459   5.122 -2.9099 -0.8993 -0.9669
 5580TIP3   OH238154   4.685   6.278  15.261  0.2157  0.1134 -0.0534
 5580TIP3    H138155   4.662   6.194  15.221 -0.0365 -0.2874  0.9322
 5580TIP3    H238156   4.754   6.313  15.204 -1.8278  0.6895 -2.2401
 5581TIP3   OH238157   4.851   5.219  12.598  0.2207 -0.2354  0.1024
 5581TIP3    H138158   4.801   5.178  12.527  0.8276 -0.4581 -0.2044
 5581TIP3    H238159   4.813   5.183  12.678 -2.5926  2.4207  0.0553
 5582TIP3   OH238160   6.480   0.036  15.472 -0.2384  0.2007  0.7341
 5582TIP3    H138161   6.427  -0.017  15.413 -0.5848  0.6692  0.6168
 5582TIP3    H238162   6.510   0.110  15.419  0.7591 -0.2018  0.7345
 5583TIP3   OH238163   3.827   2.639  13.826 -0.5394 -1.0048 -0.7081
 5583TIP3    H138164   3.742   2.613  13.791 -1.4480  0.1128  0.5991
 5583TIP3    H238165   3.851   2.568  13.885 -1.7469 -0.2053  0.7925
 5584TIP3   OH238166   4.211   0.116   5.732  0.3845 -0.0795  0.1672
 5584TIP3    H138167   4.293   0.162   5.749 -0.0604  1.1076 -0.8831
 5584TIP3    H238168   4.146   0.162   5.786  0.0542  0.1479 -0.4225
 5585TIP3   OH238169   0.658   5.840  14.726  0.4459  0.7572  0.1015
 5585TIP3    H138170   0.709   5.790  14.791  0.2029  1.2326  0.6648
 5585TIP3    H238171   0.574   5.794  14.721  0.3609  0.8832  0.3392
 5586TIP3   OH238172   6.595   3.658  11.489  0.8378 -0.7130 -1.0735
 5586TIP3    H138173   6.665   3.719  11.514 -0.0799  0.2541 -0.8252
 5586TIP3    H238174   6.588   3.668  11.394  1.5161 -1.3393 -1.1930
 5587TIP3   OH238175   0.843   5.153  11.556 -0.7508  0.2854  0.7592
 5587TIP3    H138176   0.921   5.186  11.601  0.5758 -0.0378 -1.1954
 5587TIP3    H238177   0.847   5.058  11.569 -0.6213  0.2395  0.4200
 5588TIP3   OH238178   2.851   1.898   2.010  0.5785  0.5510 -0.3077
 5588TIP3    H138179   2.918   1.910   2.077 -1.4547  0.2580  1.8469
 5588TIP3    H238180   2.879   1.820   1.961  1.1079 -0.3581  1.4305
 5589TIP3   OH238181   2.526   1.414  14.686  0.0261  0.3460 -0.4024
 5589TIP3    H138182   2.500   1.324  14.664  0.0102 -0.0697  1.2409
 5589TIP3    H238183   2.622   1.413  14.678 -0.0355  0.4221 -1.2133
 5590TIP3   OH238184   0.572   1.462  11.025 -0.3939  0.6015  0.2354
 5590TIP3    H138185   0.664   1.445  11.004 -0.3357 -0.3494  1.2009
 5590TIP3    H238186   0.549   1.539  10.973  1.3715  1.7366  1.0705
 5591TIP3   OH238187   5.422   3.818   3.477 -0.3282  0.1820 -0.2777
 5591TIP3    H138188   5.414   3.895   3.420  0.5209  0.1881 -0.3941
 5591TIP3    H238189   5.332   3.790   3.492 -0.6890  1.5306  0.2074
 5592TIP3   OH238190   2.029   1.711   1.001 -0.3039  0.2270 -0.2821
 5592TIP3    H138191   2.101   1.727   0.940  1.2215  0.0322  1.4214
 5592TIP3    H238192   2.001   1.622   0.981 -0.3780  0.4545 -1.2498
 5593TIP3   OH238193   1.919   3.667  12.612 -0.2593  0.3262  0.5023
 5593TIP3    H138194   1.844   3.614  12.641  0.2991 -0.7729 -0.0256
 5593TIP3    H238195   1.992   3.605  12.611  0.3568  1.0646 -0.3697
 5594TIP3   OH238196   5.168   4.229   1.342  0.6409  1.0347  0.1648
 5594TIP3    H138197   5.245   4.241   1.287  0.0244 -0.3851 -1.0473
 5594TIP3    H238198   5.101   4.285   1.303  0.2425  0.1266 -0.4702
 5595TIP3   OH238199   2.332   0.011  14.893  0.8475  0.0490  0.4710
 5595TIP3    H138200   2.246   0.034  14.929 -0.7799 -0.9890 -2.5344
 5595TIP3    H238201   2.362  -0.062  14.946 -1.2884 -1.1807  0.0520
 5596TIP3   OH238202   0.343   4.950  16.168 -0.2752  0.7981 -0.1203
 5596TIP3    H138203   0.414   5.012  16.188 -0.1412  1.2394 -1.9042
 5596TIP3    H238204   0.281   5.001  16.117 -1.2973  0.0785  0.3980
 5597TIP3   OH238205   4.293   4.779   4.176 -0.2747 -0.3304 -0.2666
 5597TIP3    H138206   4.258   4.866   4.156 -0.8778  0.0846  2.4838
 5597TIP3    H238207   4.388   4.792   4.182 -0.4649  0.3865  1.3074
 5598TIP3   OH238208   2.853   0.543   2.727 -0.4615 -0.4841 -0.2266
 5598TIP3    H138209   2.833   0.614   2.788 -0.5531 -1.4441  0.8733
 5598TIP3    H238210   2.776   0.538   2.671  0.5717  1.9511 -1.9748
 5599TIP3   OH238211   0.928   1.512   6.361  0.7608 -0.1436 -0.3883
 5599TIP3    H138212   1.018   1.532   6.386  0.2352  2.3114 -0.3553
 5599TIP3    H238213   0.875   1.547   6.433 -0.4085  1.4283 -1.9780
 5600TIP3   OH238214   3.802   3.858  14.430 -0.1319  0.1310 -0.3751
 5600TIP3    H138215   3.898   3.851  14.427 -0.0033  1.3473  0.5810
 5600TIP3    H238216   3.784   3.946  14.397 -1.0319 -0.6305 -1.9981
 5601TIP3   OH238217   1.247   0.691   4.632 -0.4155 -0.3508  0.3251
 5601TIP3    H138218   1.196   0.771   4.646 -0.0974 -0.4189  1.9929
 5601TIP3    H238219   1.246   0.646   4.716  1.3516 -0.9559  0.0573
 5602TIP3   OH238220   5.115   1.920   4.773 -0.1626  0.0922 -0.1917
 5602TIP3    H138221   5.067   1.855   4.724  0.3846  0.7938 -1.6855
 5602TIP3    H238222   5.207   1.901   4.755  0.0931 -0.2419  1.3508
 5603TIP3   OH238223   3.987   5.310   3.085 -0.4439  0.4381  0.2208
 5603TIP3    H138224   3.986   5.221   3.120 -1.3001 -0.3449 -1.6823
 5603TIP3    H238225   4.049   5.306   3.011 -0.2392  1.5069  0.3186
 5604TIP3   OH238226   0.734   1.130  16.763 -0.2856  0.4106 -0.0674
 5604TIP3    H138227   0.802   1.064  16.770 -0.9258 -0.1718  0.8002
 5604TIP3    H238228   0.745   1.168  16.676  1.3895  0.5989  0.2212
 5605TIP3   OH238229   1.710   4.491  16.565  0.3962  0.2492 -1.0195
 5605TIP3    H138230   1.704   4.402  16.601 -0.9685  0.6351 -0.2572
 5605TIP3    H238231   1.766   4.537  16.627 -0.5631  0.4520 -0.2752
 5606TIP3   OH238232   0.998   3.869   2.296  0.2671 -0.8550  0.3339
 5606TIP3    H138233   0.957   3.857   2.382  0.7841  0.0817  0.7196
 5606TIP3    H238234   1.019   3.780   2.267 -0.0543 -1.1914  1.1028
 5607TIP3   OH238235   1.662   5.213  17.076 -0.3185  0.6335  0.3319
 5607TIP3    H138236   1.747   5.226  17.118  1.1980 -2.0429 -1.6868
 5607TIP3    H238237   1.613   5.293  17.094  2.1320  1.6773  2.6815
 5608TIP3   OH238238   1.714   1.313  13.284 -0.4636  0.2184  0.2555
 5608TIP3    H138239   1.681   1.281  13.200 -1.2889  0.5142  0.4636
 5608TIP3    H238240   1.809   1.320  13.272 -0.8149  2.3895 -1.3578
 5609TIP3   OH238241   0.104   4.760  15.824 -0.6537 -0.0406  0.3035
 5609TIP3    H138242   0.139   4.754  15.735 -1.6548 -0.0997 -0.0979
 5609TIP3    H238243   0.018   4.800  15.813  0.3334  2.5218  1.5492
 5610TIP3   OH238244   2.724   2.076   4.411  0.3700 -0.7473 -0.3639
 5610TIP3    H138245   2.737   2.002   4.352  0.9686 -2.3094  1.6698
 5610TIP3    H238246   2.812   2.113   4.423  0.1412  0.0224 -1.0168
 5611TIP3   OH238247   4.253   5.905  14.304  0.3951 -0.1511 -0.3490
 5611TIP3    H138248   4.246   5.933  14.212  1.1419  0.2702 -0.2777
 5611TIP3    H238249   4.290   5.980  14.349 -1.2032  0.1227  0.5577
 5612TIP3   OH238250   5.162   3.479   0.925 -1.0932  0.4427  0.0385
 5612TIP3    H138251   5.161   3.391   0.965  2.1561  0.9363  1.3675
 5612TIP3    H238252   5.093   3.527   0.971 -0.3893 -0.3410  1.9659
 5613TIP3   OH238253   2.869   2.483   2.288 -0.1791  0.4468 -0.5756
 5613TIP3    H138254   2.889   2.548   2.221 -1.4401  0.3375 -1.0766
 5613TIP3    H238255   2.822   2.532   2.355 -1.6702 -0.0408 -1.2357
 5614TIP3   OH238256   5.716   2.814  12.339 -0.3302 -0.6166 -0.0310
 5614TIP3    H138257   5.768   2.742  12.376  1.5601  0.7824  0.0996
 5614TIP3    H238258   5.707   2.791  12.247  0.6052 -0.8384 -0.0764
 5615TIP3   OH238259   1.442   4.805  12.862 -0.3266 -0.1597 -0.0509
 5615TIP3    H138260   1.369   4.743  12.867  1.7051 -2.7790 -2.0183
 5615TIP3    H238261   1.500   4.781  12.934 -0.1867  0.3141 -0.0047
 5616TIP3   OH238262   5.662   6.333   3.315 -0.2118 -0.8244  0.6828
 5616TIP3    H138263   5.702   6.247   3.305  0.0202 -0.6616  0.2138
 5616TIP3    H238264   5.618   6.350   3.232 -0.0776 -0.4045  0.6914
 5617TIP3   OH238265   4.455   4.783  16.618 -0.0813  0.2025 -0.2220
 5617TIP3    H138266   4.398   4.747  16.686 -1.6560  0.5245 -1.3585
 5617TIP3    H238267   4.441   4.727  16.542 -0.1442  1.3080 -1.0294
 5618TIP3   OH238268   0.675   2.254  15.932  0.2883  0.1548  0.6618
 5618TIP3    H138269   0.646   2.226  16.019  1.7752  0.5233  1.2880
 5618TIP3    H238270   0.766   2.227  15.927  0.0737 -0.2992 -0.9899
 5619TIP3   OH238271   6.057   1.652  15.999  0.2087  1.2684  0.2719
 5619TIP3    H138272   6.111   1.625  15.925  0.6484 -0.6530  1.2594
 5619TIP3    H238273   6.118   1.696  16.058  0.2288  1.1755  0.3197
 5620TIP3   OH238274   0.585   0.675   2.672  0.7506 -0.3082  0.0556
 5620TIP3    H138275   0.640   0.605   2.708  0.7527 -0.3032  0.0623
 5620TIP3    H238276   0.644   0.750   2.664  1.1875 -0.8088 -1.6042
 5621TIP3   OH238277   4.724   4.320   4.394  0.1149  0.3661 -0.2512
 5621TIP3    H138278   4.734   4.226   4.377  0.1545  0.0615  1.3300
 5621TIP3    H238279   4.751   4.330   4.485  0.1310  1.9237 -0.4213
 5622TIP3   OH238280   5.846   4.013   4.888 -1.0431 -0.4086 -0.1108
 5622TIP3    H138281   5.870   3.950   4.820  1.7573  1.7757 -1.2744
 5622TIP3    H238282   5.829   4.095   4.841 -1.0239  0.6202  1.6135
 5623TIP3   OH238283   3.811   6.575   6.026 -0.4810 -0.4869  0.1680
 5623TIP3    H138284   3.900   6.539   6.023 -0.0070  0.4135  2.3820
 5623TIP3    H238285   3.806   6.632   5.949  0.7434 -0.8403 -0.1883
 5624TIP3   OH238286   4.196   1.827  13.924  0.1593 -0.5019  0.2504
 5624TIP3    H138287   4.291   1.829  13.934  0.6293 -0.7369 -3.6348
 5624TIP3    H238288   4.167   1.910  13.963  2.2903  1.0291 -1.2762
 5625TIP3   OH238289   0.600   0.574   3.473  0.4629 -0.3879  0.0236
 5625TIP3    H138290   0.686   0.567   3.433 -0.1450 -1.0231 -1.2040
 5625TIP3    H238291   0.538   0.562   3.400 -0.6622  1.0763  0.7004
 5626TIP3   OH238292   0.451   1.808   5.008  0.4360 -0.8364  0.3907
 5626TIP3    H138293   0.505   1.757   5.069  1.2204 -0.4650  0.0213
 5626TIP3    H238294   0.467   1.767   4.923  0.6572 -0.3023  0.1744
 5627TIP3   OH238295   0.595   2.459   4.214 -0.7396  0.7107 -0.4496
 5627TIP3    H138296   0.606   2.423   4.302  0.1248  2.1566  0.0485
 5627TIP3    H238297   0.512   2.423   4.183 -0.1883 -1.2362  0.2520
 5628TIP3   OH238298   2.849   3.623  16.483 -1.1245 -0.0281 -0.7582
 5628TIP3    H138299   2.903   3.598  16.558 -0.3166 -0.7741 -1.5723
 5628TIP3    H238300   2.852   3.719  16.482  0.2347 -0.0567 -0.8107
 5629TIP3   OH238301   4.699   0.251   6.230  0.3059 -0.3157  0.0539
 5629TIP3    H138302   4.740   0.305   6.297 -0.5098  2.1646 -1.4072
 5629TIP3    H238303   4.771   0.197   6.196  1.5302  1.1462  0.2876
 5630TIP3   OH238304   3.699   2.418   3.591  0.0604 -0.3367 -0.1250
 5630TIP3    H138305   3.743   2.405   3.676  0.0122 -0.3309 -0.0992
 5630TIP3    H238306   3.622   2.470   3.612 -0.4890 -1.1883 -0.0206
 5631TIP3   OH238307   4.115   3.183   3.350  0.2165  0.2131  0.3202
 5631TIP3    H138308   4.057   3.257   3.334 -1.1210 -0.6694  1.0469
 5631TIP3    H238309   4.132   3.147   3.263  1.0142  1.4617 -0.0561
 5632TIP3   OH238310   5.900   6.530   5.090  0.0575  0.2993  0.1871
 5632TIP3    H138311   5.983   6.518   5.135  0.0860 -3.0506 -0.6672
 5632TIP3    H238312   5.838   6.477   5.139 -1.2159  1.3447 -0.2526
 5633TIP3   OH238313   6.679   0.311   0.324  0.2367 -0.5685 -0.4388
 5633TIP3    H138314   6.694   0.312   0.230 -2.3803 -0.1323 -0.8675
 5633TIP3    H238315   6.617   0.240   0.339 -0.3204  0.1512  0.7941
 5634TIP3   OH238316   3.448   2.481   0.811  0.9694 -0.7686 -0.1285
 5634TIP3    H138317   3.463   2.413   0.746  0.4815  0.2326 -1.3129
 5634TIP3    H238318   3.449   2.563   0.761  2.0054  0.1399  1.3181
 5635TIP3   OH238319   2.894   2.276   3.030 -0.0458 -0.6718 -0.0595
 5635TIP3    H138320   2.938   2.359   3.047 -1.5028 -0.1713  1.3953
 5635TIP3    H238321   2.955   2.209   3.061  0.1658 -0.0364  0.9151
 5636TIP3   OH238322   1.727   3.356   5.271  0.6049  0.2405  0.0097
 5636TIP3    H138323   1.633   3.371   5.275  0.7516  0.9644  0.8049
 5636TIP3    H238324   1.740   3.275   5.321  0.4613  0.3960  0.2994
 5637TIP3   OH238325   6.363   5.195   0.045 -0.4303  0.0837  0.3293
 5637TIP3    H138326   6.324   5.198   0.132 -0.0264 -0.4375  0.5330
 5637TIP3    H238327   6.377   5.287   0.021 -2.9055  0.3393 -0.2722
 5638TIP3   OH238328   4.600   4.703  10.753 -0.0536 -0.4266  0.1912
 5638TIP3    H138329   4.555   4.626  10.786  1.6376 -1.8394 -0.7023
 5638TIP3    H238330   4.679   4.669  10.711  0.9954  1.8275  0.2206
 5639TIP3   OH238331   3.565   0.315   5.450 -0.1136 -0.0139  0.5486
 5639TIP3    H138332   3.652   0.279   5.434  0.1027  1.0593 -0.8032
 5639TIP3    H238333   3.528   0.327   5.362 -0.4606  2.3145  0.9791
 5640TIP3   OH238334   6.561   0.593   0.750 -0.2800 -0.0669  0.8291
 5640TIP3    H138335   6.645   0.554   0.729  0.4180  0.2371  2.9214
 5640TIP3    H238336   6.505   0.571   0.676  0.5685 -3.4862  1.1304
 5641TIP3   OH238337   0.856   4.268  16.252 -0.1460  0.4205  0.1904
 5641TIP3    H138338   0.871   4.214  16.174 -3.4359 -1.2858  0.6435
 5641TIP3    H238339   0.812   4.346  16.219 -1.0631 -0.0623  0.2564
 5642TIP3   OH238340   5.502   4.553  12.411  0.1698  0.5802  0.4876
 5642TIP3    H138341   5.473   4.463  12.424  0.6515  0.3867  0.2355
 5642TIP3    H238342   5.515   4.587  12.500  1.5071 -0.0987  0.5641
 5643TIP3   OH238343   5.154   4.850  16.012 -0.1623  0.2364  0.0713
 5643TIP3    H138344   5.108   4.804  15.941  1.6635  0.0441 -1.0444
 5643TIP3    H238345   5.133   4.799  16.090 -0.2155 -1.0365 -0.7400
 5644TIP3   OH238346   3.031   3.535  13.303 -0.0728 -0.0058 -0.0584
 5644TIP3    H138347   3.019   3.513  13.395 -0.5666  0.0376 -0.1097
 5644TIP3    H238348   2.942   3.546  13.269  0.1266  0.9736 -0.2990
 5645TIP3   OH238349   1.179   5.418   0.157  0.6452  0.5326 -0.5432
 5645TIP3    H138350   1.158   5.379   0.242  0.8526  0.5448 -0.4864
 5645TIP3    H238351   1.098   5.460   0.130  0.1494 -0.7243 -1.0351
 5646TIP3   OH238352   5.931   6.184   5.296 -0.7163  0.1683  0.4766
 5646TIP3    H138353   5.984   6.262   5.279 -0.3742 -0.0608  0.5090
 5646TIP3    H238354   5.976   6.138   5.367 -0.2678 -0.6872 -0.3599
 5647TIP3   OH238355   1.337   1.722  14.810 -0.3293  0.4171  0.5149
 5647TIP3    H138356   1.431   1.732  14.825  0.0278  0.1563 -1.4268
 5647TIP3    H238357   1.303   1.686  14.892  1.4123 -0.3603  0.9148
 5648TIP3   OH238358   3.282   2.505   5.464  0.2106 -0.3244 -0.8394
 5648TIP3    H138359   3.204   2.553   5.436  0.5469  0.9226  0.2809
 5648TIP3    H238360   3.351   2.571   5.466  0.5873 -0.7406  1.1713
 5649TIP3   OH238361   2.950   3.143  11.055  0.4445 -0.0631 -0.0972
 5649TIP3    H138362   2.998   3.068  11.089  0.9438  0.2011 -0.2088
 5649TIP3    H238363   2.864   3.108  11.030  0.2151 -0.3322  1.0495
 5650TIP3   OH238364   3.976   2.202   2.673  0.3458  0.2458  0.2876
 5650TIP3    H138365   4.012   2.247   2.750  0.3012  1.0262 -0.1520
 5650TIP3    H238366   3.901   2.153   2.707  1.8998 -1.5471  1.2573
 5651TIP3   OH238367   5.935   2.244  16.088 -0.2552 -0.4238 -0.1646
 5651TIP3    H138368   6.005   2.290  16.134  0.4571 -0.9477 -0.7235
 5651TIP3    H238369   5.862   2.307  16.086 -0.4626 -0.5545  2.0653
 5652TIP3   OH238370   4.492   2.675  15.712 -0.1234  0.4350 -0.4796
 5652TIP3    H138371   4.532   2.705  15.631  0.4220 -0.4486 -0.5373
 5652TIP3    H238372   4.410   2.634  15.685  0.2774 -0.2702 -0.6280
 5653TIP3   OH238373   0.897   1.501  14.242  0.3538 -0.2368 -0.4713
 5653TIP3    H138374   0.807   1.473  14.261 -0.0920  0.6693 -1.2366
 5653TIP3    H238375   0.901   1.503  14.146  1.8348 -2.3506 -0.4810
 5654TIP3   OH238376   4.482   5.997   0.471 -0.2348 -0.8379  0.1426
 5654TIP3    H138377   4.574   5.970   0.461 -0.4420 -2.1328  1.5117
 5654TIP3    H238378   4.476   6.030   0.560 -1.1035 -0.8003  0.0743
 5655TIP3   OH238379   0.213   4.790  13.469  0.6122  0.2445  0.1509
 5655TIP3    H138380   0.145   4.857  13.465 -0.3695 -0.7553  0.0930
 5655TIP3    H238381   0.269   4.817  13.541 -0.3756  0.5672  0.7968
 5656TIP3   OH238382   4.959   5.293   0.321  0.3053 -0.3260 -0.6520
 5656TIP3    H138383   4.921   5.208   0.345 -0.4240  0.5864  1.6332
 5656TIP3    H238384   4.892   5.357   0.346  1.6858  1.0498 -0.3910
 5657TIP3   OH238385   0.678   1.945  13.496  0.2376  0.1162  0.3781
 5657TIP3    H138386   0.656   1.979  13.410  0.8352  1.5030  0.7651
 5657TIP3    H238387   0.697   1.852  13.482 -1.0969  0.0063 -0.7355
 5658TIP3   OH238388   5.083   0.373  14.783 -0.3251 -0.1553  0.0842
 5658TIP3    H138389   4.994   0.360  14.751 -0.2258 -1.0333  0.1565
 5658TIP3    H238390   5.139   0.347  14.710 -0.1140 -0.6865  0.4339
 5659TIP3   OH238391   2.452   4.926   2.649 -0.3308  0.0270  0.3035
 5659TIP3    H138392   2.430   5.017   2.665  0.7972  0.6593 -1.6178
 5659TIP3    H238393   2.368   4.881   2.645 -0.9125  1.0803  0.5900
 5660TIP3   OH238394   1.371   3.356  17.100 -0.3613 -0.0553  0.4167
 5660TIP3    H138395   1.283   3.382  17.128 -0.8092 -0.9225 -0.1478
 5660TIP3    H238396   1.393   3.282  17.156 -0.1695 -0.1140  0.2631
 5661TIP3   OH238397   3.810   1.726  12.682 -0.5536 -0.6842  0.2019
 5661TIP3    H138398   3.854   1.730  12.597 -0.3208 -1.2387  0.2961
 5661TIP3    H238399   3.809   1.633  12.704  0.3944 -0.4303  1.3319
 5662TIP3   OH238400   6.269   1.166   2.827  0.3024 -0.1676  0.4844
 5662TIP3    H138401   6.351   1.202   2.859 -0.4873  0.8962  1.3459
 5662TIP3    H238402   6.225   1.134   2.906 -0.2501 -0.4497  0.0644
 5663TIP3   OH238403   5.894   3.856   2.524  0.3210  0.4483 -0.3154
 5663TIP3    H138404   5.963   3.915   2.556 -0.3255  1.8287 -1.4076
 5663TIP3    H238405   5.931   3.819   2.444 -0.2395  1.2683 -0.9573
 5664TIP3   OH238406   5.458   5.943   3.964 -0.6727  0.2414 -0.5041
 5664TIP3    H138407   5.418   5.924   3.879  0.7631  1.1876 -1.4300
 5664TIP3    H238408   5.535   5.887   3.967 -0.7337  0.1964  0.1836
 5665TIP3   OH238409   5.234   0.788  16.300  0.1055  0.3586  0.4953
 5665TIP3    H138410   5.284   0.729  16.244  0.8707  0.6093  0.8986
 5665TIP3    H238411   5.258   0.876  16.269 -1.6361  0.4548 -0.6223
 5666TIP3   OH238412   5.933   5.999   4.112 -0.5851  0.1225  0.1881
 5666TIP3    H138413   5.990   6.007   4.036 -1.6474 -0.3655 -0.6613
 5666TIP3    H238414   5.924   5.904   4.126 -0.3437  0.2095  0.9572
 5667TIP3   OH238415   5.918   1.255  13.130 -0.1381 -0.1382  0.6477
 5667TIP3    H138416   5.929   1.175  13.079  0.7771 -1.7881  3.3851
 5667TIP3    H238417   5.862   1.231  13.203 -1.8612  2.3353  0.2301
 5668TIP3   OH238418   6.100   6.092   3.090  0.3513 -0.4867  0.2493
 5668TIP3    H138419   6.137   6.140   3.016  1.7177 -1.9449 -0.0384
 5668TIP3    H238420   6.020   6.139   3.111 -0.5186 -0.5250 -2.7151
 5669TIP3   OH238421   6.510   2.677  12.376 -0.0107  0.4456 -0.5149
 5669TIP3    H138422   6.571   2.612  12.339 -0.8679 -0.6026 -0.1118
 5669TIP3    H238423   6.548   2.761  12.352  1.6742 -0.1887 -0.1702
 5670TIP3   OH238424   4.861   6.742  15.588 -0.2651 -0.4918  0.4622
 5670TIP3    H138425   4.773   6.724  15.555 -0.1076 -0.5161  0.0598
 5670TIP3    H238426   4.851   6.824  15.636 -0.3764 -0.1563 -0.1260
 5671TIP3   OH238427   2.522   1.746   1.532  0.1934 -0.4099  0.3385
 5671TIP3    H138428   2.529   1.743   1.627  1.7105  0.5585  0.2621
 5671TIP3    H238429   2.434   1.783   1.516  0.0852 -0.2125  1.3564
 5672TIP3   OH238430   3.003   2.482   5.548  0.9910  0.0640  0.0466
 5672TIP3    H138431   2.940   2.433   5.601  0.1108  0.3441 -0.7241
 5672TIP3    H238432   3.032   2.419   5.482  0.3318  0.3929 -0.5610
 5673TIP3   OH238433   2.928   4.300  14.654 -0.3596  0.9348 -0.1662
 5673TIP3    H138434   2.954   4.389  14.635 -0.2511  0.4465 -2.3816
 5673TIP3    H238435   2.833   4.299  14.642 -0.6447  1.2035  1.8119
 5674TIP3   OH238436   1.271   2.667   3.662  0.6165 -0.0453  0.0037
 5674TIP3    H138437   1.176   2.664   3.677  0.6504 -0.2811  0.1781
 5674TIP3    H238438   1.306   2.598   3.719  0.6525 -1.6594 -1.9310
 5675TIP3   OH238439   4.722   5.021  11.491 -0.4243 -0.0181 -0.3256
 5675TIP3    H138440   4.792   5.039  11.554  0.7179 -0.3319 -1.4890
 5675TIP3    H238441   4.715   5.101  11.439 -0.6564 -0.1226 -0.4573
 5676TIP3   OH238442   1.482   5.140   0.186  0.4852 -0.4018 -0.4102
 5676TIP3    H138443   1.496   5.205   0.118  2.1481 -0.7581 -0.4308
 5676TIP3    H238444   1.398   5.101   0.166 -0.9220  2.2888  0.0511
 5677TIP3   OH238445   4.147   6.341   0.028 -0.1605  0.3143  0.2281
 5677TIP3    H138446   4.165   6.382  -0.056 -1.3713  1.6262  0.5896
 5677TIP3    H238447   4.223   6.361   0.082  1.4521 -2.0890 -1.1008
 5678TIP3   OH238448   2.478   0.192  11.505  0.1733 -0.0933  0.3449
 5678TIP3    H138449   2.565   0.217  11.536  0.9954 -2.5362  0.1159
 5678TIP3    H238450   2.481   0.207  11.410 -0.5348  2.2651  0.6821
 5679TIP3   OH238451   6.431   0.282   5.642 -0.2433  0.4727 -0.3326
 5679TIP3    H138452   6.461   0.235   5.719  1.2248 -1.6838 -2.1575
 5679TIP3    H238453   6.462   0.372   5.656  1.5329 -0.2884  0.7790
 5680TIP3   OH238454   4.407   5.258  14.472 -0.1306  0.0969 -0.2544
 5680TIP3    H138455   4.350   5.192  14.511  0.2408  0.8072  1.5236
 5680TIP3    H238456   4.406   5.331  14.533  0.8609  1.0512 -1.3338
 5681TIP3   OH238457   6.493   3.858   0.559 -0.7215  0.3949  0.4233
 5681TIP3    H138458   6.535   3.805   0.626 -1.9295  1.2648  1.8841
 5681TIP3    H238459   6.401   3.860   0.584 -1.1241  1.0756 -1.0437
 5682TIP3   OH238460   3.587   2.306   5.697  0.2443 -0.2384  0.3340
 5682TIP3    H138461   3.679   2.291   5.719  0.9204  1.1319 -1.3885
 5682TIP3    H238462   3.549   2.343   5.776  0.6664 -2.7073  1.7251
 5683TIP3   OH238463   3.150   5.021  11.599 -0.7331 -0.3178 -0.3109
 5683TIP3    H138464   3.107   5.051  11.679  0.2009 -0.0116  0.0936
 5683TIP3    H238465   3.093   5.052  11.529 -2.3579 -1.9087  0.2698
 5684TIP3   OH238466   5.326   0.276   3.930 -0.0246 -0.4552 -0.0459
 5684TIP3    H138467   5.398   0.216   3.948 -1.3611 -1.6224  1.6540
 5684TIP3    H238468   5.266   0.225   3.875  0.4244  0.5176 -1.4731
 5685TIP3   OH238469   4.847   0.833  15.925  0.3530 -0.6681  0.2517
 5685TIP3    H138470   4.861   0.798  16.013 -1.5129 -0.1192  0.7826
 5685TIP3    H238471   4.789   0.770  15.883 -0.2459  0.0201  0.0390
 5686TIP3   OH238472   5.125   0.941  13.594 -0.4221  0.3450  0.3639
 5686TIP3    H138473   5.086   0.955  13.508  0.4110 -1.9648 -0.4207
 5686TIP3    H238474   5.100   1.018  13.645 -1.6893  1.2953 -1.6633
 5687TIP3   OH238475   4.811   0.030  11.414 -0.2265 -0.0812  0.0062
 5687TIP3    H138476   4.793   0.106  11.469 -0.0490 -1.0420  1.4086
 5687TIP3    H238477   4.800  -0.045  11.472  3.8568 -0.9452 -0.1707
 5688TIP3   OH238478   0.991   6.243   6.322  0.7284 -0.6314  0.4387
 5688TIP3    H138479   1.004   6.156   6.283  1.9751 -0.3441  0.1790
 5688TIP3    H238480   0.909   6.236   6.370  0.5213 -1.7844 -0.0659
 5689TIP3   OH238481   5.409   0.078   2.772 -0.2926  0.5246 -0.8244
 5689TIP3    H138482   5.487   0.117   2.811 -0.5818  2.1887 -1.8751
 5689TIP3    H238483   5.361   0.042   2.847  0.0238  2.1004  0.1632
 5690TIP3   OH238484   4.857   3.085   5.259  0.0783  0.3712  0.3065
 5690TIP3    H138485   4.807   3.156   5.219 -0.9032 -1.3685 -1.6429
 5690TIP3    H238486   4.793   3.015   5.270  1.3960 -0.7819  0.6806
 5691TIP3   OH238487   1.645   4.247  12.823 -0.1281  0.3849  0.4523
 5691TIP3    H138488   1.690   4.301  12.888  2.2896 -1.5217  0.4264
 5691TIP3    H238489   1.656   4.158  12.855  2.1946 -0.7150 -3.1594
 5692TIP3   OH238490   3.580   5.839  14.675  0.1295  0.4905  0.4352
 5692TIP3    H138491   3.620   5.805  14.754  1.1517  0.2529 -0.1776
 5692TIP3    H238492   3.615   5.785  14.604 -0.9447  0.5482 -0.1621
 5693TIP3   OH238493   0.168   0.856  13.112  0.4577 -0.1636  0.1627
 5693TIP3    H138494   0.220   0.930  13.143  0.3672 -0.2616  0.5548
 5693TIP3    H238495   0.200   0.781  13.163  1.9247 -0.7812 -1.6368
 5694TIP3   OH238496   6.072   0.367   2.896  0.2977 -0.4200  0.2403
 5694TIP3    H138497   6.059   0.431   2.826 -1.1935 -0.4107  0.5161
 5694TIP3    H238498   6.071   0.282   2.852  1.1127 -0.3283  0.0313
 5695TIP3   OH238499   4.572   0.853  14.028 -0.4145 -0.7247 -0.8112
 5695TIP3    H138500   4.604   0.888  13.944  1.3367  2.0434  0.9004
 5695TIP3    H238501   4.647   0.806  14.064 -0.2030  0.5185  0.4369
 5696TIP3   OH238502   0.084   2.835  16.535 -0.1714 -0.3703 -0.4387
 5696TIP3    H138503   0.035   2.775  16.591 -1.3424  2.2944  1.5155
 5696TIP3    H238504   0.172   2.837  16.573 -0.5939  0.4179  0.4958
 5697TIP3   OH238505   1.043   2.647   5.719 -0.2347 -0.3149  0.4245
 5697TIP3    H138506   1.121   2.607   5.680 -0.1655  0.3308 -0.1021
 5697TIP3    H238507   0.982   2.657   5.647 -0.4018  0.1646  0.6308
 5698TIP3   OH238508   6.140   0.190  11.309  0.0334  0.5034  0.3861
 5698TIP3    H138509   6.219   0.138  11.325  0.4700  1.1911  0.4869
 5698TIP3    H238510   6.090   0.182  11.390 -0.1738 -0.2336  0.1868
 5699TIP3   OH238511   4.077   1.807  13.686  0.4767 -0.3965 -0.0989
 5699TIP3    H138512   4.105   1.840  13.771 -0.7455  1.1814 -0.2789
 5699TIP3    H238513   3.983   1.790  13.697  0.3457 -0.3388 -1.0663
 5700TIP3   OH238514   1.202   4.007   1.663  0.1372  0.3384 -0.0154
 5700TIP3    H138515   1.204   4.008   1.567 -2.1984  2.8426 -0.0758
 5700TIP3    H238516   1.242   4.090   1.688 -0.2002  0.1499  1.1536
 5701TIP3   OH238517   1.758   6.313  12.672  0.1790 -0.5676 -0.7059
 5701TIP3    H138518   1.715   6.238  12.712  1.9315 -1.3824 -0.3167
 5701TIP3    H238519   1.841   6.322  12.718 -0.2296  1.9868 -0.3412
 5702TIP3   OH238520   3.130   2.053  15.239 -0.2029  0.3003 -1.0701
 5702TIP3    H138521   3.105   2.008  15.319  0.3813 -2.0033 -2.1474
 5702TIP3    H238522   3.049   2.058  15.187  0.4054 -2.6220 -2.3940
 5703TIP3   OH238523   3.130   0.268  14.517 -0.4382  0.3441 -0.5211
 5703TIP3    H138524   3.080   0.331  14.465 -0.2907 -0.2190 -1.3620
 5703TIP3    H238525   3.204   0.245  14.462  0.4411  0.7262  0.4872
 5704TIP3   OH238526   1.046   6.653  11.829  0.3664  0.2424 -0.0588
 5704TIP3    H138527   1.056   6.649  11.734 -3.5253 -1.7854 -0.4952
 5704TIP3    H238528   1.057   6.745  11.851  2.6863  0.5380 -2.2669
 5705TIP3   OH238529   5.589   2.189   3.542  0.0218  0.2380 -0.0582
 5705TIP3    H138530   5.513   2.247   3.537 -1.0905 -0.9607  2.2472
 5705TIP3    H238531   5.635   2.204   3.459 -2.1915  1.6924 -1.1011
 5706TIP3   OH238532   0.356   6.653  16.420 -0.6082  0.2352  1.0274
 5706TIP3    H138533   0.414   6.684  16.489 -0.5454  1.5559  0.3904
 5706TIP3    H238534   0.343   6.560  16.440  0.3541  0.3254  2.1313
 5707TIP3   OH238535   0.779   4.897  11.692  0.2398  0.0304  0.2542
 5707TIP3    H138536   0.707   4.835  11.705  1.1914 -1.1041  0.2249
 5707TIP3    H238537   0.756   4.973  11.746 -1.4337  0.0810 -0.5051
 5708TIP3   OH238538   5.600   6.747  15.132  0.1002 -0.0049  0.9858
 5708TIP3    H138539   5.644   6.708  15.208  0.5210  1.8527  1.7172
 5708TIP3    H238540   5.570   6.832  15.163 -0.3283  0.4962 -0.7498
 5709TIP3   OH238541   5.291   1.922   3.427 -0.4872  0.2474 -0.0475
 5709TIP3    H138542   5.378   1.924   3.388 -0.6260  0.7950 -0.3335
 5709TIP3    H238543   5.231   1.911   3.353 -0.8125  2.1747 -0.1070
 5710TIP3   OH238544   5.954   4.561  13.142 -0.6685  0.0593  0.5405
 5710TIP3    H138545   6.043   4.591  13.160 -0.2138 -1.2209  0.5372
 5710TIP3    H238546   5.934   4.501  13.214 -2.3473  1.9726  1.6901
 5711TIP3   OH238547   6.256   3.410   1.274 -0.1641 -0.0475  0.5538
 5711TIP3    H138548   6.349   3.432   1.281 -0.1582  0.0749  0.0596
 5711TIP3    H238549   6.229   3.448   1.191 -0.5218 -0.5808  0.4319
 5712TIP3   OH238550   4.785   5.020  14.995 -0.2179 -0.0377 -0.1855
 5712TIP3    H138551   4.723   5.089  15.019 -0.6283 -0.2313 -0.6883
 5712TIP3    H238552   4.731   4.941  14.985  0.0851 -0.1744 -0.7833
 5713TIP3   OH238553   5.644   2.851  13.827  1.0209  0.0092 -0.1431
 5713TIP3    H138554   5.560   2.883  13.794  0.3279 -1.6324 -0.0442
 5713TIP3    H238555   5.681   2.925  13.875 -0.7028  0.5323  0.4172
 5714TIP3   OH238556   6.034   1.401  13.856 -0.6946  0.0079  0.2111
 5714TIP3    H138557   6.069   1.477  13.903  0.1542 -0.1517 -0.1486
 5714TIP3    H238558   6.024   1.334  13.924  0.5065 -0.2138  0.1748
 5715TIP3   OH238559   4.389   5.355  16.897 -0.0108 -0.2288  0.3449
 5715TIP3    H138560   4.453   5.425  16.886 -0.1873 -0.0853  0.2280
 5715TIP3    H238561   4.378   5.319  16.809 -1.0393  0.5801  0.1353
 5716TIP3   OH238562   4.335   5.335  12.835 -0.4127  0.2246  0.1068
 5716TIP3    H138563   4.352   5.241  12.822 -0.8635  0.2347 -0.6282
 5716TIP3    H238564   4.401   5.363  12.898 -0.5389 -0.6846  0.6684
 5717TIP3   OH238565   3.871   3.334  13.438  0.2655 -0.8785  0.1877
 5717TIP3    H138566   3.794   3.374  13.481 -0.0540  0.2485 -1.3572
 5717TIP3    H238567   3.922   3.297  13.510 -0.1957  1.0431  1.5554
 5718TIP3   OH238568   4.194   3.516  12.823 -0.0828  0.0616 -0.3063
 5718TIP3    H138569   4.280   3.522  12.864 -0.4577  1.0488  0.3328
 5718TIP3    H238570   4.199   3.438  12.768  1.0957 -0.0936  0.0245
 5719TIP3   OH238571   4.328   0.372   3.351 -0.1722  0.1083 -0.3095
 5719TIP3    H138572   4.379   0.419   3.285 -2.2303  1.1923 -1.1428
 5719TIP3    H238573   4.366   0.284   3.352  1.2137  0.6665 -1.4597
 5720TIP3   OH238574   5.104   0.107  13.067  0.1414  0.2419 -0.0010
 5720TIP3    H138575   5.101   0.018  13.034  1.4738 -0.4925  1.7780
 5720TIP3    H238576   5.134   0.099  13.158  1.0171  2.5366 -0.0324
 5721TIP3   OH238577   5.235   6.718  12.641  0.4723  0.1464 -0.2211
 5721TIP3    H138578   5.189   6.658  12.699  0.6954 -2.0700 -2.2654
 5721TIP3    H238579   5.166   6.771  12.601  0.1492  0.2326  0.4463
 5722TIP3   OH238580   4.246   2.954  16.740  0.3283  0.5155 -0.7478
 5722TIP3    H138581   4.262   3.048  16.731  2.2613  0.2334 -0.4910
 5722TIP3    H238582   4.214   2.943  16.830 -0.7790  1.0334 -1.0754
 5723TIP3   OH238583   4.698   1.009  15.604  0.3962 -0.0342  0.4415
 5723TIP3    H138584   4.617   1.027  15.653 -0.3026 -5.4242  1.5423
 5723TIP3    H238585   4.677   1.032  15.513 -3.2627 -3.3315  0.3121
 5724TIP3   OH238586   1.344   2.708  16.327  0.1236 -0.2251  0.0765
 5724TIP3    H138587   1.267   2.742  16.372 -0.4067 -0.2396 -0.8056
 5724TIP3    H238588   1.314   2.626  16.287 -0.0315  0.8684 -2.1289
 5725TIP3   OH238589   2.436   5.764  15.873 -0.0365  0.2431 -0.1872
 5725TIP3    H138590   2.432   5.851  15.913  0.6736  0.2140 -0.0412
 5725TIP3    H238591   2.428   5.780  15.779 -4.5130  0.1060  0.0622
 5726TIP3   OH238592   2.208   2.925   2.680  0.0930 -0.3291  0.3332
 5726TIP3    H138593   2.148   2.998   2.695  0.5192  0.3414 -1.1546
 5726TIP3    H238594   2.241   2.902   2.767  0.0311  1.3043  0.7909
 5727TIP3   OH238595   6.451   0.311  16.912  0.0849  0.5911 -0.7005
 5727TIP3    H138596   6.503   0.232  16.901 -1.1793 -0.8847  3.0387
 5727TIP3    H238597   6.494   0.377  16.858  2.7900 -1.9117 -1.6974
 5728TIP3   OH238598   5.717   4.362  13.647  0.2663 -0.2915 -0.4254
 5728TIP3    H138599   5.700   4.315  13.565 -0.6582  1.4724 -1.2712
 5728TIP3    H238600   5.670   4.444  13.637  2.2692  1.0390  0.8403
 5729TIP3   OH238601   3.796   0.881  12.373  0.0985  0.6426 -0.1695
 5729TIP3    H138602   3.765   0.843  12.455  1.2981  1.4360  0.6691
 5729TIP3    H238603   3.855   0.814  12.338 -1.8833 -0.5339 -1.3847
 5730TIP3   OH238604   2.118   4.141  12.124 -0.0513  0.5487  0.4004
 5730TIP3    H138605   2.088   4.126  12.214 -0.5082  1.4282  0.3950
 5730TIP3    H238606   2.044   4.116  12.069  0.6351 -1.1310  0.1953
 5731TIP3   OH238607   3.923   3.005   5.387 -0.5993  0.0225  0.6469
 5731TIP3    H138608   3.982   2.973   5.318  0.8091  0.1005  1.7832
 5731TIP3    H238609   3.929   3.100   5.382 -2.2528  0.0846 -0.5826
 5732TIP3   OH238610   0.105   5.637  14.332  0.3402  0.0584  0.3565
 5732TIP3    H138611   0.155   5.577  14.386 -0.1553 -1.0701 -0.4076
 5732TIP3    H238612   0.066   5.699  14.394 -1.9642 -2.4714  1.5541
 5733TIP3   OH238613   0.530   4.856  14.609  0.1162 -0.6003  0.3175
 5733TIP3    H138614   0.580   4.870  14.528  0.3507 -2.3238  0.1388
 5733TIP3    H238615   0.502   4.943  14.635  1.6695  0.1989 -0.5814
 5734TIP3   OH238616   1.294   1.203  15.965  0.0466 -0.1923 -0.4237
 5734TIP3    H138617   1.242   1.133  15.925 -0.3948  0.7488 -1.5208
 5734TIP3    H238618   1.385   1.180  15.946  0.0256 -1.4508  0.8613
 5735TIP3   OH238619   0.390   2.040   1.759 -0.0786 -0.3874 -0.6661
 5735TIP3    H138620   0.418   2.035   1.850  0.7416  0.0803 -0.8839
 5735TIP3    H238621   0.470   2.025   1.708 -0.6448 -1.2799 -1.3171
 5736TIP3   OH238622   1.969   1.611  12.252 -0.9134 -0.1471 -0.1226
 5736TIP3    H138623   2.045   1.668  12.264 -0.1263 -1.2703  0.2465
 5736TIP3    H238624   1.971   1.587  12.160 -0.2554 -0.9770  0.1092
 5737TIP3   OH238625   4.175   2.075  10.921 -0.2170  0.2642 -0.1872
 5737TIP3    H138626   4.208   2.032  10.841  1.5534 -1.3641  1.3613
 5737TIP3    H238627   4.111   2.014  10.956 -0.7720  0.8436 -0.1856
 5738TIP3   OH238628   0.870   6.609  12.315  0.4962  0.0179 -0.3996
 5738TIP3    H138629   0.957   6.623  12.278  0.8660 -1.9231 -0.3542
 5738TIP3    H238630   0.887   6.586  12.407 -0.1636  0.9755 -0.0257
 5739TIP3   OH238631   3.891   1.499  13.813  0.6442 -0.4373  0.1271
 5739TIP3    H138632   3.949   1.545  13.874 -2.2314  1.3636  1.6103
 5739TIP3    H238633   3.868   1.566  13.748 -0.6528 -0.8072  0.2025
 5740TIP3   OH238634   5.875   0.425  15.687 -0.2655 -0.1541 -0.2301
 5740TIP3    H138635   5.924   0.399  15.765 -0.7877  1.2402  0.5649
 5740TIP3    H238636   5.790   0.455  15.720 -1.5581 -2.1444 -1.5592
 5741TIP3   OH238637   1.455   5.292   5.684 -0.3359 -0.6385  0.4927
 5741TIP3    H138638   1.545   5.310   5.710 -0.5972  0.8680  0.3921
 5741TIP3    H238639   1.423   5.375   5.649 -1.5081 -1.3803 -0.2205
 5742TIP3   OH238640   2.099   5.959   1.405 -0.8030 -0.3813  0.0054
 5742TIP3    H138641   2.069   5.966   1.315  1.8905 -0.4249 -0.9404
 5742TIP3    H238642   2.059   6.034   1.450 -2.6311 -0.7039 -1.0697
 5743TIP3   OH238643   4.056   4.073  12.573 -0.2414 -0.2585 -0.3592
 5743TIP3    H138644   4.003   4.153  12.573  0.9442  0.5369  0.2986
 5743TIP3    H238645   4.040   4.034  12.487 -2.2196 -0.2478 -0.0081
 5744TIP3   OH238646   4.728   5.551   1.365 -0.4299  0.5724 -0.3783
 5744TIP3    H138647   4.760   5.605   1.437 -0.3641  0.2388 -0.1570
 5744TIP3    H238648   4.704   5.467   1.406  2.6346 -0.7672 -1.2204
 5745TIP3   OH238649   4.569   5.538   2.037 -0.2185  0.4874  0.1483
 5745TIP3    H138650   4.610   5.561   2.120  1.8098 -0.1304 -0.6598
 5745TIP3    H238651   4.604   5.601   1.974 -1.1404  0.4709 -0.3966
 5746TIP3   OH238652   0.072   4.814  15.436 -0.0644  0.5999  0.5053
 5746TIP3    H138653   0.002   4.842  15.495  1.1578  1.3858  1.6034
 5746TIP3    H238654   0.152   4.848  15.476  0.8621  0.4617 -1.1904
 5747TIP3   OH238655   4.168   3.180  11.421 -0.2691  0.3667 -0.5580
 5747TIP3    H138656   4.213   3.214  11.498  2.4127 -1.9985 -1.0193
 5747TIP3    H238657   4.179   3.247  11.355 -0.0845  1.1413  0.2494
 5748TIP3   OH238658   4.809   4.987  13.113 -0.1131 -0.1642  0.0251
 5748TIP3    H138659   4.837   4.897  13.098  0.1102 -0.2508  0.9330
 5748TIP3    H238660   4.759   4.983  13.195 -1.2831  0.2928 -0.6542
 5749TIP3   OH238661   4.926   4.248   5.536 -0.7676  0.2799 -0.7489
 5749TIP3    H138662   4.929   4.154   5.519  0.6757 -0.3515  2.5410
 5749TIP3    H238663   4.872   4.256   5.615  0.8638  1.9431  0.2498
 5750TIP3   OH238664   2.132   0.046  16.690  0.0598 -0.4406  0.2747
 5750TIP3    H138665   2.221   0.026  16.721  0.2157 -0.3042 -0.0860
 5750TIP3    H238666   2.129   0.142  16.686  0.3494 -0.4802 -1.0341
 5751TIP3   OH238667   2.394   5.247   0.553  0.1756 -0.2536 -0.2946
 5751TIP3    H138668   2.438   5.180   0.606 -1.9892 -0.5175  1.2238
 5751TIP3    H238669   2.332   5.199   0.498 -1.1247  0.4519  0.5301
 5752TIP3   OH238670   5.434   4.425   3.359 -0.5162 -0.2365 -0.0087
 5752TIP3    H138671   5.380   4.421   3.280 -0.2805 -0.6865 -0.1463
 5752TIP3    H238672   5.447   4.519   3.374 -2.4045 -0.0731  0.7697
 5753TIP3   OH238673   3.589   4.583  14.888 -0.4914 -0.1500  0.1475
 5753TIP3    H138674   3.573   4.506  14.832  1.0801  0.3061 -0.9855
 5753TIP3    H238675   3.681   4.605  14.872 -0.2789  0.5746  2.2308
 5754TIP3   OH238676   4.758   3.668   6.079  0.0716  0.0682  0.0977
 5754TIP3    H138677   4.728   3.678   6.169 -0.9539 -0.3462 -0.1938
 5754TIP3    H238678   4.678   3.668   6.027  0.5153 -1.7087 -0.6233
 5755TIP3   OH238679   0.815   1.734   2.584  0.1958  0.1622 -0.3929
 5755TIP3    H138680   0.860   1.649   2.577  0.0828 -0.0480  1.2628
 5755TIP3    H238681   0.722   1.712   2.583  0.1721  0.1567  1.1717
 5756TIP3   OH238682   1.804   0.618  11.621  0.1368  0.0933  0.4785
 5756TIP3    H138683   1.838   0.540  11.665 -1.2365 -1.0756 -0.4955
 5756TIP3    H238684   1.882   0.670  11.600  1.1126 -1.3123  0.5830
 5757TIP3   OH238685   1.364   5.732   3.189  0.4652  0.5545  0.4490
 5757TIP3    H138686   1.322   5.647   3.201  1.2147  0.1445  0.2443
 5757TIP3    H238687   1.371   5.769   3.277 -1.0165  0.9745  0.4038
 5758TIP3   OH238688   1.422   6.607   0.074 -0.0677 -0.0269 -0.3057
 5758TIP3    H138689   1.483   6.561   0.131 -1.0846 -0.7568  0.2220
 5758TIP3    H238690   1.405   6.690   0.117  1.9078  0.9393 -1.3446
 5759TIP3   OH238691   3.339   0.113  16.496 -0.3621 -0.4471  0.4562
 5759TIP3    H138692   3.266   0.111  16.557 -1.0367 -1.8947 -0.3747
 5759TIP3    H238693   3.349   0.206  16.474 -1.4070 -0.1466  1.2038
 5760TIP3   OH238694   6.163   3.360   1.514 -0.5756 -0.0588 -0.5673
 5760TIP3    H138695   6.196   3.392   1.430  0.2817 -3.4620 -1.5962
 5760TIP3    H238696   6.217   3.404   1.580 -2.6445  4.2790 -1.5998
 5761TIP3   OH238697   5.792   1.146   2.167  0.2215  0.0602 -0.3216
 5761TIP3    H138698   5.814   1.214   2.104  1.3614 -0.6984 -0.7591
 5761TIP3    H238699   5.801   1.189   2.252  0.1005  0.6896 -0.6258
 5762TIP3   OH238700   5.618   0.210   2.415 -0.0838 -0.0997  0.4015
 5762TIP3    H138701   5.527   0.241   2.416  0.3607  1.2580  0.2152
 5762TIP3    H238702   5.669   0.289   2.395  1.1495 -0.8139  0.7355
 5763TIP3   OH238703   1.586   2.763  11.437  0.0187 -0.0496  0.2552
 5763TIP3    H138704   1.630   2.678  11.436 -0.6098 -0.4053  1.8919
 5763TIP3    H238705   1.621   2.808  11.514  0.3214  1.1779 -0.5696
 5764TIP3   OH238706   5.415   2.970   3.411 -0.0547 -0.1247 -0.1724
 5764TIP3    H138707   5.323   2.986   3.429 -0.3143 -1.3872 -0.3645
 5764TIP3    H238708   5.461   3.008   3.486 -0.9366 -2.4183  1.6060
 5765TIP3   OH238709   0.105   6.363   6.213  0.3420 -0.7522 -0.5405
 5765TIP3    H138710   0.082   6.370   6.120  0.2187  1.6891 -0.3526
 5765TIP3    H238711   0.150   6.278   6.220 -0.0280 -1.1666 -2.7294
 5766TIP3   OH238712   4.798   4.161   4.967  0.5869 -0.8462  0.3558
 5766TIP3    H138713   4.744   4.239   4.984  0.3119 -0.7671 -0.8154
 5766TIP3    H238714   4.829   4.135   5.054 -0.9732 -0.6282  1.0167
 5767TIP3   OH238715   5.952   1.988  12.015 -0.6338  0.4305  0.3422
 5767TIP3    H138716   5.975   1.919  12.077 -1.2465  0.3378  0.4723
 5767TIP3    H238717   5.933   2.064  12.069 -0.6252  0.5082  0.2366
 5768TIP3   OH238718   1.501   0.483   4.104 -0.4866 -0.0581 -0.9276
 5768TIP3    H138719   1.427   0.444   4.150  1.0331 -0.1544  1.5704
 5768TIP3    H238720   1.489   0.577   4.115 -0.5336 -0.0592 -0.9719
 5769TIP3   OH238721   2.134   1.378   6.109  0.5458 -0.1416  0.0813
 5769TIP3    H138722   2.216   1.418   6.079 -0.5919  1.7447 -0.5985
 5769TIP3    H238723   2.129   1.401   6.201  1.0450 -0.7146  0.2528
 5770TIP3   OH238724   5.960   5.464   4.382  0.0895 -0.0344  0.2547
 5770TIP3    H138725   6.047   5.432   4.406 -0.7279 -1.1711  1.8419
 5770TIP3    H238726   5.949   5.438   4.291  0.5079 -1.9542  0.7356
 5771TIP3   OH238727   1.531   4.246  12.550 -0.3124  0.0965 -0.0432
 5771TIP3    H138728   1.556   4.250  12.642 -1.2521 -0.7992  0.2611
 5771TIP3    H238729   1.548   4.155  12.525  4.5305  1.4316 -2.1066
 5772TIP3   OH238730   5.519   3.332  11.528 -0.1410  0.7614  0.0069
 5772TIP3    H138731   5.554   3.281  11.455 -2.1143 -0.6670  0.0285
 5772TIP3    H238732   5.427   3.344  11.507 -1.0430 -0.7376  2.8553
 5773TIP3   OH238733   2.645   0.159   0.233 -0.2064  0.2078  0.1411
 5773TIP3    H138734   2.621   0.140   0.143  0.8342  2.0420 -0.5578
 5773TIP3    H238735   2.731   0.117   0.245  0.5514  1.5854 -0.3531
 5774TIP3   OH238736   4.193   6.394  14.855  0.1836  0.3758 -0.1061
 5774TIP3    H138737   4.286   6.373  14.857  0.0119 -0.3728  0.7023
 5774TIP3    H238738   4.182   6.451  14.779  1.3470  0.7041 -0.0328
 5775TIP3   OH238739   4.304   1.512   9.917  0.5386 -0.1018  0.2080
 5775TIP3    H138740   4.383   1.528   9.968  0.4211  1.0106  0.0482
 5775TIP3    H238741   4.253   1.593   9.925 -0.5638 -0.7963  0.2760
 5776TIP3   OH238742   6.156   5.091   5.626 -0.5351  0.1931 -0.5649
 5776TIP3    H138743   6.102   5.057   5.555 -1.8574  1.6404 -0.2704
 5776TIP3    H238744   6.180   5.180   5.598  0.2656  0.1900  0.0818
 5777TIP3   OH238745   5.242   1.169   0.188 -0.1355 -0.0654 -0.3430
 5777TIP3    H138746   5.157   1.198   0.153 -0.0362  1.9871  1.0842
 5777TIP3    H238747   5.223   1.141   0.278  0.7081  0.4368 -0.0040
 5778TIP3   OH238748   0.531   3.880  14.578  0.1057  0.1686  0.0818
 5778TIP3    H138749   0.467   3.928  14.631  1.5157  1.3425  0.7841
 5778TIP3    H238750   0.499   3.790  14.577 -0.8763  0.4862  1.4890
 5779TIP3   OH238751   6.057   1.417   3.426 -0.0866 -0.2092  0.3182
 5779TIP3    H138752   6.052   1.404   3.521 -1.1830  1.6134  0.5488
 5779TIP3    H238753   6.010   1.499   3.412  0.9904  0.0748 -1.6869
 5780TIP3   OH238754   1.835   6.465  11.814 -0.5297  0.4226  0.0479
 5780TIP3    H138755   1.792   6.472  11.899  0.3620 -1.8835  0.7511
 5780TIP3    H238756   1.768   6.431  11.755 -0.1694 -1.5729  0.7470
 5781TIP3   OH238757   1.835   2.140  13.492 -0.1457  0.1753  0.3734
 5781TIP3    H138758   1.915   2.186  13.468 -0.7114  0.1806 -1.5210
 5781TIP3    H238759   1.795   2.196  13.558 -0.0496  1.6385 -0.7914
 5782TIP3   OH238760   2.744   6.780   2.119 -0.0299 -0.5565  0.2459
 5782TIP3    H138761   2.656   6.749   2.097 -0.0572 -0.2843 -0.0342
 5782TIP3    H238762   2.757   6.858   2.064  0.6120 -0.9363 -0.1578
 5783TIP3   OH238763   4.325   4.155  11.614  0.0379  0.5128  0.1717
 5783TIP3    H138764   4.335   4.076  11.668 -0.2745  1.3113  1.4275
 5783TIP3    H238765   4.302   4.122  11.527 -0.1247 -0.7763  0.6898
 5784TIP3   OH238766   2.364   4.734   2.346 -0.5615 -0.0742  0.9903
 5784TIP3    H138767   2.278   4.745   2.386 -0.0211  2.8878  1.4724
 5784TIP3    H238768   2.417   4.694   2.414 -1.1923 -0.5957  1.1765
 5785TIP3   OH238769   6.413   4.572  14.078  0.0605 -0.5359 -0.4338
 5785TIP3    H138770   6.499   4.594  14.115 -0.1640  0.9401 -0.7427
 5785TIP3    H238771   6.417   4.605  13.988 -1.9630  2.5548  0.5479
 5786TIP3   OH238772   0.373   1.668   3.929 -0.4706  0.1180  0.5629
 5786TIP3    H138773   0.396   1.657   3.837 -1.6280  0.6046  0.2088
 5786TIP3    H238774   0.454   1.699   3.970 -0.0311  0.1951 -0.3459
 5787TIP3   OH238775   4.242   1.130   3.142  0.2317 -0.1785  0.4675
 5787TIP3    H138776   4.278   1.206   3.189 -0.7288  0.4345  0.2313
 5787TIP3    H238777   4.149   1.151   3.131 -0.1923 -1.7335  1.0487
 5788TIP3   OH238778   3.951   6.332  14.963 -0.8284 -0.1844  0.0414
 5788TIP3    H138779   3.896   6.405  14.933 -0.3078 -0.0507 -0.6046
 5788TIP3    H238780   4.040   6.357  14.936 -0.5927 -0.8729  0.1761
 5789TIP3   OH238781   2.564   3.344   5.822 -0.3526  0.3561  0.0275
 5789TIP3    H138782   2.536   3.431   5.852  1.8828  1.5962 -1.2849
 5789TIP3    H238783   2.660   3.350   5.820 -0.1033 -2.5005  0.8955
 5790TIP3   OH238784   1.015   5.237   0.341 -0.0349 -0.0711  0.5993
 5790TIP3    H138785   1.065   5.265   0.418  0.8203  0.1851 -0.0416
 5790TIP3    H238786   0.923   5.245   0.368  0.2558  0.1936  1.5284
 5791TIP3   OH238787   5.904   2.704  12.926  0.2312  0.2595  0.8803
 5791TIP3    H138788   5.894   2.796  12.900  1.9194  0.8610  2.3055
 5791TIP3    H238789   5.818   2.680  12.960 -0.6426  0.8695 -0.8353
 5792TIP3   OH238790   1.617   4.167  13.235  0.3688  0.0396 -0.7443
 5792TIP3    H138791   1.709   4.175  13.258 -0.0673 -1.3391  1.5597
 5792TIP3    H238792   1.583   4.257  13.240  0.9343  0.1526  1.1724
 5793TIP3   OH238793   4.991   1.389  16.486 -0.1935 -0.2531  0.1066
 5793TIP3    H138794   5.063   1.445  16.514 -0.8991 -0.4123  2.3198
 5793TIP3    H238795   5.026   1.301  16.487  0.0472 -0.1707 -0.4790
 5794TIP3   OH238796   0.239   5.208   3.930  0.0065 -0.1375  0.1221
 5794TIP3    H138797   0.273   5.296   3.948 -0.6009  0.0834  0.2018
 5794TIP3    H238798   0.227   5.205   3.835  0.3408 -0.2498  0.0831
 5795TIP3   OH238799   2.435   4.744   6.555 -0.3847  0.6788  0.1497
 5795TIP3    H138800   2.522   4.726   6.519 -0.2156  0.7334  0.5262
 5795TIP3    H238801   2.453   4.782   6.641 -0.7728  1.0973  0.0458
 5796TIP3   OH238802   0.663   1.962   2.338  0.3350  0.2515  0.1259
 5796TIP3    H138803   0.643   1.880   2.383 -0.0756 -0.4317 -1.2658
 5796TIP3    H238804   0.611   2.028   2.385 -1.3018 -0.6965 -0.2924
 5797TIP3   OH238805   0.887   5.408  12.450  0.6330  0.2360 -0.2311
 5797TIP3    H138806   0.891   5.424  12.544 -0.3826 -2.1699  0.2450
 5797TIP3    H238807   0.800   5.439  12.424 -0.0095 -1.2783  0.0720
 5798TIP3   OH238808   6.753   0.616  16.283  0.3859 -0.1199  0.0795
 5798TIP3    H138809   6.761   0.701  16.326 -1.2055 -0.4981  1.1447
 5798TIP3    H238810   6.826   0.614  16.221  0.9843  1.6336  0.6970
 5799TIP3   OH238811   2.693   6.706  13.208 -1.0891  0.6749  0.2187
 5799TIP3    H138812   2.713   6.705  13.114  0.4110  0.4691  0.5213
 5799TIP3    H238813   2.762   6.653  13.248 -0.6592  2.2492  1.6359
 5800TIP3   OH238814   5.736   3.049   0.201  0.2127  0.0947 -0.2673
 5800TIP3    H138815   5.644   3.056   0.174  0.2904 -1.2867 -0.9712
 5800TIP3    H238816   5.777   3.129   0.169 -0.7955  0.8267  0.2536
 5801TIP3   OH238817   3.801   0.201   4.418 -0.6886  0.2860  0.5320
 5801TIP3    H138818   3.739   0.267   4.386 -0.4735  0.2875  0.1104
 5801TIP3    H238819   3.816   0.224   4.509 -1.3418  0.2618  0.6488
 5802TIP3   OH238820   2.948   3.973  14.483  0.6068  0.9733  0.8644
 5802TIP3    H138821   2.974   3.915  14.411 -1.1316  1.8305 -0.5020
 5802TIP3    H238822   2.985   4.058  14.460 -2.7903  2.0830 -0.8446
 5803TIP3   OH238823   5.180   4.550   5.059 -0.2256  0.2842 -0.2124
 5803TIP3    H138824   5.186   4.643   5.082  0.0469  0.3002 -0.3408
 5803TIP3    H238825   5.087   4.534   5.047 -0.2373  0.6673 -0.6869
 5804TIP3   OH238826   0.102   3.249  16.789 -0.0680 -0.2913 -0.0310
 5804TIP3    H138827   0.062   3.247  16.702  0.0336 -2.9489 -0.0379
 5804TIP3    H238828   0.041   3.201  16.845  1.5568 -1.6223  0.6233
 5805TIP3   OH238829   1.609   0.854  16.396 -0.2719 -0.3538 -0.3644
 5805TIP3    H138830   1.615   0.759  16.381 -0.7612 -0.4124 -0.2008
 5805TIP3    H238831   1.579   0.861  16.487 -1.0492 -0.0512 -0.6443
 5806TIP3   OH238832   4.942   6.721   5.083  0.3429 -0.4704  0.5108
 5806TIP3    H138833   4.984   6.653   5.135  1.6210 -0.0610  0.0393
 5806TIP3    H238834   4.924   6.679   4.999  3.9954  0.6228 -0.8877
 5807TIP3   OH238835   0.178   1.785  13.501  0.1490  0.4755  0.0220
 5807TIP3    H138836   0.249   1.830  13.546  0.0171 -0.1235  0.8491
 5807TIP3    H238837   0.132   1.853  13.452 -1.7162  1.7495  3.3829
 5808TIP3   OH238838   0.890   2.118  16.287 -0.2568  0.2227 -0.7113
 5808TIP3    H138839   0.845   2.085  16.209 -1.5022  0.1143  0.0424
 5808TIP3    H238840   0.896   2.042  16.345 -0.2691  0.5576 -0.2681
 5809TIP3   OH238841   3.700   2.955   0.557 -0.1746 -0.0148 -0.0701
 5809TIP3    H138842   3.698   3.019   0.485 -1.7096  0.3311  0.2819
 5809TIP3    H238843   3.696   2.870   0.513  1.5901  0.1116 -0.5241
 5810TIP3   OH238844   5.569   4.641   5.845 -0.2267 -0.0918  0.5074
 5810TIP3    H138845   5.548   4.561   5.796  0.4564  0.4796 -0.7214
 5810TIP3    H238846   5.586   4.610   5.934 -1.9121 -1.0874  0.5179
 5811TIP3   OH238847   6.149   0.471   5.348 -0.3543 -0.0230 -0.0075
 5811TIP3    H138848   6.063   0.440   5.319 -0.4990  0.3887 -0.0206
 5811TIP3    H238849   6.209   0.403   5.320 -0.7388 -0.5501  0.4432
 5812TIP3   OH238850   0.738   3.022   1.619 -0.3033  0.0665 -0.3761
 5812TIP3    H138851   0.683   3.005   1.542 -1.0710  0.2202  0.1356
 5812TIP3    H238852   0.796   2.946   1.624 -0.0521  0.1907 -1.2746
 5813TIP3   OH238853   1.809   1.299   3.192 -0.3729 -0.5009 -0.3930
 5813TIP3    H138854   1.829   1.282   3.284  0.5724 -0.1623 -0.5316
 5813TIP3    H238855   1.738   1.363   3.194  0.5456  0.5031  0.0950
 5814TIP3   OH238856   6.324   2.191   4.302 -0.9870 -0.1231  0.5482
 5814TIP3    H138857   6.288   2.140   4.374 -0.0383  1.8222  2.4829
 5814TIP3    H238858   6.276   2.274   4.306  2.0254  1.6590  1.7632
 5815TIP3   OH238859   6.233   5.713   2.050  0.1181  0.5272  0.2022
 5815TIP3    H138860   6.174   5.695   2.123 -0.2685  0.2804 -0.1683
 5815TIP3    H238861   6.175   5.736   1.977  0.4204 -0.5569 -0.4080
 5816TIP3   OH238862   1.359   3.305   1.453  0.0963 -0.0543  0.0162
 5816TIP3    H138863   1.268   3.306   1.426 -0.0168  0.4702  0.4212
 5816TIP3    H238864   1.375   3.391   1.492  1.0566  0.2421 -1.0072
 5817TIP3   OH238865   5.446   2.192  15.608  0.3037  0.1318  0.0557
 5817TIP3    H138866   5.497   2.256  15.658  1.1354  0.0361 -0.6635
 5817TIP3    H238867   5.511   2.144  15.556 -0.3494 -1.0898  0.3483
 5818TIP3   OH238868   0.111   5.829  10.841  0.3376 -0.7801 -0.1117
 5818TIP3    H138869   0.062   5.882  10.904  0.5337 -1.4185  0.5885
 5818TIP3    H238870   0.073   5.852  10.756 -0.7892 -0.8334  0.3671
 5819TIP3   OH238871   0.843   6.247   6.066  0.4316  0.3898 -0.9982
 5819TIP3    H138872   0.800   6.331   6.052 -1.8068 -0.3178  1.1641
 5819TIP3    H238873   0.879   6.253   6.155  1.8114 -0.3144 -1.4853
 5820TIP3   OH238874   0.638   2.152  13.705  0.0932  0.2567 -0.1171
 5820TIP3    H138875   0.676   2.127  13.622  0.2270  1.5909 -0.4727
 5820TIP3    H238876   0.713   2.166  13.763  0.1111  1.5502 -0.4313
 5821TIP3   OH238877   3.599   1.606  16.278  0.5127  0.4050 -0.4005
 5821TIP3    H138878   3.578   1.663  16.352  0.1137 -0.7039  0.3582
 5821TIP3    H238879   3.583   1.517  16.311 -0.9340 -0.0326 -2.2247
 5822TIP3   OH238880   3.744   4.608   4.455 -0.3927  0.1541 -0.5093
 5822TIP3    H138881   3.744   4.639   4.364  0.3353 -0.8197 -0.8581
 5822TIP3    H238882   3.780   4.519   4.450  2.3705  1.0995  1.0367
 5823TIP3   OH238883   4.367   5.150  13.138  0.0930  0.1390 -0.1398
 5823TIP3    H138884   4.302   5.217  13.120  1.3213  1.5023  0.4441
 5823TIP3    H238885   4.317   5.069  13.145 -1.4629  1.0840 -0.2359
 5824TIP3   OH238886   2.086   1.711  14.667  0.5862  0.0183 -0.1522
 5824TIP3    H138887   2.080   1.788  14.611  0.2808 -0.7024 -1.1210
 5824TIP3    H238888   2.088   1.746  14.756  2.4295  1.2437 -0.6482
 5825TIP3   OH238889   5.727   1.308  11.522  0.3819 -0.1191  0.0741
 5825TIP3    H138890   5.744   1.375  11.456  0.7873 -0.9466 -0.6729
 5825TIP3    H238891   5.631   1.297  11.520  0.4109 -0.3062 -0.5524
 5826TIP3   OH238892   4.578   3.052   4.967  0.4006 -0.0848  0.0584
 5826TIP3    H138893   4.542   3.141   4.966 -1.2641 -0.7429  0.8899
 5826TIP3    H238894   4.520   3.002   4.909  1.1100 -0.7251 -0.1127
 5827TIP3   OH238895   6.037   4.674  14.640  0.0528 -0.1933  0.4744
 5827TIP3    H138896   6.020   4.608  14.573 -0.4275 -0.7424  1.1319
 5827TIP3    H238897   6.109   4.638  14.691  0.5437  0.3121  0.1480
 5828TIP3   OH238898   5.932   5.222  13.247 -0.0453 -0.2037 -0.1052
 5828TIP3    H138899   5.999   5.266  13.300 -0.7532 -1.1436  1.6280
 5828TIP3    H238900   5.907   5.146  13.300 -1.7109 -0.4548 -1.2255
 5829TIP3   OH238901   4.046   0.798  14.081  0.4287  0.0330  0.1441
 5829TIP3    H138902   4.138   0.825  14.086  0.5630 -0.2619 -0.6393
 5829TIP3    H238903   4.050   0.703  14.070  0.1057  0.2353 -2.0453
 5830TIP3   OH238904   3.980   4.496  14.324  0.2332  0.3510 -0.1670
 5830TIP3    H138905   3.921   4.491  14.248 -0.1506  0.0389  0.1523
 5830TIP3    H238906   3.922   4.500  14.399  0.5816  3.0635 -0.0001
 5831TIP3   OH238907   2.192   3.698   3.120  0.2902 -0.1418  0.0516
 5831TIP3    H138908   2.175   3.739   3.035  2.0444 -1.9206 -1.2215
 5831TIP3    H238909   2.270   3.741   3.153 -1.4131  1.8267  1.6935
 5832TIP3   OH238910   4.069   5.264  11.406 -0.2003 -0.2526  0.1540
 5832TIP3    H138911   3.997   5.281  11.467  0.2206  0.9631  0.3374
 5832TIP3    H238912   4.031   5.210  11.338 -1.2155  0.1337  0.4120
 5833TIP3   OH238913   0.428   2.888   5.324 -0.0465  0.1756  0.3222
 5833TIP3    H138914   0.382   2.966   5.295  0.8638  0.6421  0.1156
 5833TIP3    H238915   0.362   2.837   5.371 -0.4431  1.4508  1.1702
 5834TIP3   OH238916   3.572   4.858   0.529 -0.0328 -0.4470  0.2979
 5834TIP3    H138917   3.516   4.894   0.597  0.0745 -0.4048  0.3635
 5834TIP3    H238918   3.511   4.813   0.470 -0.0763 -0.8970  0.6826
 5835TIP3   OH238919   5.674   4.945  14.767 -0.5512 -0.1796  0.7176
 5835TIP3    H138920   5.659   4.902  14.851 -0.4461 -0.1786  0.7370
 5835TIP3    H238921   5.769   4.943  14.756 -0.6357 -1.0531  0.1422
 5836TIP3   OH238922   5.687   1.802   5.461  0.0046 -0.0251  0.1151
 5836TIP3    H138923   5.763   1.829   5.513  0.7488 -0.4735 -0.7305
 5836TIP3    H238924   5.719   1.729   5.408 -0.6604  0.6327 -1.2088
 5837TIP3   OH238925   5.617   5.437  15.979 -0.1714 -0.1461  0.1866
 5837TIP3    H138926   5.614   5.526  15.944 -0.7781 -0.0973  0.3608
 5837TIP3    H238927   5.532   5.400  15.957  0.8681 -1.4540 -1.8908
 5838TIP3   OH238928   0.449   5.100   4.281 -0.1065  0.3868  0.4994
 5838TIP3    H138929   0.506   5.160   4.328  3.7571 -1.9202 -0.9281
 5838TIP3    H238930   0.455   5.018   4.330 -0.7356 -0.4018 -0.7177
 5839TIP3   OH238931   4.167   3.006  15.891  0.2664  0.3485  0.2651
 5839TIP3    H138932   4.097   2.982  15.830  0.3801  3.6678 -1.2823
 5839TIP3    H238933   4.121   3.044  15.966  0.2738 -0.7879  0.8565
 5840TIP3   OH238934   0.802   5.069   5.537  0.1697 -1.2189  0.2377
 5840TIP3    H138935   0.885   5.066   5.491  0.5654  0.7952  0.7516
 5840TIP3    H238936   0.816   5.133   5.608 -2.1952  0.2349 -0.5403
 5841TIP3   OH238937   0.452   1.540  11.897  0.4014  0.2573  0.3078
 5841TIP3    H138938   0.405   1.461  11.868  0.7046 -0.8370  2.6682
 5841TIP3    H238939   0.514   1.508  11.963  0.8490  2.4120  0.9733
 5842TIP3   OH238940   0.696   3.313   2.360  0.2058  0.2746 -0.2601
 5842TIP3    H138941   0.720   3.393   2.406 -1.5555  0.6605  0.0276
 5842TIP3    H238942   0.661   3.255   2.428  1.4371 -0.7363 -0.4720
 5843TIP3   OH238943   0.773   4.050   5.562  0.7664  0.0134 -0.5363
 5843TIP3    H138944   0.833   4.106   5.612  0.3676  0.0112 -0.0485
 5843TIP3    H238945   0.716   4.111   5.516 -0.4227  0.0124  0.9147
 5844TIP3   OH238946   3.349   3.777   5.044  0.4472  0.2107  0.2341
 5844TIP3    H138947   3.343   3.871   5.060 -2.7467 -0.1596  1.6088
 5844TIP3    H238948   3.296   3.763   4.965  1.9920 -0.2891 -0.7395
 5845TIP3   OH238949   6.778   1.978  10.839  0.3864 -0.2227 -0.1016
 5845TIP3    H138950   6.797   1.973  10.745 -2.3377  0.3560 -0.7179
 5845TIP3    H238951   6.717   2.051  10.847  0.0137 -0.7409  2.0401
 5846TIP3   OH238952   2.702   1.905  14.700  0.2933 -0.2211 -0.8814
 5846TIP3    H138953   2.638   1.835  14.705  0.7917 -0.5600  1.1083
 5846TIP3    H238954   2.654   1.984  14.725  0.0577 -0.0519 -1.8352
 5847TIP3   OH238955   2.987   3.588  15.661 -0.7079 -0.5730 -0.1169
 5847TIP3    H138956   2.986   3.661  15.599  0.3579 -0.1155  0.3855
 5847TIP3    H238957   2.983   3.630  15.747 -2.1232 -1.1972  0.1450
 5848TIP3   OH238958   6.604   1.163  14.478  0.1459 -0.3525 -0.0111
 5848TIP3    H138959   6.632   1.080  14.439 -0.4239 -1.4316  1.8095
 5848TIP3    H238960   6.602   1.146  14.572 -1.7293  1.1810  0.2606
 5849TIP3   OH238961   2.163   2.656   3.527 -0.0941  0.0841  0.0141
 5849TIP3    H138962   2.200   2.670   3.440  0.8520 -1.1561  0.2017
 5849TIP3    H238963   2.151   2.745   3.562  0.5021  0.5630 -0.9674
 5850TIP3   OH238964   1.207   2.657   4.632  0.2213 -0.0559  0.0916
 5850TIP3    H138965   1.268   2.590   4.663  0.2252 -0.0752  0.0432
 5850TIP3    H238966   1.196   2.717   4.706 -0.2870 -0.4707  0.3553
 5851TIP3   OH238967   3.505   4.806  12.405  0.1877  0.2147 -0.4360
 5851TIP3    H138968   3.592   4.777  12.430  0.2380  2.1138  1.7831
 5851TIP3    H238969   3.519   4.892  12.366 -0.9067  1.8836  2.6612
 5852TIP3   OH238970   2.705   0.290  12.435  0.0019 -0.2550 -0.2802
 5852TIP3    H138971   2.735   0.258  12.350  1.2479 -0.3744  0.1860
 5852TIP3    H238972   2.689   0.211  12.486  1.7805 -0.1797  0.4344
 5853TIP3   OH238973   6.019   0.554   2.717 -0.1316  0.3314 -0.2541
 5853TIP3    H138974   6.065   0.570   2.635  0.3912  1.9849  0.3461
 5853TIP3    H238975   5.927   0.575   2.697 -0.3720 -1.3174 -0.9767
 5854TIP3   OH238976   5.563   0.861   2.588 -0.4602 -0.0455  0.5238
 5854TIP3    H138977   5.563   0.913   2.668  0.8700 -0.2513  0.6635
 5854TIP3    H238978   5.479   0.815   2.589 -0.3883 -0.1478  1.8661
 5855TIP3   OH238979   3.466   1.096  14.692 -0.7274 -0.0374 -0.5012
 5855TIP3    H138980   3.461   1.181  14.734 -0.1790 -0.5589  0.6687
 5855TIP3    H238981   3.560   1.074  14.694 -0.8335 -0.5503 -1.0152
 5856TIP3   OH238982   1.397   2.366  14.414 -0.8075 -0.5939  0.5538
 5856TIP3    H138983   1.375   2.277  14.387 -1.6356 -0.7665  1.7429
 5856TIP3    H238984   1.344   2.381  14.493  0.7266  0.2689  1.4526
 5857TIP3   OH238985   2.017   3.610   0.069  0.0743 -0.2462 -0.2754
 5857TIP3    H138986   2.021   3.573  -0.020 -1.0400  1.0593 -0.8935
 5857TIP3    H238987   1.998   3.535   0.125  0.8989 -1.1124 -1.1203
 5858TIP3   OH238988   6.217   1.765  12.677  0.0630  0.2979  0.3619
 5858TIP3    H138989   6.281   1.695  12.671 -1.3162 -0.8152 -2.0565
 5858TIP3    H238990   6.176   1.753  12.763  1.9110  0.0388  1.2360
 5859TIP3   OH238991   2.545   1.858  13.792  0.1303 -0.0087  0.1440
 5859TIP3    H138992   2.571   1.809  13.714  1.3628  1.7941 -0.5996
 5859TIP3    H238993   2.566   1.949  13.772 -0.6601  0.6391  2.1149
 5860TIP3   OH238994   0.962   3.640   0.691  0.1818 -0.0226 -0.6091
 5860TIP3    H138995   1.024   3.685   0.748 -0.8685  0.8248 -0.1103
 5860TIP3    H238996   0.968   3.685   0.608 -1.3498  1.5059  0.0823
 5861TIP3   OH238997   2.100   3.721   0.779 -0.0247  0.1981  1.0065
 5861TIP3    H138998   2.034   3.703   0.845  0.8623  2.2441  2.5415
 5861TIP3    H238999   2.143   3.801   0.810  1.2295  0.5234 -1.4360
 5862TIP3   OH239000   5.461   3.511  16.468 -0.6402 -0.0848 -0.1612
 5862TIP3    H139001   5.464   3.549  16.556  0.3019 -2.0062  0.6609
 5862TIP3    H239002   5.552   3.515  16.437 -0.2193 -2.9814  0.5489
 5863TIP3   OH239003   3.546   4.845   3.907 -0.2701 -0.4697  0.2508
 5863TIP3    H139004   3.485   4.779   3.939 -0.7225 -0.1399  0.0791
 5863TIP3    H239005   3.577   4.812   3.823 -0.5871 -0.4050  0.1096
 5864TIP3   OH239006   2.468   1.508  11.412  0.1769 -0.0908  0.2218
 5864TIP3    H139007   2.428   1.504  11.499 -0.7509  0.2631 -0.1774
 5864TIP3    H239008   2.394   1.512  11.352  0.8085  0.7238 -0.5242
 5865TIP3   OH239009   5.056   5.929   3.330  0.0091  0.0700 -0.2187
 5865TIP3    H139010   5.060   5.836   3.308 -0.6835  0.2428 -1.0894
 5865TIP3    H239011   5.013   5.970   3.255 -1.6406  0.7801  1.0822
 5866TIP3   OH239012   3.025   1.550  13.674 -0.5896 -0.7960 -0.0345
 5866TIP3    H139013   2.990   1.472  13.718  0.2150 -1.0389  0.1845
 5866TIP3    H239014   2.957   1.616  13.684 -0.5990 -0.9823  1.2056
 5867TIP3   OH239015   2.287   0.384  13.181  0.0848 -0.3166 -0.5740
 5867TIP3    H139016   2.274   0.478  13.185  0.9149 -0.2671  2.1577
 5867TIP3    H239017   2.382   0.372  13.178  0.0413 -1.0774  0.6506
 5868TIP3   OH239018   2.329   0.805  13.595  0.4559 -0.4854 -0.4607
 5868TIP3    H139019   2.387   0.845  13.530 -0.5872  1.0753 -0.4436
 5868TIP3    H239020   2.330   0.865  13.669 -0.7161 -0.7481 -0.2154
 5869TIP3   OH239021   2.711   2.535  12.574 -0.3041 -0.2039  0.7815
 5869TIP3    H139022   2.690   2.628  12.565  1.0897  0.1246  0.7440
 5869TIP3    H239023   2.689   2.497  12.489 -2.1334 -0.1719  1.2318
 5870TIP3   OH239024   6.555   1.886  12.646  0.5983  0.2518  0.0785
 5870TIP3    H139025   6.490   1.934  12.595 -0.0482  1.5243  2.0477
 5870TIP3    H239026   6.606   1.954  12.691 -0.3689 -0.8658  2.9576
 5871TIP3   OH239027   4.211   0.891  12.954  0.7496  0.3217 -0.4820
 5871TIP3    H139028   4.257   0.973  12.938  0.0828  1.3056  2.3798
 5871TIP3    H239029   4.119   0.910  12.931  0.6261  0.3315  0.0125
 5872TIP3   OH239030   0.399   4.289   2.113 -0.3212  0.6106  0.0180
 5872TIP3    H139031   0.355   4.212   2.078 -1.4730  1.4648 -0.4566
 5872TIP3    H239032   0.339   4.362   2.093  0.4441  1.5313  1.0252
 5873TIP3   OH239033   0.351   0.549   3.334 -0.8705  0.1213  0.7231
 5873TIP3    H139034   0.286   0.559   3.404 -0.7881 -2.1488  1.1732
 5873TIP3    H239035   0.302   0.508   3.262 -0.1654 -0.6664  0.6929
 5874TIP3   OH239036   0.048   3.740   2.989  0.1387 -0.1767  0.3709
 5874TIP3    H139037   0.091   3.815   2.949  2.1886 -0.7287  1.5072
 5874TIP3    H239038   0.114   3.671   2.988 -1.1134 -1.4103  1.0645
 5875TIP3   OH239039   6.357   5.172   4.082 -0.6790  0.5793 -0.0782
 5875TIP3    H139040   6.331   5.190   3.992  1.6381  0.0082 -0.9005
 5875TIP3    H239041   6.347   5.077   4.091  0.8126  0.3895 -0.3250
 5876TIP3   OH239042   3.746   2.592   0.748 -0.0025 -0.5208  0.2628
 5876TIP3    H139043   3.704   2.544   0.819 -0.2944  0.0627  0.4906
 5876TIP3    H239044   3.720   2.683   0.762  0.8032 -0.2482  0.0286
 5877TIP3   OH239045   0.765   3.700  11.989 -0.0038 -0.3858  0.2979
 5877TIP3    H139046   0.771   3.780  12.041 -2.3843 -1.1621  1.8197
 5877TIP3    H239047   0.828   3.640  12.029  0.4800  0.1143  0.2831
 5878TIP3   OH239048   0.340   3.693   0.781  0.6618 -0.9346 -0.5521
 5878TIP3    H139049   0.386   3.637   0.843 -0.6670 -1.9255 -0.4243
 5878TIP3    H239050   0.387   3.776   0.784  3.4879 -2.4349 -1.7534
 5879TIP3   OH239051   2.186   5.287   2.619 -0.1665 -0.1239 -0.5582
 5879TIP3    H139052   2.215   5.264   2.530  0.2323 -0.7332 -0.2781
 5879TIP3    H239053   2.198   5.382   2.625  3.2423 -0.5224  0.0424
 5880TIP3   OH239054   1.890   3.505   5.067 -0.1986  0.3430  0.9818
 5880TIP3    H139055   1.815   3.551   5.030 -1.1911 -2.6082 -0.8226
 5880TIP3    H239056   1.852   3.443   5.130  0.6479 -1.3717 -0.1433
 5881TIP3   OH239057   4.817   6.282  16.350 -0.3995  0.3593 -0.7405
 5881TIP3    H139058   4.798   6.337  16.274 -1.2034  0.5230 -0.4241
 5881TIP3    H239059   4.789   6.194  16.323 -1.0006  0.4807 -0.5063
 5882TIP3   OH239060   1.793   4.687  13.475 -0.0656 -0.4243  0.3474
 5882TIP3    H139061   1.863   4.746  13.447  0.2647 -0.0453  1.9268
 5882TIP3    H239062   1.744   4.667  13.395  2.1200 -1.0491 -0.8849
 5883TIP3   OH239063   5.833   0.142   4.580 -0.1183  0.0081 -0.1669
 5883TIP3    H139064   5.751   0.103   4.551  0.4511 -1.4688  0.1611
 5883TIP3    H239065   5.846   0.218   4.523 -2.0470  0.6567  0.2307
 5884TIP3   OH239066   5.665   3.762  12.036  0.0067 -0.9743  0.1877
 5884TIP3    H139067   5.742   3.819  12.033 -1.2870  0.9232  1.9335
 5884TIP3    H239068   5.666   3.717  11.952  2.7608 -0.6352 -0.0193
 5885TIP3   OH239069   0.757   0.657  14.030 -0.3671  0.3039  0.2226
 5885TIP3    H139070   0.664   0.653  14.007 -0.4031 -2.4477  0.5963
 5885TIP3    H239071   0.770   0.581  14.087  2.2765  0.2392 -0.4233
 5886TIP3   OH239072   2.014   6.533  12.466  0.2871  0.1361 -0.1786
 5886TIP3    H139073   1.929   6.490  12.478 -0.7389  1.8626 -1.2007
 5886TIP3    H239074   2.044   6.552  12.555 -0.7649  0.2375  0.1537
 5887TIP3   OH239075   6.251   5.247  13.649  0.0577  0.4066  0.3257
 5887TIP3    H139076   6.267   5.178  13.713  1.0784 -0.3252 -0.6839
 5887TIP3    H239077   6.336   5.292  13.640 -0.4420  1.4083  0.5323
 5888TIP3   OH239078   3.656   6.545  16.817 -0.1576  0.0097 -0.2231
 5888TIP3    H139079   3.725   6.527  16.754 -0.3407 -1.6229  0.0126
 5888TIP3    H239080   3.598   6.607  16.773  0.3873 -0.1650 -1.1844
 5889TIP3   OH239081   5.996   5.069  14.445  0.2342  0.3671 -0.3041
 5889TIP3    H139082   6.002   5.164  14.441 -1.1089  0.4465 -0.8470
 5889TIP3    H239083   5.960   5.044  14.360  0.1687 -0.5889 -0.0029
 5890TIP3   OH239084   5.960   2.717   2.003  0.5371  0.2353 -0.0997
 5890TIP3    H139085   6.001   2.640   1.966 -1.9297 -1.1933  0.0235
 5890TIP3    H239086   5.909   2.755   1.931  2.2558  2.1410 -0.3380
 5891TIP3   OH239087   0.705   5.079   3.472  0.2310  0.8172  0.7374
 5891TIP3    H139088   0.710   5.165   3.429  0.3449 -0.3208 -1.6225
 5891TIP3    H239089   0.776   5.080   3.536  0.2169  2.4883  0.7535
 5892TIP3   OH239090   3.434   6.371   2.589  0.1511 -0.1222  0.3696
 5892TIP3    H139091   3.480   6.288   2.600  1.4037  0.6212  0.9273
 5892TIP3    H239092   3.341   6.348   2.589  0.4518 -1.3850  1.6996
 5893TIP3   OH239093   3.480   5.675  15.705  0.3457 -0.1319 -0.4326
 5893TIP3    H139094   3.529   5.593  15.702  1.4585  0.3661  2.3006
 5893TIP3    H239095   3.412   5.661  15.771  0.5541  1.1221  0.0714
 5894TIP3   OH239096   4.710   3.707   0.980  0.4723 -0.3235  0.1536
 5894TIP3    H139097   4.770   3.638   1.007  0.7796 -0.2891 -0.4311
 5894TIP3    H239098   4.756   3.753   0.910  0.4026  0.6742  0.7471
 5895TIP3   OH239099   5.181   1.934   2.088 -0.4399  0.1427 -0.3707
 5895TIP3    H139100   5.197   2.020   2.051 -2.4295  1.0857  0.9060
 5895TIP3    H239101   5.220   1.937   2.175 -1.5833  0.1668  0.1449
 5896TIP3   OH239102   2.763   6.562   5.478 -0.2366 -0.1212  0.5896
 5896TIP3    H139103   2.743   6.476   5.443 -1.2300  0.6530 -0.7997
 5896TIP3    H239104   2.746   6.622   5.406  1.5710  1.1388  1.1625
 5897TIP3   OH239105   3.059   1.894  13.677  0.7761  0.2394 -0.1648
 5897TIP3    H139106   2.988   1.878  13.739  1.0155  1.2116  0.3813
 5897TIP3    H239107   3.130   1.837  13.706  0.8310  0.5709  0.3630
 5898TIP3   OH239108   4.336   4.382  14.626 -0.9255 -0.5389  0.3662
 5898TIP3    H139109   4.263   4.321  14.615 -0.2628 -1.5484  1.4411
 5898TIP3    H239110   4.327   4.414  14.716 -1.9711  1.9157 -0.5518
 5899TIP3   OH239111   1.517   1.854  16.542 -0.3720 -0.1330  0.2586
 5899TIP3    H139112   1.482   1.943  16.540 -0.5676 -0.2164 -0.1263
 5899TIP3    H239113   1.475   1.814  16.618 -0.0405  0.2002  0.6172
 5900TIP3   OH239114   3.981   4.246  16.769 -0.3475  0.4369 -0.0263
 5900TIP3    H139115   4.051   4.262  16.832 -1.4632  2.2569  0.8276
 5900TIP3    H239116   3.978   4.326  16.716  0.3576 -0.9453 -2.1857
 5901TIP3   OH239117   6.766   3.027  12.361  0.4391 -0.2931 -0.0139
 5901TIP3    H139118   6.755   2.958  12.296 -0.1111 -1.1461  0.9487
 5901TIP3    H239119   6.835   2.994  12.419  1.6439  0.9185 -0.7524
 5902TIP3   OH239120   5.999   1.399  13.584 -0.1385 -0.1621  0.3674
 5902TIP3    H139121   6.006   1.397  13.680  0.0580 -1.5383  0.3437
 5902TIP3    H239122   5.958   1.316  13.562  0.7634 -0.3076 -0.8102
 5903TIP3   OH239123   6.003   2.456  15.110  0.5083  0.0730 -0.1556
 5903TIP3    H139124   6.074   2.512  15.080  1.1733 -0.0174  1.2088
 5903TIP3    H239125   5.946   2.446  15.034  0.6707  2.1327 -0.5664
 5904TIP3   OH239126   4.128   1.518   2.112 -0.0314  0.2720  0.3335
 5904TIP3    H139127   4.075   1.441   2.093  1.7911 -1.0772  0.6229
 5904TIP3    H239128   4.126   1.569   2.030 -0.9548 -0.2563  0.0272
 5905TIP3   OH239129   3.444   1.616  11.960  0.4971  0.3055  0.1601
 5905TIP3    H139130   3.537   1.633  11.948  0.9218 -1.5039  0.7826
 5905TIP3    H239131   3.403   1.703  11.957  2.0302  1.0050 -1.4946
 5906TIP3   OH239132   3.497   5.010  16.116 -0.0537 -0.6115  0.5115
 5906TIP3    H139133   3.565   5.046  16.174  0.6085 -1.3123  0.1671
 5906TIP3    H239134   3.520   5.043  16.029 -0.7592  0.0196  0.5590
 5907TIP3   OH239135   6.334   0.071  12.987 -0.4392 -0.0050  0.2864
 5907TIP3    H139136   6.327   0.161  13.019  0.7750 -0.2546  1.2634
 5907TIP3    H239137   6.246   0.035  12.998 -0.9815  1.1144 -0.2947
 5908TIP3   OH239138   0.184   3.671  14.461 -0.0379  0.1997  0.4047
 5908TIP3    H139139   0.271   3.706  14.443  0.2448  0.0643  1.4775
 5908TIP3    H239140   0.200   3.590  14.510 -0.7495 -0.2099 -0.0262
 5909TIP3   OH239141   6.666   1.402  16.209 -0.0150  0.0198 -0.2958
 5909TIP3    H139142   6.634   1.324  16.165  1.8739 -0.4961 -0.7975
 5909TIP3    H239143   6.710   1.369  16.287  0.1075  0.6342 -0.1015
 5910TIP3   OH239144   2.667   0.413   5.815  0.3308  0.1775 -0.5948
 5910TIP3    H139145   2.669   0.507   5.797  1.3886  0.6066  1.6198
 5910TIP3    H239146   2.710   0.374   5.739  1.2581  1.6208 -0.8405
 5911TIP3   OH239147   2.759   2.885  11.292 -0.0548  0.5875 -1.0384
 5911TIP3    H139148   2.670   2.917  11.280 -0.1763  0.7017  0.1189
 5911TIP3    H239149   2.812   2.936  11.231 -0.4855  1.8965 -0.3244
 5912TIP3   OH239150   0.765   2.896  15.713 -0.0107  0.2597  0.0628
 5912TIP3    H139151   0.820   2.901  15.791  2.1557  0.4590 -1.4181
 5912TIP3    H239152   0.749   2.803  15.700  1.5295  0.0572 -0.5102
 5913TIP3   OH239153   4.981   1.149   1.052 -0.6915  0.1679 -0.5076
 5913TIP3    H139154   5.040   1.076   1.072 -1.3868 -0.2221  0.1432
 5913TIP3    H239155   5.024   1.226   1.091 -0.3624 -0.0294 -0.4800
 5914TIP3   OH239156   3.904   4.984   3.928  0.2035  0.1764 -0.0478
 5914TIP3    H139157   3.985   4.962   3.882 -0.0115 -0.4291 -0.1423
 5914TIP3    H239158   3.932   5.006   4.017  0.1402 -3.5350  0.9597
 5915TIP3   OH239159   2.147   6.650  13.994 -0.3801  0.5812  0.5619
 5915TIP3    H139160   2.143   6.746  13.992 -0.5406  0.5520 -2.2627
 5915TIP3    H239161   2.064   6.623  14.032 -0.6097  1.5485  0.7546
 5916TIP3   OH239162   5.764   2.355  12.666 -0.2940 -0.2827 -0.0629
 5916TIP3    H139163   5.719   2.298  12.603 -1.7129 -0.1026  0.7710
 5916TIP3    H239164   5.710   2.434  12.670  0.9463  0.5966 -0.2089
 5917TIP3   OH239165   3.848   4.488   1.456 -0.1570  0.4750  0.2003
 5917TIP3    H139166   3.857   4.422   1.387  1.2167  0.3551  0.4641
 5917TIP3    H239167   3.781   4.453   1.514 -0.8205  0.2412 -0.7049
 5918TIP3   OH239168   2.164   1.249  16.673 -0.3677  0.0658  0.0297
 5918TIP3    H139169   2.185   1.311  16.743  0.0890  0.2309 -0.2535
 5918TIP3    H239170   2.082   1.280  16.637  1.2158  2.0934 -1.9319
 5919TIP3   OH239171   1.537   2.462  12.718  0.4606  0.5140  0.5982
 5919TIP3    H139172   1.480   2.449  12.794 -0.4811 -0.5477 -0.2636
 5919TIP3    H239173   1.481   2.506  12.654  1.6750  2.7755  1.0305
 5920TIP3   OH239174   3.215   5.102  16.881 -0.1823  0.6391 -0.2220
 5920TIP3    H139175   3.202   5.134  16.792 -0.2018  0.2350 -0.3666
 5920TIP3    H239176   3.302   5.133  16.905 -0.2146  0.8283 -0.3488
 5921TIP3   OH239177   1.436   2.162  17.004 -0.0844 -0.0861  0.3065
 5921TIP3    H139178   1.490   2.203  17.071  0.0086  1.3497 -0.6245
 5921TIP3    H239179   1.369   2.228  16.983  1.0392  0.2956 -2.3731
 5922TIP3   OH239180   5.725   3.767   4.479 -0.2332  0.4755  0.3718
 5922TIP3    H139181   5.797   3.831   4.484 -0.0194  0.2879 -0.1993
 5922TIP3    H239182   5.690   3.763   4.568 -0.0412  1.1562  0.4814
 5923TIP3   OH239183   1.198   4.848  11.135 -0.1177  0.7304  0.2186
 5923TIP3    H139184   1.238   4.933  11.121 -0.5874  0.8710 -0.2826
 5923TIP3    H239185   1.121   4.848  11.078 -0.6186  0.3210  0.8942
 5924TIP3   OH239186   5.538   0.493   2.659 -0.2593  0.2946 -0.0404
 5924TIP3    H139187   5.527   0.398   2.650  0.6279  0.1934 -0.1301
 5924TIP3    H239188   5.511   0.512   2.749 -1.3898  0.1048 -0.3328
 5925TIP3   OH239189   6.722   3.511  10.867  0.1181 -0.1371 -0.0454
 5925TIP3    H139190   6.627   3.513  10.856  0.2577  0.7799 -1.1287
 5925TIP3    H239191   6.748   3.424  10.837 -0.2001  0.1787 -1.2529
 5926TIP3   OH239192   2.305   2.170  10.623  0.4019 -0.4362 -0.4447
 5926TIP3    H139193   2.383   2.115  10.609  0.2653 -1.2654  1.8507
 5926TIP3    H239194   2.252   2.120  10.684 -1.5756  0.5139 -1.3446
 5927TIP3   OH239195   2.975   5.138  14.899 -0.1259  0.4659  0.1460
 5927TIP3    H139196   2.928   5.180  14.970 -0.3326 -0.4837  0.5837
 5927TIP3    H239197   2.910   5.082  14.857  0.2957  0.1120 -0.0431
 5928TIP3   OH239198   5.033   1.492   0.384  0.4580 -0.1728 -0.2200
 5928TIP3    H139199   4.988   1.576   0.388  1.7694  0.5373 -0.1169
 5928TIP3    H239200   5.057   1.474   0.475 -1.1506 -1.3957 -0.0310
 5929TIP3   OH239201   1.600   0.781  14.612  0.3419  0.4392 -0.7041
 5929TIP3    H139202   1.613   0.860  14.665 -0.0577  0.2594 -0.3301
 5929TIP3    H239203   1.529   0.734  14.656  0.8942 -0.3644 -0.6575
 5930TIP3   OH239204   5.022   6.436  14.378 -0.5191 -0.0135 -0.6746
 5930TIP3    H139205   4.929   6.444  14.400 -0.2939  1.6102 -0.2217
 5930TIP3    H239206   5.023   6.409  14.287 -1.4577  1.6195 -1.1907
 5931TIP3   OH239207   3.492   2.234  16.531 -0.3448 -0.3812 -0.3232
 5931TIP3    H139208   3.419   2.295  16.521  0.2396  0.4979  0.8061
 5931TIP3    H239209   3.477   2.190  16.614  1.3912  1.1393  0.8333
 5932TIP3   OH239210   4.490   2.255   6.154 -0.1095  0.4756  0.3589
 5932TIP3    H139211   4.428   2.295   6.094  0.4204 -0.4502 -0.8254
 5932TIP3    H239212   4.489   2.312   6.231 -0.8653  1.6222 -0.4833
 5933TIP3   OH239213   0.049   4.058  13.286 -0.0186  0.5695 -0.1703
 5933TIP3    H139214  -0.018   3.991  13.303 -0.0292  0.6379  0.0604
 5933TIP3    H239215   0.102   4.022  13.216 -0.3189  0.5270 -0.3798
 5934TIP3   OH239216   6.784   0.852  16.011 -0.0725  0.3375 -0.1760
 5934TIP3    H139217   6.753   0.856  15.921  0.7382 -2.2069 -0.6193
 5934TIP3    H239218   6.709   0.878  16.064 -0.6431  1.5688 -1.5608
 5935TIP3   OH239219   5.741   1.468  13.779  0.1836  0.6748 -0.1616
 5935TIP3    H139220   5.703   1.380  13.780  0.0390  0.7288 -0.7739
 5935TIP3    H239221   5.828   1.457  13.817  0.4960  0.1043 -1.0151
 5936TIP3   OH239222   6.350   5.328  11.131  0.3729 -0.4663 -0.1608
 5936TIP3    H139223   6.278   5.307  11.192  0.9155 -0.1197  0.6055
 5936TIP3    H239224   6.426   5.340  11.188  1.0906 -1.0564 -0.9919
 5937TIP3   OH239225   6.168   3.267   0.681  0.1050  0.6747 -0.1939
 5937TIP3    H139226   6.084   3.307   0.704  0.0046 -0.0230  0.6815
 5937TIP3    H239227   6.211   3.250   0.765  0.2848 -0.7283 -0.5544
 5938TIP3   OH239228   3.879   3.506   3.169 -0.1550 -0.6001  0.1428
 5938TIP3    H139229   3.955   3.467   3.124  0.3145  0.9528 -0.4318
 5938TIP3    H239230   3.887   3.476   3.259 -0.0303 -2.1798 -0.3720
 5939TIP3   OH239231   0.719   0.076   5.472  0.5459  0.3392  0.0302
 5939TIP3    H139232   0.774   0.074   5.550  0.2877  2.0102  0.2835
 5939TIP3    H239233   0.639   0.121   5.500  0.6156  1.3182 -1.2701
 5940TIP3   OH239234   5.060   5.197  14.160  0.0746 -0.2019  0.2499
 5940TIP3    H139235   5.051   5.186  14.065 -1.0100  0.9092  0.2219
 5940TIP3    H239236   5.154   5.184  14.176  0.3395  0.0414 -1.0385
 5941TIP3   OH239237   4.370   1.070   2.902 -0.2968 -0.3082 -0.0312
 5941TIP3    H139238   4.458   1.060   2.938  0.2213  1.0187 -0.9414
 5941TIP3    H239239   4.315   1.090   2.978  0.7464  2.1859  0.0904
 5942TIP3   OH239240   5.335   1.195   1.254  0.1074 -0.3474 -0.0365
 5942TIP3    H139241   5.270   1.248   1.208 -0.7463 -1.3469  0.0043
 5942TIP3    H239242   5.353   1.244   1.334 -1.2771 -0.5134  0.3817
 5943TIP3   OH239243   5.627   2.927   1.002 -0.2625  0.5633  0.1221
 5943TIP3    H139244   5.571   2.893   0.933  0.2929 -1.5200  0.6615
 5943TIP3    H239245   5.708   2.953   0.958 -0.9707  1.9596 -0.4010
 5944TIP3   OH239246   2.930   0.749  13.821  0.1872 -0.0742 -0.3610
 5944TIP3    H139247   2.871   0.825  13.831 -1.5464 -1.1978 -1.6643
 5944TIP3    H239248   2.896   0.703  13.744  2.3537 -1.1814 -0.6906
 5945TIP3   OH239249   1.367   2.990   0.360 -0.2487  0.1127 -0.3425
 5945TIP3    H139250   1.384   3.084   0.351  1.4383 -0.0347  1.1337
 5945TIP3    H239251   1.422   2.962   0.433  0.2279 -2.2691 -1.5467
 5946TIP3   OH239252   5.589   4.632   3.502  0.4848  0.4322  0.0143
 5946TIP3    H139253   5.668   4.674   3.536  0.8036 -0.0432 -0.1272
 5946TIP3    H239254   5.596   4.642   3.407  0.8209 -0.3772 -0.0540
 5947TIP3   OH239255   1.698   4.250  14.107  0.0789  0.0543 -0.5022
 5947TIP3    H139256   1.727   4.166  14.071  1.2702  0.4337 -0.4757
 5947TIP3    H239257   1.662   4.229  14.193  0.8340 -0.3731 -0.2863
 5948TIP3   OH239258   2.905   0.743   5.412 -0.4140  0.2134 -0.3276
 5948TIP3    H139259   2.918   0.799   5.487 -0.9843 -0.7106  0.4752
 5948TIP3    H239260   2.876   0.802   5.342  0.8079  1.1742 -0.0468
 5949TIP3   OH239261   3.290   0.584  13.741  0.3890  0.0285 -0.3642
 5949TIP3    H139262   3.266   0.649  13.806 -0.4540  0.1257 -0.7732
 5949TIP3    H239263   3.336   0.633  13.673 -0.6676  0.2840 -0.9062
 5950TIP3   OH239264   2.410   3.287  11.514 -0.0338 -0.2428 -0.4155
 5950TIP3    H139265   2.468   3.213  11.498  0.1327 -0.2655  0.2538
 5950TIP3    H239266   2.370   3.268  11.599 -0.1539  0.3191 -0.3420
 5951TIP3   OH239267   0.749   1.664   2.935  0.8475 -0.5888  0.7436
 5951TIP3    H139268   0.818   1.607   2.902  0.7479 -0.4316  0.2514
 5951TIP3    H239269   0.674   1.645   2.878  0.1870 -1.4779  1.8988
 5952TIP3   OH239270   3.232   1.568  11.737 -0.2327 -0.4001 -0.4607
 5952TIP3    H139271   3.227   1.473  11.734  0.0527 -0.4334  0.1470
 5952TIP3    H239272   3.325   1.588  11.721  0.4818 -0.3885  3.2831
 5953TIP3   OH239273   0.010   5.017  16.680 -0.6663  0.2279  0.0692
 5953TIP3    H139274   0.004   4.922  16.695  0.4680  0.1518  0.0556
 5953TIP3    H239275  -0.033   5.031  16.596 -0.2555 -0.3622 -0.2401
 5954TIP3   OH239276   0.930   1.483   2.563  0.2841  0.0448 -0.1038
 5954TIP3    H139277   0.970   1.482   2.650 -0.9179 -0.7591  0.4552
 5954TIP3    H239278   0.857   1.421   2.569 -0.9345  1.3450 -1.1419
 5955TIP3   OH239279   3.015   4.581   3.524  0.1506 -0.7569 -0.1714
 5955TIP3    H139280   2.978   4.653   3.473  1.4945  0.6335  0.7644
 5955TIP3    H239281   3.086   4.546   3.470  1.8282  0.9685  0.8698
 5956TIP3   OH239282   4.403   6.098  14.437  0.2297 -0.8593  0.1850
 5956TIP3    H139283   4.401   6.184  14.479 -0.3952 -1.3015  1.0633
 5956TIP3    H239284   4.492   6.066  14.454 -0.4918 -1.6935  2.5211
 5957TIP3   OH239285   0.644   2.817  15.088 -0.2106 -0.6604 -0.3168
 5957TIP3    H139286   0.729   2.815  15.132  1.3385  3.5383 -2.8383
 5957TIP3    H239287   0.594   2.884  15.133 -1.2589 -1.2897 -0.5098
 5958TIP3   OH239288   6.367   2.523  14.387 -0.2919  0.3420 -0.3104
 5958TIP3    H139289   6.448   2.523  14.336 -0.2089  1.0931 -0.1815
 5958TIP3    H239290   6.339   2.614  14.388 -1.7755 -0.0848 -1.3471
 5959TIP3   OH239291   4.275   1.458   1.361  0.4754 -0.1270 -0.5382
 5959TIP3    H139292   4.340   1.395   1.329  0.0396  0.9100 -3.6809
 5959TIP3    H239293   4.198   1.405   1.381  1.4996 -1.0811  0.9221
 5960TIP3   OH239294   2.068   0.637  12.992  0.5677 -0.0758 -0.0403
 5960TIP3    H139295   2.060   0.551  12.952 -1.4274 -0.1648  0.5188
 5960TIP3    H239296   2.127   0.624  13.066 -1.0098 -1.3216  1.0241
 5961TIP3   OH239297   0.813   1.349  16.574 -0.0938  0.4720  0.2172
 5961TIP3    H139298   0.869   1.342  16.496  0.1563  1.0088  0.3503
 5961TIP3    H239299   0.871   1.382  16.642 -0.8435  2.0681  0.0860
 5962TIP3   OH239300   6.143   5.756  14.409 -0.1139 -0.5927  0.3228
 5962TIP3    H139301   6.084   5.831  14.416 -1.8995 -1.7966 -1.3861
 5962TIP3    H239302   6.188   5.754  14.493 -1.5326  1.1516  1.1762
 5963TIP3   OH239303   0.647   4.274  12.037 -0.4295  0.5369 -0.0775
 5963TIP3    H139304   0.664   4.180  12.027  0.1904  0.1664  3.6214
 5963TIP3    H239305   0.725   4.316  12.003 -0.3242 -0.3390 -0.9284
 5964TIP3   OH239306   2.173   5.655  10.565  0.0732 -0.1054 -0.2632
 5964TIP3    H139307   2.129   5.721  10.619  0.1647  0.9743 -1.4951
 5964TIP3    H239308   2.132   5.663  10.479 -0.3061 -2.0483 -0.2848
 5965TIP3   OH239309   4.899   3.602  16.442  0.1195  0.1657 -0.1051
 5965TIP3    H139310   4.924   3.579  16.352  0.1498  0.5417 -0.1938
 5965TIP3    H239311   4.818   3.553  16.457  0.6110 -0.6296 -0.0079
 5966TIP3   OH239312   0.400   1.052   2.315  0.5912 -0.1504  0.3573
 5966TIP3    H139313   0.407   1.012   2.402  2.6202 -1.9627 -0.5861
 5966TIP3    H239314   0.491   1.064   2.287 -0.0400  0.6526 -1.4153
 5967TIP3   OH239315   0.015   2.504   0.524  0.3291  0.0031 -0.3703
 5967TIP3    H139316   0.041   2.523   0.614 -1.0847 -0.9915  0.2633
 5967TIP3    H239317   0.039   2.582   0.475 -0.8123  1.3898  1.2489
 5968TIP3   OH239318   5.219   4.393   3.190  0.7186 -0.4723  0.4011
 5968TIP3    H139319   5.146   4.433   3.143 -0.7562 -0.7956  2.3272
 5968TIP3    H239320   5.229   4.307   3.149 -0.8409 -0.9300  0.9355
 5969TIP3   OH239321   1.288   6.513   0.486 -0.1666 -0.7817  0.2489
 5969TIP3    H139322   1.328   6.434   0.448  1.0065  0.7355 -1.8194
 5969TIP3    H239323   1.362   6.562   0.522 -0.6730  0.1589  0.0270
 5970TIP3   OH239324   0.369   2.633  15.682 -0.1158 -0.1014 -0.6694
 5970TIP3    H139325   0.406   2.643  15.594 -1.5476 -3.2422 -1.7152
 5970TIP3    H239326   0.423   2.567  15.724  0.5889  1.4216  0.8867
 5971TIP3   OH239327   2.322   3.963  14.763 -0.1106 -0.4275 -0.0361
 5971TIP3    H139328   2.315   3.908  14.686 -0.0682  0.9752 -1.0713
 5971TIP3    H239329   2.390   3.922  14.817  1.6753 -0.0343 -1.9438
 5972TIP3   OH239330   1.550   3.374  15.234 -0.6002 -0.1557  0.0639
 5972TIP3    H139331   1.524   3.458  15.196 -0.9096  0.5916  1.8451
 5972TIP3    H239332   1.475   3.316  15.218 -0.0510 -0.3489 -1.8959
 5973TIP3   OH239333   1.979   2.395  13.687  0.1834 -0.3699  0.1584
 5973TIP3    H139334   1.993   2.434  13.601 -2.0068 -0.5127 -0.2892
 5973TIP3    H239335   2.001   2.466  13.748  1.1249 -0.0681 -0.5059
 5974TIP3   OH239336   0.085   2.442   3.437  0.3505 -0.2134 -0.0811
 5974TIP3    H139337   0.097   2.444   3.342  1.3951 -0.3639  0.0397
 5974TIP3    H239338   0.003   2.395   3.450  0.4959 -0.7098 -0.8908
 5975TIP3   OH239339   2.584   5.552  13.303 -0.4087 -0.2408 -0.5189
 5975TIP3    H139340   2.540   5.484  13.252  0.1454 -1.5359  0.7020
 5975TIP3    H239341   2.676   5.525  13.304 -0.2735  0.2555  0.3883
 5976TIP3   OH239342   0.953   1.812  13.336 -0.1956 -0.4106 -0.4627
 5976TIP3    H139343   0.885   1.749  13.359 -0.1401 -0.6223 -0.8750
 5976TIP3    H239344   0.923   1.851  13.255  1.3096 -2.2177 -1.9442
 5977TIP3   OH239345   3.670   4.995   4.759  0.3390 -0.2323  0.1178
 5977TIP3    H139346   3.759   4.965   4.774  0.9294  0.6340 -1.5233
 5977TIP3    H239347   3.621   4.916   4.736  0.8095 -0.6250  0.4773
 5978TIP3   OH239348   6.641   4.934   0.209  0.2234  0.3451  0.1107
 5978TIP3    H139349   6.688   4.965   0.287  0.3352  1.3137 -0.3408
 5978TIP3    H239350   6.553   4.971   0.218  0.8310  2.1452 -1.2464
 5979TIP3   OH239351   4.420   5.966   2.185  0.1015 -0.0189  0.4468
 5979TIP3    H139352   4.514   5.986   2.192  0.2156 -0.1766 -0.5169
 5979TIP3    H239353   4.418   5.882   2.138 -0.4983 -0.3970  1.1461
 5980TIP3   OH239354   6.718   2.704  16.737  0.4466  0.1567  0.5910
 5980TIP3    H139355   6.710   2.776  16.799  1.6591  0.7168  0.1123
 5980TIP3    H239356   6.740   2.628  16.791  0.0053  0.3221  1.0055
 5981TIP3   OH239357   3.364   3.201  12.164 -0.4415  0.4003 -0.2868
 5981TIP3    H139358   3.296   3.140  12.135  0.3143 -0.3423 -0.4844
 5981TIP3    H239359   3.403   3.234  12.084  0.3835 -0.2342 -0.1431
 5982TIP3   OH239360   6.787   2.195  12.024 -0.0549 -0.0063 -0.3922
 5982TIP3    H139361   6.857   2.250  11.989  0.2325 -0.7673 -1.0396
 5982TIP3    H239362   6.789   2.209  12.118 -0.8036  2.0583 -0.6525
 5983TIP3   OH239363   4.127   6.688  13.650  0.1573  0.2186 -0.0307
 5983TIP3    H139364   4.190   6.759  13.660 -0.5974  0.8261  0.5566
 5983TIP3    H239365   4.045   6.732  13.628  0.1587 -0.6370 -1.7939
 5984TIP3   OH239366   6.646   0.338   1.754  0.0736  0.2933 -0.6093
 5984TIP3    H139367   6.737   0.337   1.724  0.0031  0.0749 -0.8244
 5984TIP3    H239368   6.644   0.274   1.825  0.0530  0.1739 -0.7161
 5985TIP3   OH239369   5.112   5.479  13.874 -0.3047 -0.1085 -0.5120
 5985TIP3    H139370   5.126   5.385  13.884  0.0915  0.0700  0.7097
 5985TIP3    H239371   5.019   5.487  13.854 -0.7222 -0.6647  1.0648
 5986TIP3   OH239372   1.453   2.887   1.250 -0.3106 -0.1657 -0.2495
 5986TIP3    H139373   1.401   2.954   1.294 -0.6362 -0.1194 -0.6967
 5986TIP3    H239374   1.506   2.847   1.319 -0.4083  0.2825  0.0857
 5987TIP3   OH239375   1.255   5.937   5.168 -0.0579  0.2589  0.0672
 5987TIP3    H139376   1.280   5.905   5.255  0.7297 -0.1294 -0.2918
 5987TIP3    H239377   1.209   5.864   5.127  2.2643 -0.6974 -0.9772
 5988TIP3   OH239378   6.612   5.078   3.525 -0.0338  0.2411  0.4158
 5988TIP3    H139379   6.609   5.139   3.599  1.0703  1.3919 -0.4773
 5988TIP3    H239380   6.702   5.083   3.493  0.2468 -2.3622  0.7219
 5989TIP3   OH239381   2.423   2.614  14.702 -0.3401  0.1500  0.3492
 5989TIP3    H139382   2.394   2.676  14.635 -1.3143 -0.8965 -0.2293
 5989TIP3    H239383   2.422   2.664  14.783  0.6420  1.3712 -0.3859
 5990TIP3   OH239384   3.502   1.579  11.614  0.3316 -0.1588  0.3447
 5990TIP3    H139385   3.551   1.498  11.629  0.0772 -0.3677  0.0593
 5990TIP3    H239386   3.521   1.602  11.523  0.5383  0.1957  0.4736
 5991TIP3   OH239387   3.669   0.958  12.661  0.1932 -0.1259 -0.1287
 5991TIP3    H139388   3.695   1.015  12.733  0.4545 -0.7193  0.2413
 5991TIP3    H239389   3.647   1.018  12.590  1.4905  0.4052 -0.0833
 5992TIP3   OH239390   4.352   6.053  12.555 -0.1143 -0.0928  0.4415
 5992TIP3    H139391   4.319   6.050  12.645  0.1463  0.1484  0.5449
 5992TIP3    H239392   4.274   6.069  12.501 -0.2400 -0.0469  0.6396
 5993TIP3   OH239393   4.263   2.470   2.894  0.0853 -0.0932  0.3565
 5993TIP3    H139394   4.344   2.477   2.944  0.0980  0.7880  0.2353
 5993TIP3    H239395   4.292   2.474   2.802 -0.0736  0.0765  0.3125
 5994TIP3   OH239396   2.278   1.520  15.102  0.3882  0.5406 -0.3260
 5994TIP3    H139397   2.191   1.514  15.142  0.6071  3.1939  0.6502
 5994TIP3    H239398   2.264   1.492  15.011 -1.5007  1.0126 -0.2132
 5995TIP3   OH239399   2.297   6.103   1.757 -0.2812 -0.5053  0.3622
 5995TIP3    H139400   2.222   6.129   1.809  0.4678 -1.1936  1.8088
 5995TIP3    H239401   2.313   6.177   1.699 -0.3302  0.8226  2.0121
 5996TIP3   OH239402   2.652   2.968  10.440 -0.5943  0.0756 -0.5773
 5996TIP3    H139403   2.616   3.043  10.487  0.4148  0.7307 -0.8460
 5996TIP3    H239404   2.745   2.987  10.432  0.0574 -2.1623  1.1759
 5997TIP3   OH239405   0.911   4.476   3.611 -0.4223  0.4621 -0.0150
 5997TIP3    H139406   0.976   4.546   3.599  0.1441  0.1438  1.0727
 5997TIP3    H239407   0.907   4.433   3.526  0.7679  0.5225 -0.1207
 5998TIP3   OH239408   3.462   2.285  10.727  0.1122 -0.1667 -0.2164
 5998TIP3    H139409   3.369   2.278  10.707  0.1854 -1.6125 -0.0986
 5998TIP3    H239410   3.505   2.292  10.641  0.0484 -1.5290 -0.3634
 5999TIP3   OH239411   4.912   2.214  16.393 -0.4785  0.2029  0.3047
 5999TIP3    H139412   4.967   2.286  16.422 -0.8298  0.5496  0.1071
 5999TIP3    H239413   4.878   2.176  16.474 -0.3765  0.3247  0.4025
 6000TIP3   OH239414   0.663   6.570   2.592  0.3588 -0.2087  0.0379
 6000TIP3    H139415   0.598   6.501   2.603  1.1176 -0.9891 -0.3119
 6000TIP3    H239416   0.697   6.585   2.680 -1.5665  1.4850  0.5330
 6001TIP3   OH239417   5.909   4.061  13.825  0.6793 -0.6252 -0.4466
 6001TIP3    H139418   5.852   4.091  13.754  1.3295 -1.4382 -1.3322
 6001TIP3    H239419   5.850   4.044  13.898  0.0721  0.8516 -0.5888
 6002TIP3   OH239420   4.884   0.190   6.507  0.2538 -0.7057 -0.7959
 6002TIP3    H139421   4.975   0.214   6.524 -0.0380 -0.9030  1.1847
 6002TIP3    H239422   4.839   0.274   6.493  0.5913 -0.5558 -0.9706
 6003TIP3   OH239423   2.727   3.347   0.871  0.4439  0.1730 -0.7441
 6003TIP3    H139424   2.750   3.263   0.833 -0.6608 -0.4939  0.0454
 6003TIP3    H239425   2.719   3.406   0.796 -1.3319 -1.0364 -1.5491
 6004TIP3   OH239426   6.360   3.830   5.281 -0.7393  0.3350  0.4540
 6004TIP3    H139427   6.406   3.837   5.198 -1.9198  0.8081 -0.1729
 6004TIP3    H239428   6.422   3.863   5.346 -0.2481  1.0602 -0.3787
 6005TIP3   OH239429   2.393   4.610   4.684 -0.5239 -0.0451  0.2243
 6005TIP3    H139430   2.324   4.674   4.696 -0.0445  0.1149  2.2112
 6005TIP3    H239431   2.421   4.622   4.593 -0.4561  2.5338  0.5595
 6006TIP3   OH239432   4.486   4.014  10.782 -0.3456 -0.4170  0.1835
 6006TIP3    H139433   4.504   4.076  10.853 -0.4893 -0.4100  0.2145
 6006TIP3    H239434   4.499   3.928  10.821 -0.2019 -0.4077  0.1566
 6007TIP3   OH239435   4.709   6.122  12.957  0.1323 -0.0473 -0.2669
 6007TIP3    H139436   4.659   6.158  13.030  1.1434 -0.0966  0.4492
 6007TIP3    H239437   4.780   6.185  12.942  0.7122 -0.7148 -0.3326
 6008TIP3   OH239438   3.091   3.326   4.440 -0.8555 -0.7254  0.5784
 6008TIP3    H139439   3.172   3.368   4.413 -0.6471 -0.8155  1.0712
 6008TIP3    H239440   3.065   3.372   4.520 -0.8634 -1.2390  0.8724
 6009TIP3   OH239441   6.313   5.446  10.619 -0.4425 -0.6539  0.1005
 6009TIP3    H139442   6.302   5.402  10.703 -1.1113 -0.2980  0.2065
 6009TIP3    H239443   6.407   5.460  10.611 -0.1995 -2.3021 -0.0400
 6010TIP3   OH239444   6.277   4.576  11.848  0.2370 -0.4769  0.6901
 6010TIP3    H139445   6.242   4.496  11.887 -1.9105 -0.5112 -1.1696
 6010TIP3    H239446   6.254   4.645  11.911 -0.8301 -0.8831  0.7624
 6011TIP3   OH239447   6.216   3.859  14.167  0.2853  0.0597 -0.3973
 6011TIP3    H139448   6.274   3.915  14.116 -0.3036  0.7425 -0.3225
 6011TIP3    H239449   6.137   3.852  14.113  0.1425 -0.2476 -0.1488
 6012TIP3   OH239450   0.127   2.961   2.808  0.5546 -0.2194  0.5650
 6012TIP3    H139451   0.189   2.889   2.817  0.1008 -0.8894 -1.3059
 6012TIP3    H239452   0.080   2.942   2.726 -0.7291  1.3167  0.9089
 6013TIP3   OH239453   2.156   3.660  14.779 -0.3885 -0.3783 -0.0678
 6013TIP3    H139454   2.142   3.725  14.711 -0.3882  0.8692  1.1044
 6013TIP3    H239455   2.163   3.577  14.732 -1.0268  0.3775 -1.5230
 6014TIP3   OH239456   5.825   0.528  11.479  0.3110  0.0170 -0.2440
 6014TIP3    H139457   5.898   0.568  11.433  0.4105 -0.3020 -0.3647
 6014TIP3    H239458   5.849   0.533  11.572  0.0222  0.8334 -0.2131
 6015TIP3   OH239459   6.012   3.244  16.853 -0.0159 -0.1613 -0.1620
 6015TIP3    H139460   6.062   3.324  16.870 -0.2238 -0.2923  1.1648
 6015TIP3    H239461   6.061   3.175  16.900 -1.0982 -0.3920  0.6373
 6016TIP3   OH239462   1.849   4.756   1.593 -0.2574 -0.3373  0.0327
 6016TIP3    H139463   1.931   4.706   1.592  0.1160  0.2800 -0.4357
 6016TIP3    H239464   1.833   4.775   1.685  1.5858  1.9339 -0.0843
 6017TIP3   OH239465   4.870   2.987   0.481 -0.2319 -0.0938  0.5040
 6017TIP3    H139466   4.898   3.041   0.408 -0.9774 -0.3711  0.0044
 6017TIP3    H239467   4.806   3.041   0.528  0.1581  0.0390  0.8840
 6018TIP3   OH239468   2.105   5.549  14.998 -0.4758  0.0609  0.0298
 6018TIP3    H139469   2.147   5.586  15.075 -1.4596  0.4082  0.4049
 6018TIP3    H239470   2.011   5.560  15.014 -0.6807  0.6459 -1.4520
 6019TIP3   OH239471   2.396   4.239   0.269  0.9973  0.6991  0.0298
 6019TIP3    H139472   2.421   4.331   0.267  0.3349  0.8936  0.4754
 6019TIP3    H239473   2.306   4.239   0.303  1.8241 -0.2665  2.3316
 6020TIP3   OH239474   1.123   5.268  13.668 -0.0064 -0.0541  0.5694
 6020TIP3    H139475   1.126   5.354  13.626  0.9927 -0.7724 -0.8647
 6020TIP3    H239476   1.029   5.249  13.675 -0.2081  0.1740 -1.1863
 6021TIP3   OH239477   5.904   1.619   4.893  0.6586  0.1488 -0.4818
 6021TIP3    H139478   5.900   1.530   4.928  1.7919  0.5319  0.6856
 6021TIP3    H239479   5.994   1.647   4.910  0.5274  1.2498 -1.5156
 6022TIP3   OH239480   5.449   6.760  10.820 -0.1256  0.2053  0.3799
 6022TIP3    H139481   5.542   6.735  10.821  1.0276  4.1947  0.1566
 6022TIP3    H239482   5.423   6.754  10.912  0.4125 -0.5923  0.4939
 6023TIP3   OH239483   1.105   5.945  15.769 -0.0234 -0.2184 -0.2757
 6023TIP3    H139484   1.063   5.982  15.691 -0.5463 -0.0546  0.0825
 6023TIP3    H239485   1.120   6.020  15.826  1.8270 -0.0982 -0.8842
 6024TIP3   OH239486   0.767   0.050   5.206 -0.0491  0.4488  0.1638
 6024TIP3    H139487   0.774   0.107   5.283  0.3443 -1.3518  1.4729
 6024TIP3    H239488   0.716  -0.025   5.236 -1.4639  0.5638 -1.8422
 6025TIP3   OH239489   0.059   2.018  11.816 -0.4250  0.1521 -0.5018
 6025TIP3    H139490   0.140   1.975  11.844 -0.9877 -0.9234 -0.5189
 6025TIP3    H239491   0.055   2.098  11.869 -0.1027 -0.5227  0.5553
 6026TIP3   OH239492   6.517   2.911   0.831 -0.2917 -0.1384 -0.3349
 6026TIP3    H139493   6.428   2.907   0.796 -0.4624  0.3436  0.0432
 6026TIP3    H239494   6.539   2.820   0.852 -0.2631 -0.4121 -1.5014
 6027TIP3   OH239495   3.153   3.679   5.944 -0.2633 -0.0632  0.2654
 6027TIP3    H139496   3.100   3.752   5.974 -1.6678 -0.2153 -1.7717
 6027TIP3    H239497   3.141   3.611   6.011  0.6075  1.3269  1.8785
 6028TIP3   OH239498   4.167   3.688  10.908 -0.2636  0.3868 -0.0174
 6028TIP3    H139499   4.258   3.658  10.909 -0.5758 -0.5293  0.5599
 6028TIP3    H239500   4.118   3.620  10.953 -1.2520  0.8579 -0.3660
 6029TIP3   OH239501   5.675   4.570  13.268 -0.0863 -0.1745 -0.1252
 6029TIP3    H139502   5.762   4.534  13.249 -0.9290 -2.1415 -0.3651
 6029TIP3    H239503   5.643   4.517  13.341 -0.6837  1.2097  0.6372
 6030TIP3   OH239504   1.535   3.043  12.039 -0.0964  0.5134  0.1350
 6030TIP3    H139505   1.484   3.123  12.054  0.6820  0.8573  1.0011
 6030TIP3    H239506   1.560   3.047  11.947  0.3987  1.5361  0.3137
 6031TIP3   OH239507   5.477   4.133  10.900 -0.6719  0.7064 -0.4131
 6031TIP3    H139508   5.509   4.221  10.919 -1.4771  1.3115 -1.7681
 6031TIP3    H239509   5.556   4.081  10.884 -0.2396  1.4292 -0.6063
 6032TIP3   OH239510   1.480   3.671   3.468  0.0158 -0.4918  0.0850
 6032TIP3    H139511   1.557   3.719   3.438 -1.5162  1.5697 -0.6218
 6032TIP3    H239512   1.484   3.675   3.564  0.3376  0.3123  0.0370
 6033TIP3   OH239513   1.652   2.793  12.790  0.0366 -0.1094 -0.0518
 6033TIP3    H139514   1.639   2.864  12.853  0.2944  0.8513 -1.0626
 6033TIP3    H239515   1.633   2.833  12.705  0.2688 -1.2295 -0.6375
 6034TIP3   OH239516   5.447   3.535   6.258  0.7582  0.3462 -0.4714
 6034TIP3    H139517   5.484   3.468   6.201  0.7385 -0.6177  0.6185
 6034TIP3    H239518   5.507   3.539   6.332 -0.3973 -0.0078  0.4951
 6035TIP3   OH239519   4.388   6.585   1.790 -0.3098  0.1041 -0.1189
 6035TIP3    H139520   4.406   6.658   1.849  0.4613 -0.2653  0.1145
 6035TIP3    H239521   4.352   6.517   1.846 -0.1034 -0.0454 -0.1650
 6036TIP3   OH239522   0.638   0.528  14.578 -0.6033  0.3312  0.6237
 6036TIP3    H139523   0.601   0.599  14.631 -1.3540  0.7714 -0.4663
 6036TIP3    H239524   0.615   0.551  14.488 -2.0055 -1.9889  0.3520
 6037TIP3   OH239525   1.793   4.029   0.126 -0.8061  0.3924 -0.2064
 6037TIP3    H139526   1.858   3.961   0.143 -3.0660 -1.9027 -0.4790
 6037TIP3    H239527   1.787   4.033   0.031 -0.4168  1.2538 -0.1967
 6038TIP3   OH239528   5.252   2.880   6.761  0.4159 -0.1985 -0.0641
 6038TIP3    H139529   5.265   2.956   6.819  0.7217 -0.9362  0.8556
 6038TIP3    H239530   5.232   2.918   6.676  0.7192  0.9218  0.3520
 6039TIP3   OH239531   1.412   6.097   3.639 -0.2844  0.2014  0.0510
 6039TIP3    H139532   1.466   6.149   3.698  0.4564  0.6748 -1.0315
 6039TIP3    H239533   1.334   6.151   3.623 -0.7286 -0.1488  0.9908
 6040TIP3   OH239534   6.326   6.317  14.553 -0.4434  0.2936 -0.1989
 6040TIP3    H139535   6.294   6.405  14.531 -0.6501  0.6195  1.3502
 6040TIP3    H239536   6.406   6.333  14.603 -0.6301 -0.3925  0.3197
 6041TIP3   OH239537   3.638   2.020  16.457 -0.2743 -0.8552  0.6985
 6041TIP3    H139538   3.579   2.095  16.465  1.0944  0.1320  1.9118
 6041TIP3    H239539   3.588   1.946  16.492 -1.0367 -0.1762  1.0642
 6042TIP3   OH239540   2.906   1.142   4.319 -0.0631 -0.0217 -0.0908
 6042TIP3    H139541   2.902   1.159   4.413 -0.9783  0.9133 -0.2878
 6042TIP3    H239542   2.922   1.048   4.312 -0.7045 -0.2225  0.9990
 6043TIP3   OH239543   1.259   4.752  14.557  0.1844  0.1091 -0.0452
 6043TIP3    H139544   1.304   4.816  14.500 -0.3294 -0.4800 -1.1187
 6043TIP3    H239545   1.310   4.672  14.547 -0.6044 -0.3249 -0.6031
 6044TIP3   OH239546   4.790   6.423   3.528  0.0276 -0.1466 -0.1230
 6044TIP3    H139547   4.808   6.338   3.568 -2.9799  0.2481  2.2403
 6044TIP3    H239548   4.747   6.401   3.445 -1.9306 -0.9687  1.0745
 6045TIP3   OH239549   2.330   0.911  16.198 -0.0114 -0.2924 -0.5919
 6045TIP3    H139550   2.361   0.843  16.138 -0.3849  0.6534 -1.8748
 6045TIP3    H239551   2.241   0.932  16.168 -0.6761 -0.6526  1.0327
 6046TIP3   OH239552   4.667   2.743  16.149 -0.1210  0.2180 -0.1565
 6046TIP3    H139553   4.650   2.829  16.111 -0.7753  0.1167 -0.0996
 6046TIP3    H239554   4.618   2.743  16.232 -0.2398 -0.2588 -0.2216
 6047TIP3   OH239555   5.128   3.377   2.467 -0.1776 -0.0512  0.3848
 6047TIP3    H139556   5.086   3.456   2.500 -0.0054  0.7333 -1.2048
 6047TIP3    H239557   5.221   3.398   2.467 -0.2371  0.2519 -1.3095
 6048TIP3   OH239558   4.615   3.966   5.704 -0.6168  0.2044  0.1112
 6048TIP3    H139559   4.545   3.908   5.733 -0.1057 -0.1311  0.6731
 6048TIP3    H239560   4.691   3.943   5.758  0.4304 -0.6070 -1.6451
 6049TIP3   OH239561   4.153   5.921   4.821 -0.3795  0.4160 -0.4075
 6049TIP3    H139562   4.093   5.976   4.770 -1.5344 -0.4063  0.0582
 6049TIP3    H239563   4.147   5.835   4.780 -2.4351 -0.6369  1.9827
 6050TIP3   OH239564   5.521   4.447  11.643 -0.1881 -0.1892  0.1615
 6050TIP3    H139565   5.615   4.451  11.655 -0.1295 -0.6975 -0.1176
 6050TIP3    H239566   5.487   4.413  11.726  0.1542 -3.0192 -0.7894
 6051TIP3   OH239567   3.358   5.050   3.939 -0.3032  0.4804  0.5540
 6051TIP3    H139568   3.311   5.026   4.019  0.8886 -0.0518  1.1138
 6051TIP3    H239569   3.439   4.998   3.942  0.2869  1.3158 -0.4191
 6052TIP3   OH239570   3.692   5.170   3.315  0.6527  0.3379  0.0534
 6052TIP3    H139571   3.725   5.214   3.393 -0.6848  2.2036 -0.3887
 6052TIP3    H239572   3.600   5.152   3.335  0.4235  0.4174 -0.8897
 6053TIP3   OH239573   3.238   0.114   0.274 -0.5270 -0.3231  0.1222
 6053TIP3    H139574   3.218   0.081   0.362 -0.5299  1.4299  0.8019
 6053TIP3    H239575   3.332   0.100   0.264 -0.4794 -0.2929  0.5191
 6054TIP3   OH239576   6.338   1.134   0.918  0.5012  0.0524 -0.5022
 6054TIP3    H139577   6.277   1.062   0.904 -0.0571  0.8129 -2.2015
 6054TIP3    H239578   6.424   1.097   0.899  0.4668 -0.7135  0.7518
 6055TIP3   OH239579   5.380   1.516   4.709  0.7765  0.2698 -0.5983
 6055TIP3    H139580   5.321   1.448   4.678  0.2721 -0.2300  1.4280
 6055TIP3    H239581   5.393   1.572   4.633 -1.1081 -0.4534 -1.4854
 6056TIP3   OH239582   0.181   4.667   1.408  0.0140 -0.0077  0.3987
 6056TIP3    H139583   0.174   4.762   1.397  2.0745  0.1738  0.5174
 6056TIP3    H239584   0.208   4.656   1.500  1.0440 -0.6481  0.0227
 6057TIP3   OH239585   3.681   3.018  13.563  0.0494 -0.1165 -0.1112
 6057TIP3    H139586   3.727   2.935  13.553 -1.5501 -1.2719  1.8374
 6057TIP3    H239587   3.636   3.031  13.480  1.1345 -0.6630 -0.7922
 6058TIP3   OH239588   3.446   3.209  15.837 -0.0857  0.0774 -0.7440
 6058TIP3    H139589   3.369   3.159  15.809  0.6422 -1.0109 -0.8313
 6058TIP3    H239590   3.515   3.181  15.777  0.5740  0.4562 -0.1642
 6059TIP3   OH239591   0.300   5.801  11.666  0.1571  0.2734 -0.0097
 6059TIP3    H139592   0.302   5.881  11.613  2.3769 -0.4655 -1.1020
 6059TIP3    H239593   0.286   5.731  11.603 -2.5141 -0.1740  1.0288
 6060TIP3   OH239594   1.478   0.847   6.116  0.0211 -0.1707 -0.7447
 6060TIP3    H139595   1.498   0.841   6.209  1.8009  0.7012 -1.0458
 6060TIP3    H239596   1.394   0.893   6.112  1.1380  2.0229  0.3581
 6061TIP3   OH239597   4.399   4.691  13.363  0.0246  0.1501  0.0791
 6061TIP3    H139598   4.458   4.621  13.388  0.7936  0.5743 -0.5199
 6061TIP3    H239599   4.332   4.693  13.432 -0.6422 -1.9028 -0.4862
 6062TIP3   OH239600   2.808   6.590  16.360 -0.6769 -0.2271  0.0310
 6062TIP3    H139601   2.767   6.526  16.301 -0.5492  0.2570 -0.5988
 6062TIP3    H239602   2.752   6.668  16.353 -2.5848 -1.2572  3.1472
 6063TIP3   OH239603   5.920   3.997  12.238  0.3462  0.2016  0.1401
 6063TIP3    H139604   5.884   3.985  12.150  0.9012  2.2276 -0.4055
 6063TIP3    H239605   5.956   3.912  12.261 -1.4760 -0.8674 -0.8103
 6064TIP3   OH239606   2.939   1.631   4.101 -0.8668  0.3825 -0.1115
 6064TIP3    H139607   2.893   1.575   4.164  0.4056  0.4719  0.9243
 6064TIP3    H239608   3.013   1.578   4.072 -1.8722  0.0589 -2.1320
 6065TIP3   OH239609   4.730   3.709   1.763  0.3630 -0.1700 -0.1554
 6065TIP3    H139610   4.655   3.767   1.777 -0.1953 -0.5568 -1.4472
 6065TIP3    H239611   4.786   3.757   1.702 -0.1149 -0.9609 -1.2531
 6066TIP3   OH239612   1.066   5.203  11.707 -0.0205 -0.3045  0.1264
 6066TIP3    H139613   1.111   5.120  11.696 -1.0879 -0.8930  0.0923
 6066TIP3    H239614   1.113   5.264  11.651  0.3544 -1.0461 -0.3717
 6067TIP3   OH239615   1.492   4.856   3.177  0.6433 -0.2253  0.1539
 6067TIP3    H139616   1.479   4.814   3.092 -1.7250  2.0612 -0.6872
 6067TIP3    H239617   1.516   4.946   3.155 -2.0079  0.9580  1.8488
 6068TIP3   OH239618   3.788   1.682  11.037 -0.5700 -0.0013  0.5321
 6068TIP3    H139619   3.731   1.701  10.963 -1.3704 -0.1483  1.1122
 6068TIP3    H239620   3.796   1.766  11.083 -0.3939 -0.0061  0.5128
 6069TIP3   OH239621   2.737   3.636  17.216  0.2922  0.4645  0.2399
 6069TIP3    H139622   2.781   3.553  17.197 -0.6433 -0.3429  1.5556
 6069TIP3    H239623   2.795   3.703  17.179  1.5811 -0.7007  0.1222
 6070TIP3   OH239624   4.063   2.077  13.988 -0.0504  0.5083 -0.7967
 6070TIP3    H139625   4.026   2.146  14.044 -0.5076  0.8228 -1.4798
 6070TIP3    H239626   3.999   2.067  13.917  0.6894  0.3532 -1.4481
 6071TIP3   OH239627   0.812   0.043  14.510  0.7353  0.2775 -0.3442
 6071TIP3    H139628   0.880   0.110  14.512 -0.5122  1.5838 -0.4933
 6071TIP3    H239629   0.734   0.087  14.544 -0.5217 -0.6141 -1.9631
 6072TIP3   OH239630   3.397   0.899  10.959  0.3627 -0.4094  0.0203
 6072TIP3    H139631   3.400   0.943  10.874 -1.8444  0.6619  0.4607
 6072TIP3    H239632   3.311   0.858  10.962  0.2179 -0.0124  1.9362
 6073TIP3   OH239633   5.986   0.958   2.246 -0.8342  0.1310  0.3054
 6073TIP3    H139634   5.907   1.011   2.231  0.6518  2.4049  0.2398
 6073TIP3    H239635   6.047   0.986   2.178  0.5567 -0.5176  1.2612
 6074TIP3   OH239636   4.482   3.582   4.857  0.2520 -0.0909  0.5021
 6074TIP3    H139637   4.573   3.555   4.871 -0.1956 -1.5795  0.5455
 6074TIP3    H239638   4.465   3.562   4.765  0.3547  1.3491  0.1610
 6075TIP3   OH239639   5.024   0.313  12.401  0.0863 -0.1906 -0.0064
 6075TIP3    H139640   5.112   0.311  12.438 -1.1136 -2.0736  2.9340
 6075TIP3    H239641   5.024   0.244  12.334  1.0502  0.3865 -0.6204
 6076TIP3   OH239642   0.641   0.342   4.515  0.7642 -0.0922  0.2838
 6076TIP3    H139643   0.619   0.421   4.565 -1.0705  0.6357 -1.5677
 6076TIP3    H239644   0.724   0.363   4.473  0.5460  0.6706  0.2217
 6077TIP3   OH239645   0.212   1.917   3.234  0.7061  0.2542 -0.0485
 6077TIP3    H139646   0.174   2.004   3.225  1.0025  0.6053  1.8999
 6077TIP3    H239647   0.139   1.861   3.260  0.7037  0.1223 -0.3431
 6078TIP3   OH239648   3.911   5.715  16.551 -0.2013  0.2929  0.0572
 6078TIP3    H139649   3.971   5.766  16.496 -0.0606  0.4097  0.3210
 6078TIP3    H239650   3.842   5.688  16.491 -0.4390  1.0558 -0.0176
 6079TIP3   OH239651   4.553   0.365  14.521 -0.3039 -0.1362 -0.8007
 6079TIP3    H139652   4.631   0.329  14.562 -0.5127 -2.1091 -2.0577
 6079TIP3    H239653   4.481   0.336  14.577 -0.1919  1.2503  0.0757
 6080TIP3   OH239654   4.402   1.584  13.324  0.3673 -0.2086 -0.2689
 6080TIP3    H139655   4.449   1.667  13.333 -0.1482  0.1075 -0.4879
 6080TIP3    H239656   4.316   1.601  13.364 -0.3372 -0.1380 -1.7917
 6081TIP3   OH239657   0.456   6.496   1.876 -0.0556  0.4620  0.3123
 6081TIP3    H139658   0.377   6.524   1.829 -0.7770 -1.2084  0.5191
 6081TIP3    H239659   0.523   6.559   1.848 -0.6403 -0.0658 -2.4446
 6082TIP3   OH239660   1.907   4.735   0.173  0.0920  0.4757 -0.0607
 6082TIP3    H139661   1.859   4.817   0.162  0.8517  1.1269  1.2766
 6082TIP3    H239662   1.926   4.732   0.267  3.1207  0.5124 -0.6230
 6083TIP3   OH239663   4.412   0.937  16.668  0.1501 -0.1052  0.0618
 6083TIP3    H139664   4.330   0.896  16.641 -0.0847  0.8642 -0.7566
 6083TIP3    H239665   4.446   0.881  16.738 -0.7529 -1.0121 -0.2153
 6084TIP3   OH239666   3.821   0.363  13.847 -0.3738  0.1194  0.2679
 6084TIP3    H139667   3.729   0.345  13.869 -0.5549  0.0698 -0.5122
 6084TIP3    H239668   3.825   0.458  13.838 -0.3626  0.1181  0.2582
 6085TIP3   OH239669   1.098   0.067   1.363  0.3246  0.4591  0.5376
 6085TIP3    H139670   1.044   0.006   1.413  3.3197 -2.9791 -0.2495
 6085TIP3    H239671   1.066   0.058   1.273  2.6898 -2.2918 -0.0949
 6086TIP3   OH239672   1.184   5.080   1.459 -0.0858 -0.2915 -0.2327
 6086TIP3    H139673   1.107   5.034   1.491  0.2354 -0.7222 -0.0802
 6086TIP3    H239674   1.150   5.163   1.425 -0.3302  0.6313  2.1427
 6087TIP3   OH239675   1.244   6.415  16.938  0.3207 -0.0849  0.8565
 6087TIP3    H139676   1.167   6.362  16.919 -1.5374  3.0925 -0.8814
 6087TIP3    H239677   1.251   6.415  17.033 -1.7010 -0.5738  1.0189
 6088TIP3   OH239678   0.434   2.560  13.690  0.4580 -0.1340  0.3015
 6088TIP3    H139679   0.394   2.638  13.729 -1.8816 -1.8008  1.3645
 6088TIP3    H239680   0.489   2.524  13.759  1.1565  0.2918 -0.0273
 6089TIP3   OH239681   4.329   4.293  11.287  0.5608  0.0718  0.1784
 6089TIP3    H139682   4.281   4.376  11.286  1.2725  0.4943 -1.5337
 6089TIP3    H239683   4.404   4.309  11.343 -1.2578 -0.6028  2.9108
 6090TIP3   OH239684   3.737   2.496  16.685 -0.4151  0.1149  0.0945
 6090TIP3    H139685   3.765   2.534  16.768  0.3450 -0.5899  0.1615
 6090TIP3    H239686   3.651   2.459  16.703 -0.0925 -0.3661  0.6679
 6091TIP3   OH239687   5.464   0.417   4.460 -0.0797 -0.1043  0.2218
 6091TIP3    H139688   5.531   0.399   4.394 -1.0360 -0.0911 -0.7641
 6091TIP3    H239689   5.479   0.351   4.528 -0.3741 -1.4434 -0.9922
 6092TIP3   OH239690   2.255   2.262   2.044  0.0786 -0.7374 -0.2869
 6092TIP3    H139691   2.323   2.276   2.109 -1.0872 -0.3243  0.8677
 6092TIP3    H239692   2.220   2.175   2.065  0.4837 -1.0931 -1.0872
 6093TIP3   OH239693   3.631   5.781   5.400  0.2127  0.0828 -0.1336
 6093TIP3    H139694   3.708   5.761   5.454 -1.0575 -0.3860  1.5367
 6093TIP3    H239695   3.641   5.725   5.322  0.9216 -0.9051  0.6547
 6094TIP3   OH239696   6.590   4.030  17.178  0.9458  0.4707 -0.0591
 6094TIP3    H139697   6.675   3.989  17.160  0.9248  0.6842 -0.6729
 6094TIP3    H239698   6.559   4.058  17.092  0.5851  1.0381  0.2532
 6095TIP3   OH239699   6.152   1.318  17.111  0.1433  0.2087  0.1967
 6095TIP3    H139700   6.113   1.292  17.194 -0.4030  1.5786  0.3905
 6095TIP3    H239701   6.186   1.237  17.073 -0.0347 -0.4946  1.5281
 6096TIP3   OH239702   5.546   3.385  15.576 -0.0492  0.1216  0.3445
 6096TIP3    H139703   5.489   3.379  15.499  0.3207 -1.4834  0.1685
 6096TIP3    H239704   5.630   3.414  15.541 -0.3183  0.9294  0.3706
 6097TIP3   OH239705   2.819   5.727   3.180  0.0145  0.2944 -0.3669
 6097TIP3    H139706   2.858   5.807   3.213  1.7689  0.1644 -2.0577
 6097TIP3    H239707   2.809   5.741   3.086 -1.2511 -0.8202 -0.4264
 6098TIP3   OH239708   3.985   0.280   4.660 -0.5059  0.3687  0.1398
 6098TIP3    H139709   3.996   0.363   4.614 -0.3747  0.3964  0.2203
 6098TIP3    H239710   4.052   0.223   4.623 -1.3102 -0.0487 -0.7009
 6099TIP3   OH239711   6.001   2.161   2.157 -0.8231  0.3610  0.5236
 6099TIP3    H139712   6.006   2.065   2.162 -1.1543  0.4001  1.7266
 6099TIP3    H239713   6.068   2.192   2.217  2.1287  0.9277 -2.9223
 6100TIP3   OH239714   4.242   4.221   3.889  0.5273 -0.5340  0.4331
 6100TIP3    H139715   4.163   4.258   3.927  0.2563 -1.2398  0.5614
 6100TIP3    H239716   4.239   4.245   3.797  0.1302 -0.6271  0.4248
 6101TIP3   OH239717   2.395   0.727  12.409  0.4658  0.2281 -0.4130
 6101TIP3    H139718   2.466   0.761  12.464  2.5633  0.4472 -3.1381
 6101TIP3    H239719   2.407   0.632  12.411  1.1434  0.2912 -1.2419
 6102TIP3   OH239720   3.408   0.096  15.974 -0.9102 -0.0670 -0.0607
 6102TIP3    H139721   3.396   0.115  15.881  1.0459  0.8843 -0.1326
 6102TIP3    H239722   3.448   0.009  15.976  0.8042  0.7062 -0.1977
 6103TIP3   OH239723   0.852   4.380  16.674  0.3356  0.3591  0.2074
 6103TIP3    H139724   0.891   4.449  16.621  2.1839 -0.6543  0.1767
 6103TIP3    H239725   0.819   4.316  16.611  2.2285 -0.6818  0.2233
 6104TIP3   OH239726   0.831   3.107  11.741 -0.0157  0.6657  0.2034
 6104TIP3    H139727   0.754   3.087  11.687 -0.2782  0.1991  0.7525
 6104TIP3    H239728   0.822   3.200  11.761 -0.2577  0.6899 -0.0143
 6105TIP3   OH239729   4.033   5.270   0.795  0.1836  0.1761  0.3115
 6105TIP3    H139730   4.109   5.319   0.765  0.1638  0.0614  0.0740
 6105TIP3    H239731   3.964   5.336   0.804  0.4873  0.3760  1.1313
 6106TIP3   OH239732   3.631   6.350   3.592 -0.1843 -0.1356 -0.1049
 6106TIP3    H139733   3.723   6.344   3.565 -1.0054 -3.2940 -2.5618
 6106TIP3    H239734   3.592   6.408   3.526  0.2311  2.4003  1.7725
 6107TIP3   OH239735   4.466   0.899   4.144  0.2938  0.1021 -0.6570
 6107TIP3    H139736   4.410   0.828   4.114  0.5376 -0.3584 -0.0317
 6107TIP3    H239737   4.555   0.866   4.135  0.4612  0.6964 -1.2994
 6108TIP3   OH239738   0.660   2.166   1.439  0.0038  0.4594 -0.0473
 6108TIP3    H139739   0.717   2.162   1.362  0.2008  0.3781  0.1029
 6108TIP3    H239740   0.692   2.241   1.489  1.1818 -0.7248  0.9910
 6109TIP3   OH239741   6.027   2.841   4.120 -0.0052  0.8899 -0.1941
 6109TIP3    H139742   6.052   2.931   4.100  0.2461  0.7728 -0.4209
 6109TIP3    H239743   5.988   2.809   4.039  0.3768  0.6323 -0.2772
 6110TIP3   OH239744   0.865   2.683  12.981 -0.1954 -0.2741 -0.2436
 6110TIP3    H139745   0.916   2.730  12.915 -0.7231  2.0950  0.9975
 6110TIP3    H239746   0.917   2.691  13.061  0.7148 -3.5993 -0.4044
 6111TIP3   OH239747   5.519   6.484  16.002  1.0045 -0.0440 -1.0758
 6111TIP3    H139748   5.500   6.399  15.961  0.1262 -0.8320  0.9148
 6111TIP3    H239749   5.577   6.463  16.075 -0.9545  0.7756  0.7619
 6112TIP3   OH239750   0.004   5.130  14.152 -0.0487 -0.0738  0.1635
 6112TIP3    H139751   0.015   5.199  14.087  3.0837 -0.0722  0.6327
 6112TIP3    H239752  -0.044   5.061  14.106  1.6056  0.1625 -1.9833
 6113TIP3   OH239753   3.828   3.532   2.590  0.6208 -0.3573  0.9723
 6113TIP3    H139754   3.750   3.483   2.564 -1.1133  1.8330  1.8932
 6113TIP3    H239755   3.824   3.535   2.685  0.4456  1.8961  0.9273
 6114TIP3   OH239756   4.008   0.643   2.926  0.0628  0.3222  0.0413
 6114TIP3    H139757   3.959   0.682   2.998  0.0039  0.4012 -0.0414
 6114TIP3    H239758   3.941   0.625   2.859  0.0162 -0.3464  0.2659
 6115TIP3   OH239759   3.012   5.469  13.756 -0.2844 -0.5449  0.5236
 6115TIP3    H139760   2.992   5.401  13.820  1.6656 -0.6525  1.0626
 6115TIP3    H239761   3.108   5.470  13.752 -0.3613 -0.3131 -2.1517
 6116TIP3   OH239762   0.981   2.380  10.962  1.0653 -0.2578 -0.3456
 6116TIP3    H139763   0.942   2.325  10.894 -0.8942  2.0016 -1.0952
 6116TIP3    H239764   1.018   2.455  10.915 -0.4883  1.4280  1.0408
 6117TIP3   OH239765   3.334   4.390  11.565  1.2100 -0.3294 -0.4430
 6117TIP3    H139766   3.294   4.406  11.479  2.0011  1.5397 -0.4848
 6117TIP3    H239767   3.300   4.460  11.621  0.6246 -1.5884  0.8119
 6118TIP3   OH239768   4.714   5.981   6.445 -0.2149 -0.5099  0.0947
 6118TIP3    H139769   4.667   5.966   6.527 -1.8031  0.9127 -0.5292
 6118TIP3    H239770   4.765   5.901   6.432 -0.6602 -1.1257  1.9921
 6119TIP3   OH239771   6.178   1.321  13.257  0.2914 -0.1975  0.2728
 6119TIP3    H139772   6.141   1.241  13.296 -1.9849  1.1498  1.0007
 6119TIP3    H239773   6.229   1.290  13.183 -2.4752 -2.1990 -0.9022
 6120TIP3   OH239774   2.558   0.668   5.772 -0.3826  0.3061  0.0664
 6120TIP3    H139775   2.576   0.735   5.706  0.7771  0.3163  0.3845
 6120TIP3    H239776   2.610   0.694   5.848 -0.5427 -0.5212  0.4677
 6121TIP3   OH239777   6.327   6.100   2.544 -0.8358  0.0431  0.1367
 6121TIP3    H139778   6.296   6.185   2.576 -2.4567  0.2339 -1.7824
 6121TIP3    H239779   6.418   6.115   2.518 -0.8165  0.9423  0.7170
 6122TIP3   OH239780   2.596   6.279  15.152 -0.2238 -0.6710 -0.4272
 6122TIP3    H139781   2.545   6.351  15.116  0.7025  1.4346  2.3459
 6122TIP3    H239782   2.642   6.242  15.076 -1.2715  1.1715 -1.9984
 6123TIP3   OH239783   2.518   1.584  13.250 -0.0456 -0.3033 -0.4487
 6123TIP3    H139784   2.520   1.500  13.204 -1.8946 -0.4840 -0.2393
 6123TIP3    H239785   2.471   1.566  13.331 -0.8533  1.0292 -0.6058
 6124TIP3   OH239786   5.515   0.919   4.294 -0.1119 -0.1784  0.5239
 6124TIP3    H139787   5.459   0.993   4.318  0.4579  0.2787  0.4733
 6124TIP3    H239788   5.465   0.871   4.228 -0.9956 -0.5281  1.4464
 6125TIP3   OH239789   3.817   5.190  14.971  0.1861  0.0206 -0.2626
 6125TIP3    H139790   3.906   5.226  14.975  0.9535 -1.7831 -0.3133
 6125TIP3    H239791   3.779   5.209  15.057  0.6833  0.6287 -0.1710
 6126TIP3   OH239792   6.444   5.368   4.270 -0.0689  0.0294  0.2643
 6126TIP3    H139793   6.498   5.432   4.224 -0.4128 -0.5363 -0.9620
 6126TIP3    H239794   6.428   5.300   4.205 -1.3823 -0.3142  0.9273
 6127TIP3   OH239795   2.260   3.238  13.414 -0.1709  0.1586 -0.8214
 6127TIP3    H139796   2.339   3.202  13.371 -0.6804 -0.2003 -1.4730
 6127TIP3    H239797   2.194   3.239  13.344 -0.2993  1.9329 -0.6848
 6128TIP3   OH239798   3.295   0.189   4.952  0.1698 -0.3031  0.7135
 6128TIP3    H139799   3.227   0.245   4.913  0.3311  0.1257  1.0574
 6128TIP3    H239800   3.365   0.188   4.887  1.0950  1.6556  1.6376
 6129TIP3   OH239801   5.831   0.112   4.222  0.1286 -0.3180 -0.0683
 6129TIP3    H139802   5.820   0.038   4.281 -2.4350  0.0056 -0.0933
 6129TIP3    H239803   5.887   0.078   4.151  0.7822 -1.5541  1.0164
 6130TIP3   OH239804   2.078   4.784  15.502  0.3094 -1.1001 -0.2139
 6130TIP3    H139805   2.030   4.739  15.572 -1.3172 -1.4655 -1.5299
 6130TIP3    H239806   2.159   4.734  15.492 -0.6861 -2.6904 -0.4598
 6131TIP3   OH239807   2.061   0.670   5.152  0.7605  0.4897 -0.1830
 6131TIP3    H139808   2.027   0.622   5.077 -1.8572 -0.0184  1.2357
 6131TIP3    H239809   2.154   0.679   5.136  0.7795 -2.4171 -1.9286
 6132TIP3   OH239810   0.899   0.745  12.786  0.0306 -0.1728 -0.5267
 6132TIP3    H139811   0.864   0.702  12.709 -0.9463 -0.8788  0.2876
 6132TIP3    H239812   0.859   0.832  12.786 -0.0235 -0.1991 -0.7734
 6133TIP3   OH239813   4.108   0.841  11.966 -0.0415  0.3379  0.3497
 6133TIP3    H139814   4.134   0.909  11.904  0.7028  0.1418  0.4414
 6133TIP3    H239815   4.148   0.761  11.931  0.0817  0.1665  0.8834
 6134TIP3   OH239816   3.117   0.006   5.135  0.1667  0.0650 -0.1649
 6134TIP3    H139817   3.028   0.035   5.117 -0.1798 -2.1829 -2.2189
 6134TIP3    H239818   3.172   0.066   5.084 -0.2791 -0.0914 -0.8217
 6135TIP3   OH239819   5.151   2.082  14.429  0.3423  0.3420 -0.5147
 6135TIP3    H139820   5.173   2.067  14.337  1.2688  0.7089 -0.3591
 6135TIP3    H239821   5.148   1.995  14.468  0.3086  0.2119 -0.8096
 6136TIP3   OH239822   0.579   1.645  15.397  0.0686  0.2886 -1.0702
 6136TIP3    H139823   0.500   1.624  15.346 -0.1898 -2.0881  0.2125
 6136TIP3    H239824   0.645   1.585  15.364  0.2801 -0.3162  0.4114
 6137TIP3   OH239825   2.576   5.670  12.003 -0.2614 -0.7406 -0.1596
 6137TIP3    H139826   2.514   5.739  11.978 -2.3436 -2.1217  1.0832
 6137TIP3    H239827   2.559   5.654  12.096  3.5839  0.4628  0.8433
 6138TIP3   OH239828   4.058   1.315  11.297  0.5732 -0.0581 -0.8551
 6138TIP3    H139829   4.048   1.367  11.218 -0.5760 -1.1381 -1.4356
 6138TIP3    H239830   3.975   1.325  11.343  0.7093 -0.5778 -0.4933
 6139TIP3   OH239831   1.925   1.462   2.406  0.7889  0.3993 -0.1959
 6139TIP3    H139832   1.844   1.414   2.425  1.6349 -0.2442  1.9132
 6139TIP3    H239833   1.966   1.412   2.335 -0.0073 -0.0077 -0.3834
 6140TIP3   OH239834   6.360   1.815   1.501  0.6182  0.0552 -0.1562
 6140TIP3    H139835   6.386   1.792   1.412  0.8417  1.3594 -0.4305
 6140TIP3    H239836   6.398   1.901   1.516 -0.2766  0.2855  0.8402
 6141TIP3   OH239837   6.286   3.703  15.549 -0.1614 -0.0948 -0.0780
 6141TIP3    H139838   6.342   3.772  15.585 -0.2893  0.3527 -0.7364
 6141TIP3    H239839   6.242   3.744  15.475 -1.4571 -0.4079  0.4990
 6142TIP3   OH239840   2.990   2.488  16.573  0.4865  0.2678 -0.2409
 6142TIP3    H139841   2.972   2.418  16.510  1.8126 -1.0901  0.8586
 6142TIP3    H239842   2.905   2.530  16.586 -0.0107 -0.0761 -2.1422
 6143TIP3   OH239843   6.711   0.812  12.314 -0.1163 -0.4407 -0.2594
 6143TIP3    H139844   6.634   0.781  12.266 -0.9067 -0.8234  1.2470
 6143TIP3    H239845   6.752   0.876  12.255 -1.5125 -0.3288 -1.1173
 6144TIP3   OH239846   2.380   2.690  13.810 -0.2859  0.0162 -0.3141
 6144TIP3    H139847   2.341   2.685  13.898  0.7769  0.3513  0.1869
 6144TIP3    H239848   2.385   2.599  13.781 -1.4861 -0.0306 -0.4125
 6145TIP3   OH239849   1.794   0.692  15.009 -0.0637  0.3077 -0.0578
 6145TIP3    H139850   1.715   0.643  14.986  0.8216 -0.3778 -1.7396
 6145TIP3    H239851   1.769   0.744  15.085 -1.7735 -0.8343  0.1864
 6146TIP3   OH239852   2.777   0.890   2.490  0.1315  0.3717  0.6070
 6146TIP3    H139853   2.737   0.811   2.527 -0.7083  0.0151 -1.0336
 6146TIP3    H239854   2.866   0.863   2.466  0.4824  0.4474  1.8064
 6147TIP3   OH239855   5.447   3.021  11.193 -0.5352 -0.1771 -0.1645
 6147TIP3    H139856   5.383   3.085  11.163  1.3469  2.6142  1.5857
 6147TIP3    H239857   5.480   2.981  11.112  0.0691  2.8779 -1.4952
 6148TIP3   OH239858   0.337   2.115  13.167  0.2391 -0.4866  0.6152
 6148TIP3    H139859   0.369   2.036  13.124  0.4205 -0.6383  1.0279
 6148TIP3    H239860   0.249   2.092  13.196 -0.4927  0.1147 -1.0207
 6149TIP3   OH239861   3.030   3.128   0.557  0.3348  0.2328 -0.4327
 6149TIP3    H139862   2.947   3.171   0.576  0.3025  0.7076 -1.5970
 6149TIP3    H239863   3.010   3.066   0.488  1.1199  1.0070 -1.3746
 6150TIP3   OH239864   1.888   0.243  12.244  0.0100  0.1383  0.2179
 6150TIP3    H139865   1.969   0.293  12.244  0.8128 -1.1202 -1.7242
 6150TIP3    H239866   1.823   0.302  12.284  1.3671  1.9576 -0.2216
 6151TIP3   OH239867   3.170   2.092  16.629 -0.6565 -0.5750  0.1722
 6151TIP3    H139868   3.222   2.011  16.626 -0.3095 -0.3777  0.7268
 6151TIP3    H239869   3.088   2.066  16.672 -0.7809 -0.7585 -0.1718
 6152TIP3   OH239870   5.017   1.516   4.633  0.1230  0.1220 -0.0360
 6152TIP3    H139871   5.103   1.489   4.664 -0.3603 -0.4994  0.7603
 6152TIP3    H239872   4.955   1.462   4.682 -0.8086  1.9001  0.7938
 6153TIP3   OH239873   0.916   6.563   5.104  0.2117 -0.5010  0.3943
 6153TIP3    H139874   0.846   6.602   5.157 -0.3776 -1.2561  0.1891
 6153TIP3    H239875   0.936   6.481   5.149 -0.5880 -1.3588 -0.7626
 6154TIP3   OH239876   1.087   4.466   0.903 -0.1640 -0.0862  0.0490
 6154TIP3    H139877   1.039   4.389   0.872 -0.6825  0.7035 -1.1783
 6154TIP3    H239878   1.025   4.538   0.892  0.2677  0.4876  1.3251
 6155TIP3   OH239879   6.376   2.830   0.201 -0.5454 -0.5112 -0.7082
 6155TIP3    H139880   6.371   2.748   0.152 -0.7406 -0.2848 -1.0672
 6155TIP3    H239881   6.303   2.882   0.167  0.3538  0.3133 -1.3809
 6156TIP3   OH239882   3.878   3.377   6.485 -0.1063 -0.1544  0.2670
 6156TIP3    H139883   3.872   3.393   6.579  1.8953  1.3913  0.1790
 6156TIP3    H239884   3.887   3.464   6.447 -1.2764 -0.7463 -1.4088
 6157TIP3   OH239885   4.388   1.603  16.079  0.3342  0.1099  0.7239
 6157TIP3    H139886   4.432   1.615  16.164  2.6763 -1.3258 -0.2425
 6157TIP3    H239887   4.404   1.511  16.057 -0.5427  0.3814 -1.1214
 6158TIP3   OH239888   0.887   1.019   5.626 -0.5393  0.3217  0.3622
 6158TIP3    H139889   0.815   1.082   5.632 -1.0300 -0.1814 -0.1352
 6158TIP3    H239890   0.918   1.027   5.536 -2.0216 -1.6753 -0.3410
 6159TIP3   OH239891   1.439   5.347   1.267 -0.2065 -0.0369  0.7995
 6159TIP3    H139892   1.396   5.430   1.287 -1.5902 -0.5944  0.2750
 6159TIP3    H239893   1.461   5.352   1.174 -1.9356 -0.9247  0.3041
 6160TIP3   OH239894   5.560   2.277   0.199  0.2809  0.1313  0.5670
 6160TIP3    H139895   5.610   2.329   0.262  3.2840 -0.9707 -0.8021
 6160TIP3    H239896   5.559   2.330   0.119  0.8633 -0.6324  0.0420
 6161TIP3   OH239897   1.525   4.399  13.607  0.6376  0.0053  0.1669
 6161TIP3    H139898   1.472   4.435  13.679 -1.0544 -0.4356 -0.8325
 6161TIP3    H239899   1.614   4.428  13.627 -0.2989  2.7546  0.6748
 6162TIP3   OH239900   0.720   3.703   0.430  0.3318 -0.0502 -0.5774
 6162TIP3    H139901   0.724   3.612   0.459  0.2937  0.0548 -0.2294
 6162TIP3    H239902   0.742   3.701   0.337 -0.7904 -0.5575 -0.8424
 6163TIP3   OH239903   4.835   5.000   3.781 -0.2798  0.1656 -0.5809
 6163TIP3    H139904   4.826   5.077   3.725  2.4962  0.3024 -0.9209
 6163TIP3    H239905   4.820   5.034   3.870 -0.0318  0.9191 -0.8213
 6164TIP3   OH239906   5.470   4.162   5.320 -0.0596 -0.4593  0.5538
 6164TIP3    H139907   5.462   4.178   5.226 -0.1304 -1.3019  0.4152
 6164TIP3    H239908   5.551   4.112   5.329  0.1146 -0.1057  0.9720
 6165TIP3   OH239909   2.063   3.237  14.533  0.2485 -0.0514  0.0028
 6165TIP3    H139910   2.123   3.270  14.600 -1.4157 -0.4375  1.7208
 6165TIP3    H239911   2.097   3.150  14.512  0.3799 -0.2247  0.8924
 6166TIP3   OH239912   0.980   4.053   3.350  0.0487  0.2799  0.0741
 6166TIP3    H139913   0.961   4.075   3.441  2.0321 -1.6108  0.9817
 6166TIP3    H239914   0.962   3.959   3.344  2.5321 -0.1688 -0.7475
 6167TIP3   OH239915   5.234   3.593   4.175 -0.4466 -0.0097 -0.5207
 6167TIP3    H139916   5.276   3.512   4.202  0.1630  1.3239  2.7674
 6167TIP3    H239917   5.149   3.592   4.218 -0.1692  1.3717  0.1029
 6168TIP3   OH239918   0.092   0.239  16.308 -0.4149 -0.2687  0.0333
 6168TIP3    H139919   0.052   0.152  16.301  3.0807 -1.8968 -0.7576
 6168TIP3    H239920   0.110   0.264  16.217  0.8751  0.1657  0.4035
 6169TIP3   OH239921   2.960   3.752  11.467 -0.3364 -0.9491  0.4339
 6169TIP3    H139922   3.052   3.725  11.466 -0.2536 -0.6913 -1.4188
 6169TIP3    H239923   2.911   3.670  11.469 -0.0785 -1.0841  1.6852
 6170TIP3   OH239924   6.461   3.439   0.207 -0.0462  0.3608 -0.2446
 6170TIP3    H139925   6.365   3.437   0.200 -0.1776  0.2269  1.3505
 6170TIP3    H239926   6.482   3.369   0.268  0.7871  2.4913  1.9948
 6171TIP3   OH239927   4.653   0.005   1.833  0.0586  0.1931 -0.3652
 6171TIP3    H139928   4.662  -0.088   1.855 -0.1718  0.1708 -0.3573
 6171TIP3    H239929   4.740   0.041   1.845  0.0902  0.0321 -0.1030
 6172TIP3   OH239930   4.590   6.017   0.737 -0.3703 -0.1551  0.1844
 6172TIP3    H139931   4.680   6.017   0.705 -0.5415  0.4830 -0.3076
 6172TIP3    H239932   4.594   6.063   0.820  0.0172 -1.4989  0.9216
 6173TIP3   OH239933   1.305   2.200   4.398  0.0676  0.1189 -0.1541
 6173TIP3    H139934   1.342   2.284   4.370  0.2979  0.8698  2.3011
 6173TIP3    H239935   1.227   2.190   4.343  0.8559  1.2050 -1.5230
 6174TIP3   OH239936   0.517   5.294  11.051 -0.7564 -0.5232 -0.3348
 6174TIP3    H139937   0.524   5.348  11.130 -0.1602 -0.2619 -0.5663
 6174TIP3    H239938   0.593   5.237  11.054 -0.9888 -0.8389 -0.4731
 6175TIP3   OH239939   0.713   1.198  11.837  0.2998 -0.2888 -0.1031
 6175TIP3    H139940   0.704   1.119  11.784  3.3010 -1.0126  0.3375
 6175TIP3    H239941   0.772   1.254  11.787  0.1590  0.6260  0.7398
 6176TIP3   OH239942   1.427   4.245  16.558  0.6744  0.4565  0.0276
 6176TIP3    H139943   1.462   4.300  16.488 -1.7549 -0.0519 -1.6649
 6176TIP3    H239944   1.385   4.307  16.618 -0.1062  0.6369 -0.6985
 6177TIP3   OH239945   3.644   2.043   1.134 -0.2751  0.1259 -0.4817
 6177TIP3    H139946   3.719   1.987   1.148  0.1545  0.1324 -2.5131
 6177TIP3    H239947   3.653   2.113   1.199  1.2562 -0.0879 -0.4461
 6178TIP3   OH239948   2.155   5.546   0.066 -0.0397  0.5759  0.0783
 6178TIP3    H139949   2.149   5.606  -0.008 -0.2490  1.5939  0.9184
 6178TIP3    H239950   2.166   5.460   0.026  0.7596  1.2310 -1.1227
 6179TIP3   OH239951   2.243   0.179  13.552  0.5386  0.6839 -0.3188
 6179TIP3    H139952   2.255   0.221  13.467  1.3036  0.3305 -0.3901
 6179TIP3    H239953   2.331   0.155  13.580  0.2858  0.7374  0.5429
 6180TIP3   OH239954   1.080   0.168  10.998  0.2991 -0.1393 -0.1451
 6180TIP3    H139955   1.003   0.190  10.945  1.0498  1.3486 -0.6601
 6180TIP3    H239956   1.155   0.191  10.943  1.1004  0.7704  1.2829
 6181TIP3   OH239957   0.723   0.995   3.847 -0.2626  0.5746 -0.1693
 6181TIP3    H139958   0.777   1.069   3.818 -0.1323 -0.0390 -1.5567
 6181TIP3    H239959   0.655   0.988   3.780 -0.6014 -0.2127  0.2481
 6182TIP3   OH239960   6.747   5.010   6.217 -0.4341  0.3032 -0.2407
 6182TIP3    H139961   6.685   5.069   6.261  1.2701  0.7377  1.6645
 6182TIP3    H239962   6.782   4.956   6.288  0.7614 -0.4878 -1.4259
 6183TIP3   OH239963   0.015   5.364  15.134 -0.6829  0.4102 -0.0201
 6183TIP3    H139964   0.004   5.394  15.044 -2.9718 -0.1277  0.0484
 6183TIP3    H239965   0.070   5.286  15.127 -0.7095  0.4661 -0.9389
 6184TIP3   OH239966   0.004   0.384   0.586  0.0899 -0.2171 -0.2893
 6184TIP3    H139967  -0.041   0.352   0.508  0.7333  0.5188 -0.9754
 6184TIP3    H239968   0.058   0.311   0.615  0.2988 -0.2958 -0.8777
 6185TIP3   OH239969   2.469   4.800  14.037 -0.1112 -0.4210 -0.0590
 6185TIP3    H139970   2.551   4.847  14.051  0.3388 -0.7417 -1.5299
 6185TIP3    H239971   2.422   4.809  14.120  0.7514  1.0570  0.2938
 6186TIP3   OH239972   2.073   4.751   2.342  0.8163  0.0370 -0.3087
 6186TIP3    H139973   2.034   4.796   2.267 -0.6164  0.7867  0.8677
 6186TIP3    H239974   2.060   4.658   2.323  0.1160  0.2330 -0.8202
 6187TIP3   OH239975   3.589   2.819  15.296 -0.3686  0.1135 -0.3026
 6187TIP3    H139976   3.563   2.735  15.332 -1.5438  0.2798 -0.7447
 6187TIP3    H239977   3.530   2.833  15.222 -1.8312  2.4638  1.2588
 6188TIP3   OH239978   3.088   4.558  11.026 -0.1121 -0.0019  0.0251
 6188TIP3    H139979   3.147   4.617  10.978 -0.3452  0.7588  0.6646
 6188TIP3    H239980   3.123   4.471  11.010  0.1332  0.2951 -1.0845
 6189TIP3   OH239981   3.493   6.580   6.013  0.2958  0.5644  0.2405
 6189TIP3    H139982   3.416   6.634   5.996  0.8517  0.5838 -2.3711
 6189TIP3    H239983   3.563   6.622   5.964  1.5121 -0.5899  0.9675
 6190TIP3   OH239984   0.833   0.723  14.355 -0.2167 -0.0678  0.0809
 6190TIP3    H139985   0.797   0.643  14.317 -0.9283  0.1799  0.2285
 6190TIP3    H239986   0.762   0.787  14.350  0.4625  0.6614 -0.3591
 6191TIP3   OH239987   3.202   0.740   4.995 -0.1415  0.4970  0.3451
 6191TIP3    H139988   3.153   0.814   5.030  0.5005  0.8619  0.4962
 6191TIP3    H239989   3.284   0.740   5.044 -0.9458 -1.5481  1.7533
 6192TIP3   OH239990   5.834   3.603  13.000  0.2220 -0.0447 -0.0389
 6192TIP3    H139991   5.917   3.651  12.989  1.0003 -1.0893  1.1377
 6192TIP3    H239992   5.842   3.529  12.940  0.7535 -0.9183  1.0882
 6193TIP3   OH239993   6.609   3.458  12.367 -0.3015  0.4276  0.4772
 6193TIP3    H139994   6.654   3.425  12.289 -0.3852  2.7232 -0.6075
 6193TIP3    H239995   6.517   3.435  12.353 -0.2512  0.4646  0.0724
 6194TIP3   OH239996   6.548   5.680   0.703  0.6478 -0.6198  0.7406
 6194TIP3    H139997   6.506   5.598   0.676  0.9856 -0.6294  0.2290
 6194TIP3    H239998   6.486   5.721   0.762 -0.0482 -0.6705  0.0497
 6195TIP3   OH239999   0.843   5.680   3.496  0.0554 -0.7071 -0.2713
 6195TIP3    H140000   0.873   5.590   3.508 -0.8525 -1.0988 -0.8756
 6195TIP3    H240001   0.867   5.702   3.406  0.5504 -0.2379 -0.0273
 6196TIP3   OH240002   5.241   5.580   0.407  0.0876 -0.1158 -0.1799
 6196TIP3    H140003   5.255   5.615   0.319  0.2966 -0.0265 -0.1108
 6196TIP3    H240004   5.250   5.485   0.396 -1.8447 -0.2829 -0.6352
 6197TIP3   OH240005   2.058   1.717  16.328 -0.3758 -0.9801 -0.2024
 6197TIP3    H140006   2.036   1.800  16.284  0.3296 -0.2730  0.7623
 6197TIP3    H240007   2.063   1.653  16.257  1.8252  0.3756 -1.3320
 6198TIP3   OH240008   0.192   1.366  15.203  0.1382  0.9094  0.5425
 6198TIP3    H140009   0.272   1.320  15.228 -1.0002 -0.7500  1.2510
 6198TIP3    H240010   0.216   1.415  15.124  1.7966  0.2980  0.6464
 6199TIP3   OH240011   3.077   1.160  10.670  0.5976 -0.4520  0.5967
 6199TIP3    H140012   3.147   1.099  10.646 -0.9753 -2.6411  1.3846
 6199TIP3    H240013   3.029   1.115  10.739 -0.9068  1.5133  0.8789
 6200TIP3   OH240014   3.234   3.681   4.309 -0.5179 -0.3430  0.1354
 6200TIP3    H140015   3.325   3.652   4.297 -0.7473 -0.7383 -0.6860
 6200TIP3    H240016   3.239   3.777   4.306 -0.1978 -0.3741 -0.4876
 6201TIP3   OH240017   0.118   6.440   5.543 -0.0307  0.0158  0.2927
 6201TIP3    H140018   0.113   6.477   5.631 -0.3736 -0.4728  0.4803
 6201TIP3    H240019   0.212   6.436   5.524  0.0595 -0.2848  0.8080
 6202TIP3   OH240020   0.050   6.655   0.036  0.2202 -0.1037  0.4708
 6202TIP3    H140021   0.034   6.731   0.093  1.9209 -0.4740  1.4948
 6202TIP3    H240022  -0.015   6.591   0.064 -1.7003  1.1865 -0.8783
 6203TIP3   OH240023   1.393   5.351  15.237 -0.1297 -0.1537 -0.4791
 6203TIP3    H140024   1.338   5.374  15.163 -0.1260  0.0121 -0.4324
 6203TIP3    H240025   1.333   5.343  15.311 -0.2229 -1.0899 -0.6618
 6204TIP3   OH240026   4.664   4.937  13.377  0.1617 -0.1629  0.1211
 6204TIP3    H140027   4.606   4.864  13.356  0.2275  0.3261 -1.7847
 6204TIP3    H240028   4.748   4.895  13.397 -1.0615 -0.9626  4.0385
 6205TIP3   OH240029   5.955   0.831  11.784  0.2431  0.5859  0.1893
 6205TIP3    H140030   5.923   0.886  11.713 -1.2878  0.0579  0.4537
 6205TIP3    H240031   6.050   0.845  11.785  0.3018  0.4091 -2.0966
 6206TIP3   OH240032   0.515   0.012  15.947  0.1996  0.1855  0.3585
 6206TIP3    H140033   0.488   0.009  16.039  3.0414 -1.6988  1.2063
 6206TIP3    H240034   0.587   0.075  15.946  0.0782  0.3080 -0.6142
 6207TIP3   OH240035   6.199   1.674  15.165  0.2556 -0.5205 -0.0957
 6207TIP3    H140036   6.173   1.582  15.158  0.3989 -0.6018  0.4728
 6207TIP3    H240037   6.117   1.722  15.158  0.0028 -0.7585  1.1959
 6208TIP3   OH240038   0.711   2.147  11.089 -0.0723 -0.1736  0.5620
 6208TIP3    H140039   0.733   2.054  11.092  0.8995 -0.0087 -0.7480
 6208TIP3    H240040   0.727   2.178  11.178 -2.3415 -1.6508  1.5291
 6209TIP3   OH240041   4.380   5.919   1.561  0.2697  0.2987 -0.0382
 6209TIP3    H140042   4.377   5.938   1.654  0.9500  1.7405 -0.3005
 6209TIP3    H240043   4.302   5.961   1.525  0.1693  0.0053 -0.1648
 6210TIP3   OH240044   2.811   1.840   3.358 -0.0661  0.1599  0.9341
 6210TIP3    H140045   2.871   1.863   3.429  0.6294 -1.7118  0.9894
 6210TIP3    H240046   2.759   1.768   3.394 -0.5335  0.0075 -0.0370
 6211TIP3   OH240047   0.035   3.539  11.124  0.4342 -0.3132  0.1573
 6211TIP3    H140048   0.008   3.478  11.056 -1.4304  1.1862 -0.5070
 6211TIP3    H240049   0.096   3.598  11.080 -1.4789  1.2287 -0.5427
 6212TIP3   OH240050   5.323   6.724  16.602  0.2173  0.0419  0.0984
 6212TIP3    H140051   5.303   6.653  16.541 -0.7721  0.9231 -0.6271
 6212TIP3    H240052   5.255   6.720  16.668  0.7543 -0.3299  0.6270
 6213TIP3   OH240053   2.897   4.131  16.145  0.1641 -0.3800 -0.0387
 6213TIP3    H140054   2.827   4.190  16.172  0.7924  0.9046 -1.1722
 6213TIP3    H240055   2.852   4.064  16.093 -0.7021 -1.5288  2.1442
 6214TIP3   OH240056   1.863   5.082   4.607 -0.2491 -0.0575 -0.0728
 6214TIP3    H140057   1.848   5.176   4.612  1.5392  0.1449  2.1773
 6214TIP3    H240058   1.956   5.071   4.623 -0.0424 -2.1049 -2.3750
 6215TIP3   OH240059   1.461   0.902  15.703 -0.6249 -0.3021  0.4810
 6215TIP3    H140060   1.406   0.954  15.644 -1.3512 -1.4068  0.1781
 6215TIP3    H240061   1.427   0.813  15.696  0.8792 -0.9050  0.6793
 6216TIP3   OH240062   4.398   3.973   1.154 -0.0682  0.0739  0.1617
 6216TIP3    H140063   4.432   3.889   1.124  0.9198  0.4780  0.1401
 6216TIP3    H240064   4.312   3.979   1.113 -0.3149 -1.1020  0.4834
 6217TIP3   OH240065   3.091   0.830  17.042 -0.3205  0.8443 -0.4049
 6217TIP3    H140066   3.126   0.752  17.085  0.6323  0.6652 -1.4696
 6217TIP3    H240067   2.996   0.821  17.050 -0.1653  0.7435  1.4986
 6218TIP3   OH240068   2.649   4.303   3.292  0.0697 -0.1837  0.2357
 6218TIP3    H140069   2.710   4.267   3.356  1.2305  0.9461 -0.2175
 6218TIP3    H240070   2.665   4.397   3.293 -0.9402  0.0185 -0.6490
 6219TIP3   OH240071   0.908   5.547  16.056  0.2780 -0.6349  0.0059
 6219TIP3    H140072   0.977   5.557  15.990  0.2413  0.2686  0.1036
 6219TIP3    H240073   0.924   5.617  16.119 -1.0264 -0.1135 -0.2309
 6220TIP3   OH240074   6.283   6.655  13.835 -0.2523  0.2080 -0.0674
 6220TIP3    H140075   6.260   6.581  13.891  0.7996 -0.3790 -0.3866
 6220TIP3    H240076   6.268   6.622  13.746  2.0026 -0.2765 -0.2946
 6221TIP3   OH240077   0.661   4.460   2.548  0.6853  0.0749  0.1873
 6221TIP3    H140078   0.603   4.405   2.495  2.8634 -0.5242 -1.6338
 6221TIP3    H240079   0.671   4.412   2.630 -1.4457  0.2337  0.5617
 6222TIP3   OH240080   3.038   6.559   1.648 -0.5048 -0.0413 -0.5499
 6222TIP3    H140081   3.129   6.582   1.665  0.5173 -1.2809 -3.8500
 6222TIP3    H240082   2.990   6.641   1.661  0.9713  0.4846  1.7888
 6223TIP3   OH240083   1.367   1.102   4.985 -0.2390  0.0867  0.2493
 6223TIP3    H140084   1.457   1.090   5.014  0.1652  0.2674 -0.9252
 6223TIP3    H240085   1.334   1.174   5.040  0.1363 -0.3476  1.0618
 6224TIP3   OH240086   2.468   4.839   3.425 -0.4298  0.0202 -0.5006
 6224TIP3    H140087   2.526   4.817   3.498 -0.7829 -1.1104 -0.5436
 6224TIP3    H240088   2.481   4.932   3.411 -0.1864  0.2101  0.8631
 6225TIP3   OH240089   1.626   6.681  14.224 -0.1924 -0.3626 -0.5372
 6225TIP3    H140090   1.640   6.688  14.129 -1.8020  0.2318 -0.7382
 6225TIP3    H240091   1.657   6.592  14.245 -0.7940 -0.8879 -1.7951
 6226TIP3   OH240092   5.228   0.240   4.200  0.1127  0.0909 -0.0332
 6226TIP3    H140093   5.259   0.264   4.113 -2.0056 -1.8069 -1.3632
 6226TIP3    H240094   5.233   0.322   4.250  0.1129  1.5351 -2.2894
 6227TIP3   OH240095   3.486   3.829  10.825  0.0196  0.1962  0.1036
 6227TIP3    H140096   3.434   3.909  10.818  0.2133  0.1764 -1.6157
 6227TIP3    H240097   3.477   3.786  10.740  0.0993 -1.5076  0.9319
 6228TIP3   OH240098   2.542   4.539  15.083 -0.0473  1.1023 -0.2672
 6228TIP3    H140099   2.503   4.459  15.049 -0.9445  1.8750 -1.0864
 6228TIP3    H240100   2.636   4.525  15.075 -0.2130  0.3973 -1.0177
 6229TIP3   OH240101   5.533   1.052  16.961 -0.7488 -0.1953  0.2432
 6229TIP3    H140102   5.626   1.053  16.939 -0.8774  1.8354 -0.2788
 6229TIP3    H240103   5.488   1.061  16.877 -1.3680  0.6523  0.6554
 6230TIP3   OH240104   0.682   3.095   0.855 -0.5073 -0.5941  0.0666
 6230TIP3    H140105   0.765   3.048   0.859 -0.3827 -0.3659  0.1281
 6230TIP3    H240106   0.626   3.049   0.918 -0.2678 -0.4298  0.4038
 6231TIP3   OH240107   3.780   1.705  13.673  0.5630  0.2874 -0.4624
 6231TIP3    H140108   3.735   1.735  13.594 -1.2743 -0.2761  0.3435
 6231TIP3    H240109   3.733   1.747  13.745  0.7657 -0.9952  0.4412
 6232TIP3   OH240110   5.187   1.388  14.232  0.0660 -0.5870  0.0089
 6232TIP3    H140111   5.125   1.322  14.202 -0.2600 -0.7860  1.0745
 6232TIP3    H240112   5.135   1.467  14.245  0.2030 -0.4947  0.0022
 6233TIP3   OH240113   4.226   5.470   3.510  0.0611 -0.7689  0.3505
 6233TIP3    H140114   4.132   5.486   3.495 -0.0000  1.0978  2.4454
 6233TIP3    H240115   4.233   5.458   3.604  2.2613  1.6161  0.5359
 6234TIP3   OH240116   2.173   3.121   0.734  0.4292  1.0369 -0.2551
 6234TIP3    H140117   2.169   3.216   0.729  1.4800  1.1345  0.6538
 6234TIP3    H240118   2.084   3.094   0.757  0.0902  1.7767 -0.6884
 6235TIP3   OH240119   5.294   4.118  11.798  0.0985  0.1226  0.0193
 6235TIP3    H140120   5.294   4.023  11.810  0.6154  0.2178  0.8618
 6235TIP3    H240121   5.214   4.137  11.749 -0.4216 -0.6676  0.5515
 6236TIP3   OH240122   5.750   2.269   1.910  0.2786  0.1130  0.7580
 6236TIP3    H140123   5.751   2.338   1.976  1.2852 -0.1307  1.0077
 6236TIP3    H240124   5.730   2.189   1.959  2.4220 -0.2999  1.0281
 6237TIP3   OH240125   1.143   2.505  11.118 -0.2107 -0.2228  0.0757
 6237TIP3    H140126   1.109   2.429  11.070  0.2378  0.6447 -1.6364
 6237TIP3    H240127   1.207   2.544  11.059  0.7065  0.5927  1.5871
 6238TIP3   OH240128   3.955   4.263   3.985  0.7075 -0.1236 -0.4696
 6238TIP3    H140129   3.924   4.345   3.945  0.8815  0.1157 -0.1151
 6238TIP3    H240130   3.960   4.202   3.912 -1.6520 -0.4812 -0.3742
 6239TIP3   OH240131   0.131   1.910  16.938  0.4532  0.6620  0.2428
 6239TIP3    H140132   0.050   1.939  16.896  1.3129  1.6539 -0.7520
 6239TIP3    H240133   0.153   1.979  17.000  0.4599  0.3068  0.6461
 6240TIP3   OH240134   4.482   1.119   0.608 -0.3326 -0.8693 -0.2293
 6240TIP3    H140135   4.441   1.101   0.692 -1.1217  2.3219  0.1693
 6240TIP3    H240136   4.409   1.149   0.553  0.8420  1.4779 -0.5860
 6241TIP3   OH240137   3.384   2.060  11.111  0.0042  0.3341  0.0334
 6241TIP3    H140138   3.326   1.987  11.092  2.2489 -1.4194 -0.2927
 6241TIP3    H240139   3.330   2.138  11.098 -2.4796 -1.2486  0.5444
 6242TIP3   OH240140   2.721   6.032  15.847 -0.4837 -0.3804  0.1618
 6242TIP3    H140141   2.741   6.123  15.824 -0.4401 -0.4584 -0.1100
 6242TIP3    H240142   2.721   5.986  15.763  2.8075 -1.2697  0.5540
 6243TIP3   OH240143   5.030   5.500   2.253  0.6248  0.3814 -0.1018
 6243TIP3    H140144   5.092   5.565   2.222  0.4878 -0.3538 -1.9473
 6243TIP3    H240145   4.944   5.532   2.224  0.2971  0.5668  1.0300
 6244TIP3   OH240146   3.339   2.802   2.271  0.3132 -0.0285 -0.5903
 6244TIP3    H140147   3.366   2.811   2.180 -1.2359 -0.2737 -1.0962
 6244TIP3    H240148   3.263   2.744   2.267 -0.0402  0.3269  0.8080
 6245TIP3   OH240149   6.755   1.659  12.691  0.3832 -0.0301 -0.1746
 6245TIP3    H140150   6.661   1.641  12.683  0.5984 -1.1334 -0.2727
 6245TIP3    H240151   6.760   1.731  12.755 -0.4941 -0.3003  0.2129
 6246TIP3   OH240152   6.385   1.565  14.537  0.8199 -0.4297 -0.1855
 6246TIP3    H140153   6.386   1.593  14.446 -0.3783  0.4856  0.0626
 6246TIP3    H240154   6.385   1.647  14.587 -0.6216 -0.8863  0.5943
 6247TIP3   OH240155   3.781   4.042   0.236  0.1169  0.2401 -0.3357
 6247TIP3    H140156   3.772   3.983   0.311  0.9394  0.5297 -0.0048
 6247TIP3    H240157   3.691   4.064   0.211 -0.1520  0.2902  0.6785
 6248TIP3   OH240158   6.018   5.219  16.041 -0.7426  0.5295  0.4297
 6248TIP3    H140159   6.003   5.292  15.981 -0.3925 -0.1070 -0.4393
 6248TIP3    H240160   5.930   5.195  16.072 -0.8720  1.2063  0.5961
 6249TIP3   OH240161   0.935   3.737  14.283  0.0925  0.5514 -0.0670
 6249TIP3    H140162   0.880   3.661  14.304 -0.4203  1.2084  1.0746
 6249TIP3    H240163   0.889   3.782  14.213 -0.1429  0.3651 -0.0318
 6250TIP3   OH240164   3.341   0.197   6.210 -0.3564  0.3890  0.2473
 6250TIP3    H140165   3.309   0.107   6.214 -0.5861  0.4166 -0.8490
 6250TIP3    H240166   3.265   0.251   6.232  0.4161  0.2331  3.4941
 6251TIP3   OH240167   6.569   4.703  15.005  0.4701  0.6421  0.0049
 6251TIP3    H140168   6.593   4.782  14.956  2.7269  0.4014  0.6691
 6251TIP3    H240169   6.642   4.688  15.064 -0.2090 -1.6220  0.3218
 6252TIP3   OH240170   0.472   6.715  13.950  0.0331 -0.2648 -0.6939
 6252TIP3    H140171   0.514   6.794  13.985 -0.6977 -0.8696  1.6078
 6252TIP3    H240172   0.522   6.643  13.988 -1.5210 -0.9633  0.0178
 6253TIP3   OH240173   2.427   6.183  11.476 -0.0556  0.3390 -0.5685
 6253TIP3    H140174   2.352   6.176  11.416 -1.3198  0.6646  0.9522
 6253TIP3    H240175   2.388   6.206  11.560  1.7123 -0.0549  0.3710
 6254TIP3   OH240176   4.630   1.637   1.706  0.0427 -0.4490  0.3067
 6254TIP3    H140177   4.590   1.553   1.682 -0.1246  0.1175 -1.5348
 6254TIP3    H240178   4.555   1.694   1.724  0.0406  0.1702 -1.5748
 6255TIP3   OH240179   1.320   6.082   2.062  1.3141  0.9215  0.2265
 6255TIP3    H140180   1.269   6.091   2.142  0.3886  0.6746 -0.3300
 6255TIP3    H240181   1.409   6.062   2.092  0.7961 -0.0007  1.1693
 6256TIP3   OH240182   4.733   6.443   0.676  0.4704 -0.3474  0.1381
 6256TIP3    H140183   4.806   6.382   0.666  1.3244  0.9704 -1.8606
 6256TIP3    H240184   4.667   6.412   0.615  0.8511  0.6339 -0.7794
 6257TIP3   OH240185   2.966   5.940   2.439  0.2584  0.5102 -0.5033
 6257TIP3    H140186   2.962   6.036   2.439 -1.1543  0.4828 -2.8498
 6257TIP3    H240187   2.923   5.914   2.520 -1.1483  1.8259 -0.8047
 6258TIP3   OH240188   0.248   5.120   3.226 -0.4191  0.0969  0.1467
 6258TIP3    H140189   0.298   5.040   3.239  0.4937  0.7191  0.5250
 6258TIP3    H240190   0.201   5.106   3.144 -0.9604 -1.1710  0.6522
 6259TIP3   OH240191   2.904   3.650   2.813  0.3460  0.5733 -0.0087
 6259TIP3    H140192   2.958   3.581   2.850 -0.3433 -0.3365 -0.6707
 6259TIP3    H240193   2.892   3.625   2.722  0.0526  1.5421 -0.2410
 6260TIP3   OH240194   2.123   5.233  15.316 -0.2128 -0.3372 -0.1736
 6260TIP3    H140195   2.070   5.311  15.333  1.4171  0.3776  1.7547
 6260TIP3    H240196   2.169   5.253  15.234 -0.3722  0.4055 -0.0869
 6261TIP3   OH240197   0.771   4.725  12.068  0.0023  0.3096  0.3964
 6261TIP3    H140198   0.717   4.798  12.100 -0.1996  0.4168 -0.1887
 6261TIP3    H240199   0.845   4.768  12.023 -1.7926  0.1805 -2.8137
 6262TIP3   OH240200   5.563   5.325   0.190 -0.0499 -0.4198 -0.0766
 6262TIP3    H140201   5.548   5.411   0.227 -0.1727 -0.0313 -1.0050
 6262TIP3    H240202   5.483   5.276   0.208 -0.1354 -0.2157  0.0966
 6263TIP3   OH240203   6.049   1.050   5.761  0.0076  0.5852  0.0216
 6263TIP3    H140204   6.034   0.964   5.723 -0.8225  0.0627  1.4989
 6263TIP3    H240205   6.138   1.047   5.794  0.0409  0.3497 -0.0926
 6264TIP3   OH240206   2.338   4.678   0.553  0.4450 -0.3339 -0.7600
 6264TIP3    H140207   2.312   4.645   0.467  0.0985  2.4712 -1.7936
 6264TIP3    H240208   2.394   4.753   0.533 -1.6577  1.8770  1.4330
 6265TIP3   OH240209   6.656   1.695   4.382 -0.0595  0.6641  0.0505
 6265TIP3    H140210   6.610   1.774   4.410 -1.1643  0.4974 -1.2498
 6265TIP3    H240211   6.606   1.663   4.307  1.3023 -0.3791 -0.4393
 6266TIP3   OH240212   0.285   4.988   4.753  0.6315 -0.0400 -0.6906
 6266TIP3    H140213   0.249   4.900   4.767  1.8558 -0.3482  0.6956
 6266TIP3    H240214   0.222   5.031   4.696 -1.5727 -0.8084  1.0716
 6267TIP3   OH240215   2.862   3.027  14.920  0.1072  0.1874 -0.6497
 6267TIP3    H140216   2.947   3.002  14.956 -1.3833 -0.4147  2.6426
 6267TIP3    H240217   2.828   2.947  14.879 -0.6160 -0.7687  1.7043
 6268TIP3   OH240218   3.451   2.314   1.921 -0.0970  0.9473 -0.4314
 6268TIP3    H140219   3.433   2.221   1.906  0.9796  0.4809  1.1059
 6268TIP3    H240220   3.384   2.341   1.983 -0.0784  1.0500 -0.4573
 6269TIP3   OH240221   4.322   0.338  13.829  0.0731 -0.4247 -0.1319
 6269TIP3    H140222   4.327   0.429  13.858  2.4854 -0.5778  0.0708
 6269TIP3    H240223   4.230   0.324  13.809 -0.0459  2.7394 -2.2720
 6270TIP3   OH240224   2.418   0.764  14.292  0.2843  0.2737 -0.1130
 6270TIP3    H140225   2.387   0.835  14.348 -2.0875 -0.0880 -0.8898
 6270TIP3    H240226   2.345   0.747  14.232  0.8461 -2.7443 -0.0351
 6271TIP3   OH240227   1.515   0.653  16.925  0.5787  0.2831 -0.4353
 6271TIP3    H140228   1.429   0.621  16.895  1.0219  0.2076 -1.6763
 6271TIP3    H240229   1.496   0.738  16.964 -0.5391 -1.2226  2.4472
 6272TIP3   OH240230   6.084   1.755   1.537 -0.3881 -0.0263 -0.0019
 6272TIP3    H140231   6.038   1.725   1.616  0.1806 -2.5973 -0.6136
 6272TIP3    H240232   6.167   1.790   1.569 -0.7120  0.1334  0.6627
 6273TIP3   OH240233   5.087   3.774  15.621 -0.1138 -0.2557  0.2616
 6273TIP3    H140234   5.162   3.815  15.664 -2.2071  2.8706  1.1379
 6273TIP3    H240235   5.029   3.750  15.694 -1.5765  0.7674 -0.5353
 6274TIP3   OH240236   5.256   2.366   0.517 -0.0872  0.5572  0.3840
 6274TIP3    H140237   5.332   2.309   0.525 -0.7159 -0.2729  0.4726
 6274TIP3    H240238   5.196   2.337   0.586  0.3649  2.5651  1.6945
 6275TIP3   OH240239   2.531   2.506  16.642  0.0001  0.0946 -0.1175
 6275TIP3    H140240   2.442   2.496  16.676 -0.6445  0.2483 -1.7148
 6275TIP3    H240241   2.524   2.485  16.549  1.6925 -0.1557 -0.2040
 6276TIP3   OH240242   3.111   1.057  12.557 -1.1394 -0.0298 -0.2842
 6276TIP3    H140243   3.048   0.986  12.542 -1.2058 -0.1924  0.7397
 6276TIP3    H240244   3.181   1.041  12.493 -0.9772 -1.2237  0.1876
 6277TIP3   OH240245   4.291   4.840  13.185  0.0505  0.1223 -0.2500
 6277TIP3    H140246   4.354   4.810  13.250 -1.5239 -3.3781 -0.2255
 6277TIP3    H240247   4.214   4.866  13.236 -0.5409 -0.9567 -0.5685
 6278TIP3   OH240248   1.870   4.844  13.968 -0.3354  0.3152  0.5919
 6278TIP3    H140249   1.932   4.821  13.899 -1.6067  1.0053 -0.7927
 6278TIP3    H240250   1.788   4.860  13.923 -1.7177 -1.2400  2.4819
 6279TIP3   OH240251   0.167   6.076   0.181 -0.4231 -0.1550 -0.4412
 6279TIP3    H140252   0.227   6.002   0.183 -0.1299  0.0512 -1.4924
 6279TIP3    H240253   0.124   6.071   0.095 -0.4476  0.8480 -0.4966
 6280TIP3   OH240254   5.681   5.738  16.324 -0.1128 -0.1585 -0.4377
 6280TIP3    H140255   5.753   5.686  16.289 -0.5780 -1.0385 -0.0987
 6280TIP3    H240256   5.616   5.740  16.254 -0.5786 -1.0037 -0.0428
 6281TIP3   OH240257   6.230   5.901   3.230  0.1433  0.2980 -0.2007
 6281TIP3    H140258   6.285   5.866   3.159  0.2749 -0.0420  0.0711
 6281TIP3    H240259   6.173   5.963   3.186 -0.2887 -0.4638 -0.7373
 6282TIP3   OH240260   6.730   2.594   4.753 -0.2554  0.0122 -0.3285
 6282TIP3    H140261   6.666   2.585   4.823 -0.7477 -1.9906 -0.9912
 6282TIP3    H240262   6.764   2.505   4.740  2.0528  0.8881 -0.5569
 6283TIP3   OH240263   3.017   3.393   2.894 -0.0929 -0.2653  0.1093
 6283TIP3    H140264   3.038   3.304   2.924  0.7841 -0.0409  0.1791
 6283TIP3    H240265   2.929   3.386   2.858  0.4748 -1.4681 -1.1067
 6284TIP3   OH240266   5.086   0.451   1.976  0.3368 -0.3670  1.1997
 6284TIP3    H140267   5.164   0.496   1.944 -0.7781 -0.5081 -1.9085
 6284TIP3    H240268   5.032   0.521   2.012 -0.1974  0.5059 -1.1502
 6285TIP3   OH240269   5.378   5.730  16.990 -0.0255  0.1089 -0.0466
 6285TIP3    H140270   5.366   5.664  16.922  0.1279 -0.6692  0.6741
 6285TIP3    H240271   5.370   5.813  16.944 -2.0175 -0.3985 -0.6630
 6286TIP3   OH240272   6.758   0.513  15.563  0.0465 -0.1307 -0.5269
 6286TIP3    H140273   6.723   0.487  15.648  0.5751  0.3499 -0.1522
 6286TIP3    H240274   6.738   0.440  15.505 -0.3519 -0.4477  0.0054
 6287TIP3   OH240275   2.008   0.728  13.782 -0.0800  0.0904 -0.0973
 6287TIP3    H140276   1.914   0.724  13.798 -0.0144  0.0048  0.2882
 6287TIP3    H240277   2.016   0.757  13.692 -0.4872 -0.8517 -0.4466
 6288TIP3   OH240278   3.920   3.685   4.890  0.8113  0.4790  0.3407
 6288TIP3    H140279   3.943   3.774   4.864  0.5136  0.9801  1.7704
 6288TIP3    H240280   3.837   3.667   4.846  1.1552  0.6953 -0.3991
 6289TIP3   OH240281   3.180   1.802   5.859 -0.1064 -0.5082  0.2834
 6289TIP3    H140282   3.206   1.783   5.949  1.8543  0.3954 -0.0424
 6289TIP3    H240283   3.217   1.730   5.808 -2.1221 -1.5860  0.2928
 6290TIP3   OH240284   2.338   6.502  12.184 -0.1214  0.2975 -0.6546
 6290TIP3    H140285   2.413   6.554  12.213 -0.6244  0.2995  0.6999
 6290TIP3    H240286   2.294   6.476  12.266 -1.0239 -0.5405 -1.3915
 6291TIP3   OH240287   0.802   5.924   6.508 -0.0251  0.4304 -0.3441
 6291TIP3    H140288   0.723   5.977   6.519 -0.3005 -0.1313  0.3868
 6291TIP3    H240289   0.770   5.836   6.488  0.4349  0.4780 -1.3549
 6292TIP3   OH240290   5.486   5.245   0.968  0.1621 -0.0452 -0.2261
 6292TIP3    H140291   5.556   5.240   0.904  1.5380  3.3559  0.8626
 6292TIP3    H240292   5.529   5.231   1.052 -0.6695  0.7225  0.3469
 6293TIP3   OH240293   2.204   1.800   1.948 -0.1868 -0.3940 -0.2682
 6293TIP3    H140294   2.253   1.862   1.894  0.1000 -0.6659 -0.3294
 6293TIP3    H240295   2.260   1.721   1.949 -0.8849 -0.8981 -0.7967
 6294TIP3   OH240296   1.733   4.286   4.607  0.6743 -0.9266 -0.4089
 6294TIP3    H140297   1.731   4.305   4.701  0.5113  3.1404 -1.1402
 6294TIP3    H240298   1.818   4.320   4.578 -0.4220  0.3930 -2.1711
 6295TIP3   OH240299   0.624   1.380   4.211 -0.3173 -0.4839 -0.4560
 6295TIP3    H140300   0.544   1.430   4.196 -0.4998 -0.6553 -0.0579
 6295TIP3    H240301   0.650   1.350   4.124  0.5870  1.4927 -0.8942
 6296TIP3   OH240302   6.693   4.162   4.085  0.3867  0.0289  0.0805
 6296TIP3    H140303   6.750   4.238   4.094  0.6706  0.1235 -2.2451
 6296TIP3    H240304   6.736   4.094   4.137 -0.6061  1.7917  3.3299
 6297TIP3   OH240305   3.763   2.637   3.121  0.1830  0.1305 -0.8182
 6297TIP3    H140306   3.769   2.567   3.057  3.6445  0.2522 -0.7255
 6297TIP3    H240307   3.675   2.673   3.110 -0.5447 -2.2246 -2.9542
 6298TIP3   OH240308   6.186   0.566  16.618  0.5649  0.2152  0.2248
 6298TIP3    H140309   6.184   0.551  16.713 -2.1770  1.6916  0.4724
 6298TIP3    H240310   6.128   0.641  16.605 -0.3532 -0.9409 -2.7919
 6299TIP3   OH240311   1.377   4.340  12.080 -0.1441  0.0974  0.5077
 6299TIP3    H140312   1.442   4.409  12.072  0.2254 -0.4487 -1.4120
 6299TIP3    H240313   1.410   4.284  12.150  0.9479  0.3634  0.2170
 6300TIP3   OH240314   2.876   4.999   1.604 -0.2543  0.3359 -0.1080
 6300TIP3    H140315   2.790   5.039   1.588 -1.1825 -1.3059  0.5990
 6300TIP3    H240316   2.901   5.030   1.691  0.7139  2.2234 -1.0249
 6301TIP3   OH240317   4.655   2.789   3.550 -0.2864 -0.1064 -0.1132
 6301TIP3    H140318   4.675   2.726   3.620 -0.9415 -0.6666 -0.4240
 6301TIP3    H240319   4.710   2.864   3.570 -1.2712  0.1891  1.6537
 6302TIP3   OH240320   3.429   3.883  12.111 -0.2866  0.2819  0.9608
 6302TIP3    H140321   3.353   3.940  12.123  0.2530  0.9564  1.1843
 6302TIP3    H240322   3.487   3.933  12.054  0.4876  0.2401  1.7076
 6303TIP3   OH240323   0.473   1.586  14.731  0.6066  0.1974 -0.2425
 6303TIP3    H140324   0.390   1.589  14.684  1.0802  0.2712 -1.0777
 6303TIP3    H240325   0.506   1.497  14.716  1.0738  0.4300 -0.6040
 6304TIP3   OH240326   4.445   2.022  12.604  0.2148  0.3008  0.2208
 6304TIP3    H140327   4.433   2.041  12.511 -0.4809 -0.6159  0.1153
 6304TIP3    H240328   4.464   1.928  12.607  2.3178  0.6977  0.8366
 6305TIP3   OH240329   3.424   0.575  12.199  0.5574  0.1851  0.3116
 6305TIP3    H140330   3.474   0.551  12.277  0.1989  1.5784  0.9876
 6305TIP3    H240331   3.452   0.665  12.179 -1.2775  0.8145  0.4149
 6306TIP3   OH240332   4.855   6.606   4.518 -0.2969  0.4601 -0.3475
 6306TIP3    H140333   4.932   6.603   4.462  0.4301 -1.8668  0.6970
 6306TIP3    H240334   4.781   6.592   4.459  0.3468 -0.4780 -0.9487
 6307TIP3   OH240335   2.739   3.984  11.242 -0.6819 -0.0139 -0.0232
 6307TIP3    H140336   2.821   4.029  11.218 -1.3552  1.2231 -0.0567
 6307TIP3    H240337   2.677   4.012  11.176 -1.3641 -0.2547  0.5154
 6308TIP3   OH240338   1.515   1.643  11.936  0.1295  0.2229 -0.2132
 6308TIP3    H140339   1.609   1.659  11.951  0.1177  0.2148 -0.1302
 6308TIP3    H240340   1.471   1.706  11.992  0.0844 -0.2357  0.2759
 6309TIP3   OH240341   4.781   2.514  15.905  0.0331 -0.3447  0.4623
 6309TIP3    H140342   4.818   2.488  15.990 -0.1816 -0.6586  0.4643
 6309TIP3    H240343   4.766   2.431  15.860  0.8427 -0.1428 -0.1856
 6310TIP3   OH240344   4.354   0.385  15.036 -0.0916 -0.3961 -0.2317
 6310TIP3    H140345   4.388   0.440  15.107 -2.2319 -1.5029  1.7317
 6310TIP3    H240346   4.432   0.358  14.987  1.4612  0.3549  1.7462
 6311TIP3   OH240347   3.856   5.331  16.096  0.3822 -0.3054 -0.5853
 6311TIP3    H140348   3.914   5.360  16.166  1.1020 -0.5428 -1.0759
 6311TIP3    H240349   3.896   5.365  16.016 -1.8434  2.2711 -0.6949
 6312TIP3   OH240350   1.753   3.121   1.082 -0.0954 -0.7601  0.4880
 6312TIP3    H140351   1.681   3.132   1.019  0.9408  1.8955 -0.3047
 6312TIP3    H240352   1.717   3.155   1.164 -0.8706 -2.6413  0.9562
 6313TIP3   OH240353   2.557   1.675  14.939 -0.2865  0.2253  0.0383
 6313TIP3    H140354   2.535   1.709  14.852 -1.0129  1.0640  0.5437
 6313TIP3    H240355   2.482   1.698  14.994 -0.0856 -0.7976  0.7661
 6314TIP3   OH240356   0.997   1.868  15.125 -0.5587  0.9142 -0.6595
 6314TIP3    H140357   1.020   1.859  15.218  0.6840 -1.2805 -1.1526
 6314TIP3    H240358   0.951   1.786  15.104 -1.8397  1.8815 -1.7252
 6315TIP3   OH240359   4.753   6.519  16.512  0.0995  0.0300  0.1067
 6315TIP3    H140360   4.687   6.526  16.581 -0.2927  0.4240 -0.3061
 6315TIP3    H240361   4.767   6.424  16.502 -1.8223 -0.1564 -1.1189
 6316TIP3   OH240362   3.100   0.078   4.673  0.2977  0.5963 -0.0752
 6316TIP3    H140363   3.090   0.145   4.741 -1.4760 -0.1353  0.4131
 6316TIP3    H240364   3.161   0.014   4.710 -0.8619  0.0655  0.9548
 6317TIP3   OH240365   2.687   0.846   0.231 -0.0207 -0.0553  0.1228
 6317TIP3    H140366   2.704   0.938   0.214 -0.8566  0.1257  0.2203
 6317TIP3    H240367   2.641   0.816   0.152  0.9395 -0.5878 -0.2423
 6318TIP3   OH240368   1.259   6.038  14.465  0.2027 -0.5285 -0.0591
 6318TIP3    H140369   1.175   6.018  14.423  0.7379 -1.3231 -0.7797
 6318TIP3    H240370   1.324   6.015  14.399  0.9160  2.2267 -0.3456
 6319TIP3   OH240371   6.054   0.334  17.098  0.1842 -0.6811 -0.8475
 6319TIP3    H140372   6.004   0.304  17.174  1.0583  0.7622  0.3174
 6319TIP3    H240373   6.091   0.417  17.125 -0.9199  0.7356 -3.4787
 6320TIP3   OH240374   2.319   3.890  15.952 -0.5358 -0.8702  0.3570
 6320TIP3    H140375   2.248   3.872  16.014  0.8019  0.3441  2.3050
 6320TIP3    H240376   2.308   3.983  15.930  0.5341 -0.6271  0.8190
 6321TIP3   OH240377   1.128   4.254   4.670 -0.5001 -0.1660  0.2670
 6321TIP3    H140378   1.218   4.245   4.702 -1.5632 -1.0363  3.2465
 6321TIP3    H240379   1.126   4.338   4.626  1.4449  0.5239  1.4212
 6322TIP3   OH240380   6.621   1.409  11.285 -0.6169  0.1425  1.0208
 6322TIP3    H140381   6.627   1.319  11.252 -0.2038  1.5865 -3.1055
 6322TIP3    H240382   6.550   1.448  11.235 -1.7843  1.7731  3.8125
 6323TIP3   OH240383   4.465   2.826   4.349 -0.4814  0.4410  0.0688
 6323TIP3    H140384   4.417   2.794   4.425 -1.0433 -0.8908 -0.8233
 6323TIP3    H240385   4.550   2.782   4.353  0.0967  1.5859  0.7763
 6324TIP3   OH240386   5.479   5.797  11.590  0.4781 -0.0451 -0.3646
 6324TIP3    H140387   5.401   5.766  11.637  1.3043 -0.7978  0.5352
 6324TIP3    H240388   5.465   5.770  11.500 -0.9529  1.0683 -0.4830
 6325TIP3   OH240389   2.266   6.304   5.439  0.0562 -0.6105 -0.1950
 6325TIP3    H140390   2.323   6.238   5.477  0.2479  0.6296  1.7072
 6325TIP3    H240391   2.271   6.379   5.498 -1.2189  0.6279 -1.5777
 6326TIP3   OH240392   2.540   1.973   0.888  0.0547 -0.0345  0.0493
 6326TIP3    H140393   2.499   2.057   0.909 -0.7040 -0.4957  0.4233
 6326TIP3    H240394   2.626   1.978   0.929  0.1935  0.7351 -0.3077
 6327TIP3   OH240395   5.539   2.905   4.178  0.6752 -0.0400 -0.8070
 6327TIP3    H140396   5.589   2.968   4.230 -1.3210 -0.5057  1.8209
 6327TIP3    H240397   5.474   2.958   4.132  1.4628  0.2085 -1.6460
 6328TIP3   OH240398   3.436   2.179   3.636  0.4094 -0.1467  0.2144
 6328TIP3    H140399   3.384   2.106   3.602  0.7463  0.1235 -0.9200
 6328TIP3    H240400   3.450   2.158   3.728 -0.3648 -1.0046  0.1451
 6329TIP3   OH240401   4.020   5.901   1.188 -0.0100  0.2126  0.1936
 6329TIP3    H140402   4.066   5.847   1.253 -0.9824  0.5940  1.2050
 6329TIP3    H240403   4.000   5.841   1.116  0.0469 -0.4719  0.7488
 6330TIP3   OH240404   5.954   5.616  10.944 -0.5631  0.7421  0.5374
 6330TIP3    H140405   6.048   5.622  10.929 -0.4019 -1.5907  0.3918
 6330TIP3    H240406   5.947   5.586  11.035 -1.1747  1.0308  0.5848
 6331TIP3   OH240407   1.027   4.439  13.611  0.7961  0.4544 -0.0110
 6331TIP3    H140408   0.934   4.454  13.595  0.9469 -0.0699 -1.3918
 6331TIP3    H240409   1.062   4.408  13.528  1.4833 -2.8487  1.4126
 6332TIP3   OH240410   0.791   2.933   3.589 -0.0671  0.2240  0.1402
 6332TIP3    H140411   0.748   3.018   3.600 -0.1142  0.2000  0.1398
 6332TIP3    H240412   0.782   2.913   3.496  0.6838  0.6154 -0.0257
 6333TIP3   OH240413   2.399   2.519  10.834  0.6377  0.3406  0.0059
 6333TIP3    H140414   2.472   2.456  10.836  1.6730  1.5336  0.3427
 6333TIP3    H240415   2.434   2.594  10.786 -1.1464  0.0094 -1.8727
 6334TIP3   OH240416   3.454   2.718   1.062 -0.6414  0.4085 -0.0334
 6334TIP3    H140417   3.381   2.658   1.076  1.1448 -1.9426 -0.4623
 6334TIP3    H240418   3.491   2.692   0.977  0.1233  2.1856 -0.2778
 6335TIP3   OH240419   3.811   1.583  16.106  0.0653 -0.1713 -0.1899
 6335TIP3    H140420   3.840   1.670  16.078  0.5708 -0.1320  0.4659
 6335TIP3    H240421   3.733   1.599  16.158 -0.3359 -0.1756 -0.7846
 6336TIP3   OH240422   3.999   5.285   2.138  0.1543 -0.1344  0.3271
 6336TIP3    H140423   4.076   5.311   2.188  0.4672 -0.6762  0.1342
 6336TIP3    H240424   3.929   5.277   2.203 -0.2308  2.2775  0.2339
 6337TIP3   OH240425   0.019   0.476   5.331 -0.0054  0.2369  0.1369
 6337TIP3    H140426  -0.026   0.439   5.255 -1.0427 -0.1187  0.9158
 6337TIP3    H240427   0.083   0.536   5.293 -2.5731  2.4102 -0.9553
 6338TIP3   OH240428   0.582   3.189   0.499 -0.1449 -0.2197  0.9028
 6338TIP3    H140429   0.557   3.216   0.411 -2.2526 -1.0243  1.2210
 6338TIP3    H240430   0.620   3.102   0.488  0.4158  0.0513  0.6870
 6339TIP3   OH240431   0.627   1.122  12.178  0.0682  0.4477  0.1509
 6339TIP3    H140432   0.718   1.147  12.158 -0.4685  0.7128 -2.1600
 6339TIP3    H240433   0.634   1.064  12.254  2.0679  1.3581  0.7018
 6340TIP3   OH240434   2.765   5.619   0.730 -0.2709 -0.5889 -0.1526
 6340TIP3    H140435   2.845   5.658   0.765 -0.7105 -1.4172  1.8438
 6340TIP3    H240436   2.695   5.675   0.763 -0.6911 -1.3317  0.2220
 6341TIP3   OH240437   3.817   0.942   2.819  0.1197 -0.5030  0.6215
 6341TIP3    H140438   3.818   0.936   2.724  1.4553  1.0517  0.5171
 6341TIP3    H240439   3.908   0.962   2.843 -0.5411  0.8999  2.0738
 6342TIP3   OH240440   2.538   2.726   3.100 -0.4534  0.5647  0.0480
 6342TIP3    H140441   2.518   2.743   3.192 -0.7888 -0.7595  0.2266
 6342TIP3    H240442   2.515   2.634   3.087 -0.1446  0.6681 -1.2899
 6343TIP3   OH240443   0.127   4.120  15.750  0.0205 -0.1530  0.0771
 6343TIP3    H140444   0.093   4.124  15.661  0.5052 -0.5157 -0.1290
 6343TIP3    H240445   0.167   4.034  15.757 -2.0702 -1.0410  1.4282
 6344TIP3   OH240446   4.066   3.599   2.742 -0.2019  0.3861  0.4674
 6344TIP3    H140447   4.139   3.662   2.740 -0.4985  0.7087 -0.3253
 6344TIP3    H240448   4.021   3.611   2.659 -0.7889 -0.2658  0.6819
 6345TIP3   OH240449   2.009   4.000   3.553  0.3826  0.3537 -0.1657
 6345TIP3    H140450   1.990   4.047   3.472  0.0811 -2.1756 -1.6194
 6345TIP3    H240451   2.065   4.060   3.603  1.1728  1.6684 -2.5374
 6346TIP3   OH240452   1.689   4.688   1.361  0.0657  0.1676  0.4533
 6346TIP3    H140453   1.744   4.701   1.283  1.6671 -2.3582  1.0995
 6346TIP3    H240454   1.747   4.710   1.435 -0.9903  1.1280  1.0110
 6347TIP3   OH240455   1.514   0.872  13.024 -0.4704 -0.1965  0.6704
 6347TIP3    H140456   1.544   0.782  13.014 -2.1847 -0.7882  0.5976
 6347TIP3    H240457   1.427   0.864  13.064 -0.6304  1.4197  0.6851
 6348TIP3   OH240458   2.907   6.102  16.554  0.1050  0.3372  0.1251
 6348TIP3    H140459   2.869   6.038  16.614  0.9324  0.6834  1.0211
 6348TIP3    H240460   2.920   6.053  16.472 -0.1655 -0.3819  0.5100
 6349TIP3   OH240461   1.130   2.839   0.994  0.5548 -0.0656  0.5220
 6349TIP3    H140462   1.180   2.762   0.966 -1.1193 -1.4084  1.1464
 6349TIP3    H240463   1.179   2.873   1.070  1.4924 -0.2840  0.0277
 6350TIP3   OH240464   5.709   1.303   0.534  0.2182 -0.5353 -0.4867
 6350TIP3    H140465   5.798   1.333   0.519  0.5942 -0.7624  1.1463
 6350TIP3    H240466   5.702   1.220   0.485  0.2750  0.4222 -2.1533
 6351TIP3   OH240467   2.273   6.402  13.955  0.4715  0.4052 -0.3918
 6351TIP3    H140468   2.348   6.408  14.014  1.4936 -0.9110 -1.5194
 6351TIP3    H240469   2.240   6.491  13.949  1.5228  0.8744  0.6696
 6352TIP3   OH240470   4.938   1.087  12.131 -0.1859 -0.1147  0.0952
 6352TIP3    H140471   4.979   1.168  12.161 -1.2790  0.5029 -0.0602
 6352TIP3    H240472   5.007   1.040  12.086  0.7701  0.1864  1.2271
 6353TIP3   OH240473   1.005   6.250   0.715 -0.1079 -0.0984  0.3954
 6353TIP3    H140474   1.036   6.213   0.633 -0.4561  0.9246 -0.2016
 6353TIP3    H240475   1.056   6.204   0.782  1.1523  0.0294 -0.4608
 6354TIP3   OH240476   0.371   3.630   5.757 -0.5732 -0.0468 -0.0914
 6354TIP3    H140477   0.299   3.653   5.698  0.3811  2.6844 -0.2297
 6354TIP3    H240478   0.449   3.668   5.716  0.6086 -1.0345  1.2089
 6355TIP3   OH240479   4.683   1.302  15.770 -0.4781  0.5742  0.1726
 6355TIP3    H140480   4.607   1.246  15.752 -0.3739  0.1031  1.1615
 6355TIP3    H240481   4.748   1.243  15.807  0.0015  1.1628  0.2711
 6356TIP3   OH240482   0.198   0.423   0.083 -0.0990  0.2868  0.3916
 6356TIP3    H140483   0.220   0.332   0.063  0.5038  0.7794 -1.2834
 6356TIP3    H240484   0.106   0.431   0.060 -0.1976  0.0497  0.7075
 6357TIP3   OH240485   4.407   1.737  15.482 -0.1401 -0.1595 -0.3172
 6357TIP3    H140486   4.336   1.760  15.542 -0.2362  2.7807 -1.4526
 6357TIP3    H240487   4.483   1.724  15.539 -1.1596 -1.5706  0.7626
 6358TIP3   OH240488   2.468   3.511   3.004  0.1169  0.3317 -0.2237
 6358TIP3    H140489   2.418   3.592   3.004 -1.2757 -0.5040 -2.3250
 6358TIP3    H240490   2.505   3.506   3.093  0.4474  3.3561 -0.1197
 6359TIP3   OH240491   3.288   3.957  14.244 -0.2762 -0.2743  0.3910
 6359TIP3    H140492   3.294   4.044  14.285  0.9360 -0.5013  0.6977
 6359TIP3    H240493   3.376   3.938  14.214 -0.4690 -1.5334  0.5898
 6360TIP3   OH240494   4.157   4.404   2.563  0.2123 -0.0959  0.1556
 6360TIP3    H140495   4.178   4.450   2.645  3.3355  0.7493 -1.0666
 6360TIP3    H240496   4.131   4.474   2.503  0.5553 -0.4398 -0.3903
 6361TIP3   OH240497   2.451   0.176   3.801 -0.6436 -0.3629  0.0565
 6361TIP3    H140498   2.545   0.184   3.819 -0.7442 -0.3234  0.5941
 6361TIP3    H240499   2.410   0.228   3.870 -1.0667 -0.5615 -0.0472
 6362TIP3   OH240500   5.079   1.160  14.407  0.3876 -0.0443  0.7216
 6362TIP3    H140501   5.174   1.168  14.395  0.6676  0.0310  2.7992
 6362TIP3    H240502   5.043   1.167  14.318  2.1771  1.9243  0.0934
 6363TIP3   OH240503   1.283   1.097  14.769 -0.0819 -0.0678  0.1652
 6363TIP3    H140504   1.349   1.163  14.791 -1.0663  0.2389  2.4115
 6363TIP3    H240505   1.319   1.015  14.801 -0.2672 -0.0759  0.3593
 6364TIP3   OH240506   0.903   0.557   4.694  0.0389 -0.5148 -0.4254
 6364TIP3    H140507   0.948   0.628   4.741 -4.8811  2.1851  0.6308
 6364TIP3    H240508   0.905   0.584   4.602 -1.2328  0.8065 -0.1051
 6365TIP3   OH240509   0.489   2.976   1.082 -0.4273  0.0791 -0.1029
 6365TIP3    H140510   0.433   2.975   1.005  0.1218 -0.4150 -0.4930
 6365TIP3    H240511   0.431   2.951   1.154 -0.7088 -0.4121 -0.5022
 6366TIP3   OH240512   5.382   3.451   2.859  0.1040  0.1065 -0.1254
 6366TIP3    H140513   5.308   3.497   2.819  0.6359 -0.2095 -1.5175
 6366TIP3    H240514   5.428   3.519   2.910 -1.1560  0.2855  0.7857
 6367TIP3   OH240515   6.313   4.354  16.746 -0.1027 -0.4532 -0.6675
 6367TIP3    H140516   6.266   4.293  16.804 -0.2911  0.9167  0.6462
 6367TIP3    H240517   6.250   4.376  16.678 -1.1008  0.7100  0.6111
 6368TIP3   OH240518   4.929   5.669  16.733  0.1899  0.2651  0.0124
 6368TIP3    H140519   4.945   5.575  16.740  1.1978  0.5085  1.0343
 6368TIP3    H240520   4.855   5.685  16.791  0.8537  0.3165  0.8421
 6369TIP3   OH240521   2.311   5.628  16.812  0.1809  0.2200  0.7693
 6369TIP3    H140522   2.378   5.634  16.880  0.2142  0.8796  0.6897
 6369TIP3    H240523   2.258   5.707  16.824  0.5559  0.6475 -0.3563
 6370TIP3   OH240524   3.805   2.426  10.784  0.5420  0.1729  0.0284
 6370TIP3    H140525   3.893   2.421  10.746  0.3146 -0.9911 -0.3689
 6370TIP3    H240526   3.789   2.339  10.820 -1.8336 -0.7667 -3.0582
 6371TIP3   OH240527   1.623   3.208   3.691 -0.7349 -1.2562  0.0444
 6371TIP3    H140528   1.686   3.266   3.734 -0.6148 -0.6392 -0.9357
 6371TIP3    H240529   1.631   3.125   3.737  0.3639 -1.0071  0.3208
 6372TIP3   OH240530   0.542   4.652  16.675 -0.6063  0.4574  0.0609
 6372TIP3    H140531   0.598   4.646  16.598  0.5337  0.1402  0.8875
 6372TIP3    H240532   0.540   4.745  16.697 -0.2238  0.4507  0.1383
 6373TIP3   OH240533   2.810   1.675  15.347 -0.5088 -0.0303  0.0513
 6373TIP3    H140534   2.899   1.678  15.312 -0.0328  0.0799  1.2536
 6373TIP3    H240535   2.763   1.615  15.289  0.1413  0.4938 -1.0412
 6374TIP3   OH240536   3.519   5.297  10.684  0.0943  0.4553  0.2682
 6374TIP3    H140537   3.607   5.308  10.718  0.4069 -1.9185  0.2732
 6374TIP3    H240538   3.470   5.254  10.754  0.1433 -2.3540 -1.3281
 6375TIP3   OH240539   6.764   4.141  14.263  0.2064 -0.6640  0.3971
 6375TIP3    H140540   6.700   4.073  14.244  1.3823 -1.1976 -1.7651
 6375TIP3    H240541   6.822   4.101  14.328 -0.5571 -0.8245  0.9919
 6376TIP3   OH240542   1.741   0.057  16.142 -0.5114 -0.6266 -0.4633
 6376TIP3    H140543   1.748   0.108  16.061 -0.2449  0.8353  0.4830
 6376TIP3    H240544   1.799   0.101  16.204 -0.7784 -1.6990  0.5706
 6377TIP3   OH240545   0.946   4.680   0.320 -0.1925 -0.2892 -0.5203
 6377TIP3    H140546   1.030   4.720   0.297 -0.0487 -1.3545 -1.8717
 6377TIP3    H240547   0.953   4.662   0.414  1.2989 -0.9025 -0.7476
 6378TIP3   OH240548   5.640   4.307   0.145  0.4987 -0.2163 -0.4881
 6378TIP3    H140549   5.615   4.214   0.138 -1.4214  0.1176  1.3521
 6378TIP3    H240550   5.663   4.319   0.237 -0.5423  1.4268 -0.4251
 6379TIP3   OH240551   1.974   6.337  11.412 -0.0144  0.3507 -0.1967
 6379TIP3    H140552   1.884   6.367  11.420 -0.5649 -0.6802 -2.1189
 6379TIP3    H240553   2.020   6.411  11.371 -0.1081  0.6583  0.2509
 6380TIP3   OH240554   2.507   6.659   2.170  0.4215 -0.5181 -0.3299
 6380TIP3    H140555   2.417   6.656   2.204  0.4751 -1.0201 -0.2169
 6380TIP3    H240556   2.524   6.569   2.143  0.8749 -0.4093 -0.3993
 6381TIP3   OH240557   5.882   6.313  16.396 -0.2477 -0.1031  0.7011
 6381TIP3    H140558   5.849   6.259  16.468 -0.8013  0.4891  0.8974
 6381TIP3    H240559   5.908   6.395  16.438  4.6182 -1.6599  1.1198
 6382TIP3   OH240560   2.034   3.768  16.564 -0.4524 -0.3708 -0.4647
 6382TIP3    H140561   1.993   3.826  16.500 -0.5918 -2.4447 -2.3267
 6382TIP3    H240562   2.110   3.817  16.596 -0.2198  0.6186 -2.4370
 6383TIP3   OH240563   4.532   1.084   1.517  0.1381 -0.2995 -0.0754
 6383TIP3    H140564   4.590   1.027   1.566  1.7317  2.9044  1.9598
 6383TIP3    H240565   4.448   1.080   1.563  0.7028  0.1659  1.0277
 6384TIP3   OH240566   4.836   6.331  15.022 -0.1456  0.1862 -0.1976
 6384TIP3    H140567   4.918   6.375  15.045 -0.0515 -0.5072  0.8225
 6384TIP3    H240568   4.863   6.262  14.960  0.2708 -1.0110  1.2782
 6385TIP3   OH240569   0.626   4.017  14.364 -0.4268 -0.1741 -0.1037
 6385TIP3    H140570   0.538   4.042  14.335 -0.0431  1.1864 -0.1276
 6385TIP3    H240571   0.611   3.966  14.444 -1.2495 -0.0313 -0.1621
 6386TIP3   OH240572   3.634   5.392  13.603 -0.8739 -0.5154 -0.0568
 6386TIP3    H140573   3.618   5.461  13.668 -2.1567 -1.4685  0.6522
 6386TIP3    H240574   3.707   5.425  13.551 -0.5594  0.7656  1.1650
 6387TIP3   OH240575   2.228   0.356   2.520  0.1114 -0.1429  0.6506
 6387TIP3    H140576   2.162   0.292   2.493  0.5571 -0.1110 -0.5300
 6387TIP3    H240577   2.274   0.379   2.439  1.1706  0.2874  1.3655
 6388TIP3   OH240578   1.477   2.743   2.136  0.8095  0.8197 -0.4291
 6388TIP3    H140579   1.482   2.741   2.231 -1.1076  1.0456 -0.3069
 6388TIP3    H240580   1.542   2.678   2.107  2.7219  2.0955  0.9536
 6389TIP3   OH240581   6.442   0.457  14.222 -0.0926  0.4987  0.5157
 6389TIP3    H140582   6.358   0.412  14.229 -0.0328  0.0041 -1.7415
 6389TIP3    H240583   6.506   0.396  14.259 -0.5680  0.4829  1.3342
 6390TIP3   OH240584   4.017   1.897  16.061  0.0270 -0.6382  0.3930
 6390TIP3    H140585   3.969   1.967  16.018 -0.4236 -0.5295  1.0594
 6390TIP3    H240586   4.065   1.940  16.132 -1.6017 -1.2168  1.8996
 6391TIP3   OH240587   3.212   6.705   0.477  0.6577 -0.4416 -0.0245
 6391TIP3    H140588   3.255   6.668   0.400  1.6571 -2.7923  1.6053
 6391TIP3    H240589   3.133   6.652   0.487  0.4185  0.0064  0.4445
 6392TIP3   OH240590   1.662   5.823   2.918  0.2214 -0.1773 -0.0850
 6392TIP3    H140591   1.730   5.757   2.924  0.7246  0.4009  0.6149
 6392TIP3    H240592   1.650   5.854   3.008 -0.8748 -0.1872 -0.2197
 6393TIP3   OH240593   1.459   1.821  15.912  0.6964  0.1060 -0.2796
 6393TIP3    H140594   1.418   1.735  15.901 -0.7566  1.0876 -2.8946
 6393TIP3    H240595   1.475   1.828  16.007 -1.7561 -1.8905  0.3305
 6394TIP3   OH240596   6.682   5.851  13.249 -1.0082  0.2111  0.5442
 6394TIP3    H140597   6.697   5.766  13.208  0.6821  1.0560 -0.6321
 6394TIP3    H240598   6.615   5.834  13.316 -0.8121 -1.9948  0.2102
 6395TIP3   OH240599   1.105   0.696   1.484  0.5552  0.0778  0.0685
 6395TIP3    H140600   1.078   0.615   1.527 -1.1606 -0.1436 -1.3698
 6395TIP3    H240601   1.189   0.674   1.443  0.9754 -0.4292  1.1755
 6396TIP3   OH240602   2.261   4.468  16.885  0.3240  0.0454 -0.7112
 6396TIP3    H140603   2.280   4.530  16.815 -0.8633 -2.5095 -3.4105
 6396TIP3    H240604   2.346   4.441  16.918  0.8643  2.4852 -0.0107
 6397TIP3   OH240605   1.175   6.739   5.399 -0.4933  0.4634  0.1530
 6397TIP3    H140606   1.085   6.724   5.371  0.2048 -2.6259 -0.6340
 6397TIP3    H240607   1.188   6.676   5.471  0.9534  1.0162  0.3855
 6398TIP3   OH240608   5.882   0.059  16.542 -0.0416 -0.0704  0.3272
 6398TIP3    H140609   5.824  -0.015  16.560  0.1999 -0.4335 -0.3750
 6398TIP3    H240610   5.825   0.136  16.548 -0.2852 -0.3107  1.0995
 6399TIP3   OH240611   6.302   3.055   2.389 -0.2128  0.3035  0.2539
 6399TIP3    H140612   6.291   2.961   2.401  1.4843  0.3901  3.0612
 6399TIP3    H240613   6.382   3.063   2.336 -1.4533  0.1542 -1.6801
 6400TIP3   OH240614   5.355   5.213   5.706  0.6181 -0.1249  0.1117
 6400TIP3    H140615   5.357   5.285   5.642 -4.3620 -0.0837 -0.1489
 6400TIP3    H240616   5.291   5.240   5.771  1.2023 -2.8504  1.9025
 6401TIP3   OH240617   6.657   4.555   1.715  0.2503  0.0607 -0.2999
 6401TIP3    H140618   6.599   4.536   1.641 -1.2009  0.6444  0.6824
 6401TIP3    H240619   6.681   4.469   1.749  0.3820 -0.1939 -1.0159
 6402TIP3   OH240620   0.970   2.428   0.061  0.2191 -0.6124  0.6295
 6402TIP3    H140621   1.029   2.361   0.028  1.6907 -0.1437  2.1932
 6402TIP3    H240622   1.022   2.508   0.060  0.5330 -0.6576  4.3974
 6403TIP3   OH240623   2.899   5.990  11.430 -0.4123  0.8199 -0.3975
 6403TIP3    H140624   2.863   5.949  11.352 -1.4508  0.5357  0.2206
 6403TIP3    H240625   2.892   6.084  11.413 -3.0621  0.7915  0.4252
 6404TIP3   OH240626   4.060   2.695   1.837  0.2037  0.0017 -0.4613
 6404TIP3    H140627   4.000   2.697   1.763  0.5620  0.1312 -0.7451
 6404TIP3    H240628   4.107   2.612   1.828  0.0665 -0.1025 -0.2358
 6405TIP3   OH240629   3.225   5.179   0.672 -0.1199 -0.0481 -0.2942
 6405TIP3    H140630   3.246   5.234   0.747  2.0543 -1.2326 -0.0029
 6405TIP3    H240631   3.295   5.195   0.610  0.5128 -2.3894 -0.2417
 6406TIP3   OH240632   1.171   4.076  14.379 -0.1816 -0.0548 -0.1126
 6406TIP3    H140633   1.165   4.044  14.289  0.2512  0.4180 -0.3146
 6406TIP3    H240634   1.085   4.059  14.417 -0.3690 -0.2418 -0.6176
 6407TIP3   OH240635   4.018   4.113   0.138 -0.3077  0.7001 -0.0486
 6407TIP3    H140636   3.942   4.085   0.188  0.5769 -0.4954  0.6697
 6407TIP3    H240637   4.024   4.050   0.066  0.7838 -0.0390  0.6750
 6408TIP3   OH240638   5.960   6.531  14.451 -0.1425 -0.2894  0.0615
 6408TIP3    H140639   6.009   6.449  14.444 -1.5440 -1.1101 -0.2707
 6408TIP3    H240640   6.023   6.593  14.488  1.9396 -0.6116 -2.7705
 6409TIP3   OH240641   6.341   4.232   0.785  0.0765 -0.3134  0.6318
 6409TIP3    H140642   6.259   4.278   0.769  1.5957  2.5724  0.8746
 6409TIP3    H240643   6.345   4.223   0.881  1.0308  1.4386  0.7630
 6410TIP3   OH240644   0.849   6.763  16.796 -0.4940  0.4448  0.3056
 6410TIP3    H140645   0.815   6.851  16.780 -0.2929  0.3307 -0.7824
 6410TIP3    H240646   0.941   6.768  16.771 -0.3992  0.0161  0.5770
 6411TIP3   OH240647   3.414   6.730   2.325  0.5261  0.3658 -0.1189
 6411TIP3    H140648   3.326   6.766   2.316 -0.3631 -1.6588  0.4404
 6411TIP3    H240649   3.471   6.808   2.328 -1.3152  1.7179  0.5795
 6412TIP3   OH240650   1.541   6.379   0.444  0.2822 -0.8337 -0.2212
 6412TIP3    H140651   1.482   6.340   0.380 -1.2911 -0.0493  0.7202
 6412TIP3    H240652   1.628   6.348   0.419 -0.6112 -2.6712 -1.1321
 6413TIP3   OH240653   5.633   1.806  11.501 -0.0953  0.0670  0.2112
 6413TIP3    H140654   5.549   1.850  11.485 -0.7457 -1.0781  0.3959
 6413TIP3    H240655   5.642   1.804  11.596  0.4161  0.6835  0.1788
 6414TIP3   OH240656   3.438   2.415  12.098  1.0063 -0.2457 -0.3095
 6414TIP3    H140657   3.355   2.382  12.132  0.8151  2.0766  1.6214
 6414TIP3    H240658   3.413   2.477  12.030  1.0241  1.6321  1.3279
 6415TIP3   OH240659   5.133   2.397   4.317 -0.1351  0.0453 -0.1868
 6415TIP3    H140660   5.055   2.364   4.361 -0.4202 -0.1417 -0.8201
 6415TIP3    H240661   5.102   2.470   4.264  0.1798  0.1956 -0.1647
 6416TIP3   OH240662   6.359   0.700   2.263  0.6016  0.1341  0.1030
 6416TIP3    H140663   6.277   0.698   2.214  1.2097 -2.2787 -0.8644
 6416TIP3    H240664   6.421   0.745   2.205  0.6359 -0.3422 -0.2268
 6417TIP3   OH240665   5.213   0.084  14.402  0.5773  0.1183  0.3045
 6417TIP3    H140666   5.133   0.032  14.397 -0.0682  1.0005  1.3331
 6417TIP3    H240667   5.246   0.070  14.491  0.8624  0.7897  0.3076
 6418TIP3   OH240668   3.963   1.052   5.273  0.1777  0.6070  0.7297
 6418TIP3    H140669   3.911   1.074   5.195 -0.2024 -1.1676  0.4735
 6418TIP3    H240670   3.909   1.079   5.347 -0.1481  0.8026  0.4199
 6419TIP3   OH240671   5.348   5.246   0.641  0.3367  0.1736  0.0791
 6419TIP3    H140672   5.352   5.311   0.711 -0.5610 -0.8403  1.1023
 6419TIP3    H240673   5.328   5.297   0.563  1.1369  1.3029  0.5878
 6420TIP3   OH240674   5.342   4.054   5.967  0.1336  0.4630  0.4992
 6420TIP3    H140675   5.323   4.142   5.935 -0.2000  0.6043  1.0585
 6420TIP3    H240676   5.255   4.016   5.983  0.1359 -1.3286 -3.2674
 6421TIP3   OH240677   1.777   1.406  13.954 -0.8178  0.3380 -0.5847
 6421TIP3    H140678   1.773   1.435  14.046 -0.2347  0.5715 -0.6294
 6421TIP3    H240679   1.789   1.311  13.960  0.2147  0.4676 -0.3995
 6422TIP3   OH240680   5.942   0.743   3.318 -0.2006  0.2575 -0.3915
 6422TIP3    H140681   5.928   0.829   3.280  0.4615 -0.6110 -2.6747
 6422TIP3    H240682   5.895   0.683   3.260 -0.0577 -1.0012  0.7603
 6423TIP3   OH240683   2.575   6.639  10.835  0.1533 -0.3267  0.4000
 6423TIP3    H140684   2.665   6.618  10.860  0.2659 -0.2765  0.0430
 6423TIP3    H240685   2.527   6.558  10.847  0.1836 -0.2809  0.8631
 6424TIP3   OH240686   0.025   1.331  12.064 -0.0076  0.2365 -0.0431
 6424TIP3    H140687   0.077   1.266  12.016  1.2565 -0.1688  1.8502
 6424TIP3    H240688   0.087   1.400  12.086 -0.5274  0.3031  1.2325
 6425TIP3   OH240689   4.809   6.744  12.319  0.5840 -0.1371 -0.2695
 6425TIP3    H140690   4.895   6.785  12.325 -1.0584  3.3539  0.8947
 6425TIP3    H240691   4.807   6.681  12.391  2.2884 -0.5044 -0.5396
 6426TIP3   OH240692   0.226   2.750   0.963 -0.1306  0.0063 -0.0770
 6426TIP3    H140693   0.143   2.793   0.980 -0.6313 -0.8888 -0.2331
 6426TIP3    H240694   0.256   2.721   1.049  1.0272  2.1171  0.2609
 6427TIP3   OH240695   1.334   4.307  12.383 -1.0237 -0.0330  0.0225
 6427TIP3    H140696   1.310   4.396  12.408 -0.1203  0.0413  0.6603
 6427TIP3    H240697   1.380   4.273  12.460 -1.4585 -1.0849 -0.1806
 6428TIP3   OH240698   2.542   4.136   4.383  0.0230 -0.3616  0.0034
 6428TIP3    H140699   2.512   4.190   4.457 -2.0885 -0.0010 -1.0724
 6428TIP3    H240700   2.626   4.173   4.358 -0.3816  1.0351  0.6905
 6429TIP3   OH240701   1.527   2.358  11.867  0.6044  0.2850 -0.4600
 6429TIP3    H140702   1.559   2.364  11.957 -0.0591  0.1835 -0.2157
 6429TIP3    H240703   1.436   2.388  11.872  0.2656 -0.6412 -0.9307
 6430TIP3   OH240704   5.149   1.198  12.824  0.2039 -0.1362  0.3657
 6430TIP3    H140705   5.226   1.254  12.832 -0.0294  0.6515 -2.4614
 6430TIP3    H240706   5.183   1.109  12.832  1.2178  0.2437  0.3909
 6431TIP3   OH240707   1.967   0.773   0.945  0.8839 -0.3096  0.1493
 6431TIP3    H140708   2.048   0.814   0.912  0.3037  0.6701 -0.0989
 6431TIP3    H240709   1.897   0.827   0.907  0.0673 -2.0350 -0.8464
 6432TIP3   OH240710   5.317   6.111   3.320 -0.1890 -0.1962 -0.0950
 6432TIP3    H140711   5.229   6.073   3.318 -0.9858  1.6069 -0.7189
 6432TIP3    H240712   5.325   6.157   3.236  0.7825  0.8779  0.5760
 6433TIP3   OH240713   5.455   5.809  16.178 -0.2581  0.0886  0.1370
 6433TIP3    H140714   5.385   5.783  16.118 -0.5565  0.3618  0.3621
 6433TIP3    H240715   5.440   5.903  16.193  1.5919  0.7022 -1.6880
 6434TIP3   OH240716   1.584   6.391  13.020 -0.2522  0.1487  0.7195
 6434TIP3    H140717   1.580   6.483  12.995 -0.4277  0.3275  1.4047
 6434TIP3    H240718   1.660   6.385  13.078 -0.1243 -0.1771  0.5204
 6435TIP3   OH240719   0.831   5.077  11.271 -0.6049  0.1421  0.1543
 6435TIP3    H140720   0.825   5.122  11.356  0.8712  1.7107 -0.5268
 6435TIP3    H240721   0.903   5.122  11.226 -0.7326 -1.3164 -1.5476
 6436TIP3   OH240722   0.323   2.358   0.763 -0.1155 -0.0024 -0.1916
 6436TIP3    H140723   0.259   2.293   0.735  2.8618 -2.4277 -1.7344
 6436TIP3    H240724   0.333   2.417   0.688  0.1938 -0.2461 -0.3445
 6437TIP3   OH240725   2.600   0.858  12.538  0.0711  0.0119  0.3413
 6437TIP3    H140726   2.679   0.896  12.500 -0.0651  0.5976  0.6391
 6437TIP3    H240727   2.610   0.872  12.632  1.1339 -2.7925  0.6740
 6438TIP3   OH240728   4.968   0.224  12.764  0.3775 -0.0437  0.3804
 6438TIP3    H140729   4.907   0.266  12.703  0.3571 -0.6661 -0.0254
 6438TIP3    H240730   4.937   0.249  12.851 -1.1340 -1.3049  0.2161
 6439TIP3   OH240731   3.797   2.582  13.054 -0.3676 -0.1238  0.1306
 6439TIP3    H140732   3.778   2.615  12.966  0.3635  0.1382  0.0668
 6439TIP3    H240733   3.748   2.640  13.113 -1.0355 -0.4361 -0.1077
 6440TIP3   OH240734   6.476   6.109   1.399  0.0763 -0.2498  0.0679
 6440TIP3    H140735   6.458   6.203   1.393  1.6473  0.0390 -0.4382
 6440TIP3    H240736   6.506   6.095   1.489  1.0133 -0.0345 -0.2019
 6441TIP3   OH240737   1.527   4.137  14.329  0.4646 -0.0914  0.6475
 6441TIP3    H140738   1.432   4.128  14.337  0.4857  0.1314  1.1773
 6441TIP3    H240739   1.554   4.060  14.279  0.0092 -0.1665  0.5132
 6442TIP3   OH240740   3.230   5.508   5.656  0.0062  0.3632  0.4248
 6442TIP3    H140741   3.326   5.507   5.651  0.1756  0.6003  2.8361
 6442TIP3    H240742   3.206   5.595   5.625  0.5331  0.1505 -0.6114
 6443TIP3   OH240743   5.156   2.817   4.382  0.7580  0.0922 -0.1940
 6443TIP3    H140744   5.183   2.734   4.421 -0.0382  0.2285  0.6867
 6443TIP3    H240745   5.117   2.793   4.298  0.8623 -0.3959 -0.1053
 6444TIP3   OH240746   5.436   4.882   3.254 -0.2053 -0.0904 -0.5033
 6444TIP3    H140747   5.363   4.834   3.214  0.6649  0.2877 -2.6218
 6444TIP3    H240748   5.510   4.821   3.249 -0.0786 -0.0449  0.6024
 6445TIP3   OH240749   6.010   0.371   4.819 -0.1500 -0.0100 -0.2268
 6445TIP3    H140750   6.013   0.306   4.890  0.0467  1.2354  0.9311
 6445TIP3    H240751   6.045   0.325   4.743 -0.0214 -1.2627  0.5690
 6446TIP3   OH240752   0.430   5.215   5.983  0.0154  0.1555  0.4899
 6446TIP3    H140753   0.432   5.124   5.953  1.0041 -0.3593  2.0548
 6446TIP3    H240754   0.348   5.250   5.947  0.4192 -0.8621 -1.4915
 6447TIP3   OH240755   5.965   3.028  14.907  0.3036 -0.1086  0.3013
 6447TIP3    H140756   5.901   3.049  14.839 -0.8410 -2.0204  0.7691
 6447TIP3    H240757   6.048   3.062  14.872 -0.5057  0.2105 -1.3936
 6448TIP3   OH240758   3.679   0.909  15.382 -0.3052 -0.4549 -0.3579
 6448TIP3    H140759   3.695   0.871  15.296 -0.5584 -2.0923  0.2965
 6448TIP3    H240760   3.654   1.000  15.365 -1.0302 -0.9626 -2.0352
 6449TIP3   OH240761   2.174   2.198   2.810  0.1502 -0.2330  0.6737
 6449TIP3    H140762   2.253   2.163   2.768 -0.0041  0.9110 -0.5880
 6449TIP3    H240763   2.147   2.128   2.870  1.1864 -1.3141 -0.0778
 6450TIP3   OH240764   0.048   6.271  14.994 -0.3803  0.1730 -0.4739
 6450TIP3    H140765   0.058   6.182  15.027  1.7022  1.0717  1.4817
 6450TIP3    H240766  -0.047   6.284  14.987 -0.7037 -2.0276 -0.3542
 6451TIP3   OH240767   1.673   2.006  15.425  0.1848 -0.4181 -0.0659
 6451TIP3    H140768   1.702   1.916  15.441  0.3586  0.3274  4.2181
 6451TIP3    H240769   1.751   2.059  15.437 -0.4221  0.5316 -0.2638
 6452TIP3   OH240770   6.226   0.307   4.352  0.7299 -0.4607 -0.0563
 6452TIP3    H140771   6.301   0.364   4.339 -0.0618  0.3300 -1.3109
 6452TIP3    H240772   6.186   0.338   4.433  1.0278 -0.0661 -0.0612
 6453TIP3   OH240773   1.016   4.033   0.629  0.1426 -0.0146 -0.5129
 6453TIP3    H140774   1.096   3.986   0.605  0.8820  0.7839  0.3177
 6453TIP3    H240775   0.946   3.970   0.615  0.8420 -0.4937 -1.9296
 6454TIP3   OH240776   1.697   6.033   3.536 -0.3820 -0.0235  0.0034
 6454TIP3    H140777   1.609   5.998   3.522  0.1603 -0.5160 -2.4560
 6454TIP3    H240778   1.740   5.969   3.593 -1.1195 -0.5630 -0.0419
 6455TIP3   OH240779   2.497   4.598   4.433  0.0639 -0.1726 -0.4050
 6455TIP3    H140780   2.533   4.519   4.392 -0.6469 -1.3243  1.1556
 6455TIP3    H240781   2.458   4.647   4.360  1.8908 -0.4709 -1.6224
 6456TIP3   OH240782   5.936   3.148   3.946  0.0595 -0.3175  0.0762
 6456TIP3    H140783   6.007   3.161   3.882  0.1310 -0.0195  0.2152
 6456TIP3    H240784   5.979   3.156   4.031 -0.3229  0.8371  0.1595
 6457TIP3   OH240785   1.969   5.355   4.511 -0.0403 -0.0682  0.3240
 6457TIP3    H140786   1.950   5.358   4.605 -1.5663 -1.8703  0.1018
 6457TIP3    H240787   2.063   5.341   4.505 -0.0513 -0.7256  1.6037
 6458TIP3   OH240788   1.535   4.179  15.866 -0.5942  0.2084  0.6434
 6458TIP3    H140789   1.607   4.221  15.913  1.9383 -0.9808 -2.0751
 6458TIP3    H240790   1.526   4.094  15.909  0.2407 -0.0146  0.3766
 6459TIP3   OH240791   1.922   5.763  15.293 -0.3686 -0.0704  0.2623
 6459TIP3    H140792   1.859   5.730  15.229  0.9610 -2.0786 -0.0374
 6459TIP3    H240793   1.996   5.794  15.242 -0.2310  0.3847  0.7274
 6460TIP3   OH240794   0.174   2.611  11.015  0.3594 -0.2850  0.3945
 6460TIP3    H140795   0.238   2.585  11.081 -0.4168 -0.9047  0.9316
 6460TIP3    H240796   0.200   2.564  10.936  2.5105  2.0931 -0.3401
 6461TIP3   OH240797   2.530   1.175  14.270  0.5963  0.3193 -0.2253
 6461TIP3    H140798   2.594   1.245  14.259  1.3114 -0.4577 -1.0900
 6461TIP3    H240799   2.531   1.128  14.186 -0.3293 -0.3486  0.1259
 6462TIP3   OH240800   4.820   2.429  16.940  0.2355  0.4376 -0.3837
 6462TIP3    H140801   4.858   2.495  16.998 -1.8476  0.9616  0.4118
 6462TIP3    H240802   4.829   2.347  16.987 -1.6109  0.8865  0.7774
 6463TIP3   OH240803   3.233   3.984   4.518 -0.6257  0.1220  0.5969
 6463TIP3    H140804   3.156   3.986   4.461  0.1378 -0.0684 -0.4582
 6463TIP3    H240805   3.255   4.076   4.532 -0.0666  0.1666 -0.4704
 6464TIP3   OH240806   6.241   0.940   3.703 -0.4022 -0.1127 -0.1784
 6464TIP3    H140807   6.271   0.902   3.620 -2.4542 -1.1081 -0.4946
 6464TIP3    H240808   6.303   1.010   3.721  2.7179 -2.7309 -0.2801
 6465TIP3   OH240809   5.740   4.499  17.236  0.1125  0.2416 -0.3058
 6465TIP3    H140810   5.689   4.436  17.287  1.6370  0.9844  2.2309
 6465TIP3    H240811   5.821   4.453  17.214  0.7176  0.8927  0.5201
 6466TIP3   OH240812   4.091   3.974   3.138 -0.2944  0.4788 -0.1985
 6466TIP3    H140813   4.066   4.050   3.085  0.7491  1.9956  1.4385
 6466TIP3    H240814   4.144   4.011   3.208  2.7252 -2.1359 -1.0272
 6467TIP3   OH240815   2.169   6.319  12.084  0.4234  0.3521 -0.0883
 6467TIP3    H140816   2.261   6.341  12.099  0.6926 -0.3531 -0.6693
 6467TIP3    H240817   2.120   6.393  12.121  1.2676  1.4431 -1.1107
 6468TIP3   OH240818   3.586   0.073   6.127  0.2398 -0.3804 -0.3512
 6468TIP3    H140819   3.501   0.101   6.161  1.4760  1.2386  1.4937
 6468TIP3    H240820   3.597   0.122   6.045  0.3187  1.0357  0.4911
 6469TIP3   OH240821   0.080   6.210   2.245 -0.4154  0.0613  1.0732
 6469TIP3    H140822   0.016   6.245   2.184 -0.2248 -0.8494  0.3420
 6469TIP3    H240823   0.163   6.212   2.197 -0.2652 -0.6422  1.2990
 6470TIP3   OH240824   6.739   6.772   2.116 -0.2044  0.8988 -0.2606
 6470TIP3    H140825   6.757   6.699   2.056  0.4945  2.0484 -1.4814
 6470TIP3    H240826   6.817   6.778   2.171 -0.4637  0.4280  0.1635
 6471TIP3   OH240827   3.190   6.434   3.260 -0.6100 -0.4584 -0.2002
 6471TIP3    H140828   3.113   6.415   3.313  0.4927 -1.3485  1.1020
 6471TIP3    H240829   3.155   6.446   3.171 -2.4717  1.1618  0.7129
 6472TIP3   OH240830   2.163   4.494   4.489 -0.4229  0.4671 -0.5187
 6472TIP3    H140831   2.081   4.544   4.491 -0.4158  0.4842 -0.6205
 6472TIP3    H240832   2.222   4.543   4.546 -0.2559  0.8615 -1.0301
 6473TIP3   OH240833   3.811   6.052  13.564 -0.6392 -0.3639 -0.5284
 6473TIP3    H140834   3.762   6.094  13.635  0.7662  0.8073 -0.2413
 6473TIP3    H240835   3.781   5.961  13.566 -0.4089 -0.4232  1.7607
 6474TIP3   OH240836   0.890   3.577   1.813 -0.0867  0.3701 -0.0075
 6474TIP3    H140837   0.807   3.565   1.860  0.3093 -0.9847  0.3633
 6474TIP3    H240838   0.912   3.669   1.828 -0.4552  0.2063  1.6947
 6475TIP3   OH240839   1.099   6.260   3.881  0.2529  0.3735  0.3062
 6475TIP3    H140840   1.122   6.286   3.971  0.1040  2.1728 -0.1414
 6475TIP3    H240841   1.124   6.336   3.828 -1.4130  0.0791 -0.9318
 6476TIP3   OH240842   0.558   1.310  12.897 -0.2356  0.3919  0.5653
 6476TIP3    H140843   0.539   1.217  12.890  0.2901  0.3502 -0.3944
 6476TIP3    H240844   0.581   1.337  12.807  1.6836  0.9818  1.1983
 6477TIP3   OH240845   6.437   1.265  14.248 -0.0034 -0.1907 -0.4756
 6477TIP3    H140846   6.517   1.300  14.288 -0.0768 -0.2784 -0.2480
 6477TIP3    H240847   6.407   1.199  14.310  1.0490 -1.8436 -1.6832
 6478TIP3   OH240848   2.658   4.382  15.474 -0.1417 -0.5662 -0.0359
 6478TIP3    H140849   2.736   4.428  15.506 -0.3018 -0.0574 -0.3772
 6478TIP3    H240850   2.661   4.297  15.517  0.9823 -0.8116 -0.5858
 6479TIP3   OH240851   3.960   5.135   6.611 -0.0590 -0.1594  0.2638
 6479TIP3    H140852   4.012   5.123   6.531  0.1337 -1.2942  0.5612
 6479TIP3    H240853   4.014   5.193   6.666  0.2825 -0.2359  0.0113
 6480TIP3   OH240854   2.400   5.650   4.386 -0.4092 -0.7559  0.9183
 6480TIP3    H140855   2.393   5.570   4.333  1.5254  0.0792 -0.6345
 6480TIP3    H240856   2.317   5.696   4.370 -0.6667 -1.4577  0.1990
 6481TIP3   OH240857   2.394   4.356  14.967  1.0045 -0.2878  0.1116
 6481TIP3    H140858   2.349   4.313  15.040  0.5650 -0.9741 -0.5612
 6481TIP3    H240859   2.443   4.286  14.924  1.1211  0.0784 -0.3537
 6482TIP3   OH240860   1.165   0.041   0.065  0.5994 -0.1727  0.0317
 6482TIP3    H140861   1.127  -0.016   0.132 -0.8091  0.9008  0.1580
 6482TIP3    H240862   1.258   0.046   0.089  0.3029 -0.5928  1.3349
 6483TIP3   OH240863   2.180   0.154   4.795  0.3050 -0.5383 -0.0352
 6483TIP3    H140864   2.114   0.194   4.740  0.3106 -0.6758 -0.1417
 6483TIP3    H240865   2.134   0.132   4.876  0.6735  1.1660  0.6593
 6484TIP3   OH240866   5.620   5.658  15.724 -0.2004 -0.4096  0.2148
 6484TIP3    H140867   5.655   5.694  15.642  0.5714  1.2663  1.2434
 6484TIP3    H240868   5.559   5.725  15.755 -0.0076 -0.7433  1.3287
 6485TIP3   OH240869   4.050   3.136   0.781 -0.0362  0.1497 -0.5588
 6485TIP3    H140870   3.980   3.182   0.827 -1.0533  0.4821 -2.4203
 6485TIP3    H240871   4.040   3.044   0.807 -0.6788  0.3095 -0.2469
 6486TIP3   OH240872   3.906   6.189   0.972 -0.2559  0.3973 -0.5657
 6486TIP3    H140873   3.999   6.169   0.981  0.0869  1.8272 -0.7588
 6486TIP3    H240874   3.862   6.122   1.024  0.9818  0.6827  0.8835
 6487TIP3   OH240875   6.026   4.684   6.297 -0.3100  0.3570  0.4902
 6487TIP3    H140876   5.968   4.725   6.360 -0.9094 -1.4179  1.1439
 6487TIP3    H240877   5.981   4.603   6.272  1.3635 -0.5099  0.1636
 6488TIP3   OH240878   6.072   6.576  17.006 -0.1110  0.1380 -0.0212
 6488TIP3    H140879   6.037   6.641  16.944 -1.5489  0.8890  1.5362
 6488TIP3    H240880   6.164   6.601  17.016 -0.4035  1.3448 -0.1989
 6489TIP3   OH240881   5.038   5.274   5.564  1.1298  0.6389  0.5820
 6489TIP3    H140882   4.966   5.284   5.502  1.4778 -0.0441  0.0670
 6489TIP3    H240883   5.116   5.296   5.514  1.6062 -1.7117  0.2465
 6490TIP3   OH240884   0.121   5.139  13.605  0.4003  0.9385 -0.2614
 6490TIP3    H140885   0.059   5.119  13.675  1.3321 -2.6153 -0.3439
 6490TIP3    H240886   0.102   5.230  13.582 -3.5278  0.5454  0.9381
 6491TIP3   OH240887   3.062   0.776  14.287 -0.0110 -0.1300 -0.0441
 6491TIP3    H140888   3.123   0.839  14.325 -0.5829  1.3563 -1.5041
 6491TIP3    H240889   3.010   0.744  14.361 -0.6967  2.2300  0.5476
 6492TIP3   OH240890   1.162   4.827  10.709  0.0117 -0.7677 -0.5621
 6492TIP3    H140891   1.117   4.896  10.661  1.3373  0.7189  0.2833
 6492TIP3    H240892   1.234   4.801  10.651  2.6252  2.1892  1.2252
 6493TIP3   OH240893   6.711   3.362  13.218  0.5829 -0.2063  0.2644
 6493TIP3    H140894   6.629   3.351  13.170  0.3893  1.5374  0.1570
 6493TIP3    H240895   6.775   3.385  13.151  0.5759  1.0410  0.6728
 6494TIP3   OH240896   3.714   0.577  11.779 -0.2822  0.3176 -0.4177
 6494TIP3    H140897   3.634   0.600  11.733 -1.3611 -1.6777  0.4035
 6494TIP3    H240898   3.685   0.550  11.867  1.2876 -0.2845 -0.0652
 6495TIP3   OH240899   2.267   5.797   0.700 -0.3373  0.1183 -0.0188
 6495TIP3    H140900   2.335   5.736   0.728 -0.1334 -0.3823 -1.5474
 6495TIP3    H240901   2.201   5.741   0.658 -0.9040  0.7820 -0.0222
 6496TIP3   OH240902   2.042   4.203  13.701  0.0559 -0.2054  0.4948
 6496TIP3    H140903   1.980   4.132  13.715 -1.7076  0.9445 -1.3151
 6496TIP3    H240904   2.105   4.168  13.638 -1.2290  0.0283 -0.9594
 6497TIP3   OH240905   2.969   4.977  13.736 -0.4343  0.1551 -0.4047
 6497TIP3    H140906   2.986   5.006  13.826  0.5883  2.4320 -1.3076
 6497TIP3    H240907   3.053   4.943  13.706 -0.2832  1.1341 -1.1180
 6498TIP3   OH240908   3.696   1.068   2.149  0.3708  0.3050 -0.3425
 6498TIP3    H140909   3.701   1.114   2.233  2.9294 -2.0845  0.9125
 6498TIP3    H240910   3.768   1.106   2.097 -0.7043  1.2146 -1.2037
 6499TIP3   OH240911   5.788   0.678  15.229 -0.1015  0.2501 -0.3788
 6499TIP3    H140912   5.741   0.742  15.284  0.6853 -0.5384  1.2170
 6499TIP3    H240913   5.877   0.678  15.262  0.5245  0.1523 -2.0227
 6500TIP3   OH240914   4.632   4.386   5.006 -0.1266  0.0283 -0.4061
 6500TIP3    H140915   4.563   4.389   4.940  0.2595 -0.2060 -0.8247
 6500TIP3    H240916   4.586   4.394   5.090 -0.6732 -0.2558 -0.6752
 6501TIP3   OH240917   3.494   3.014  13.756  0.0854  0.3130 -0.3802
 6501TIP3    H140918   3.437   3.077  13.711 -1.2091 -1.9909 -2.0764
 6501TIP3    H240919   3.573   3.010  13.702  0.8632  1.6597  0.6227
 6502TIP3   OH240920   5.196   6.545   3.382 -0.3197  0.1265 -0.1569
 6502TIP3    H140921   5.135   6.618   3.389  0.1958  0.4742  0.7496
 6502TIP3    H240922   5.147   6.470   3.416  0.4139  0.7990  2.5180
 6503TIP3   OH240923   3.568   0.122   3.185 -0.8466 -0.6005 -0.1869
 6503TIP3    H140924   3.547   0.215   3.173 -0.5182 -0.6820 -1.4532
 6503TIP3    H240925   3.536   0.101   3.273 -1.4940  0.5538 -0.1421
 6504TIP3   OH240926   4.299   0.631   1.590  0.1053 -0.4077  0.2087
 6504TIP3    H140927   4.382   0.679   1.594  0.6734 -1.4775  1.9054
 6504TIP3    H240928   4.293   0.600   1.500  0.6793  1.1618 -0.3946
 6505TIP3   OH240929   2.242   2.015  13.493 -0.1154  0.3926  0.5400
 6505TIP3    H140930   2.258   2.079  13.563 -0.3719 -1.5304  2.4068
 6505TIP3    H240931   2.182   1.952  13.531  1.2273 -1.7442 -0.7795
 6506TIP3   OH240932   0.753   4.615   4.604  0.1975  0.0653  0.1792
 6506TIP3    H140933   0.685   4.677   4.631  1.5294  2.8548 -2.4528
 6506TIP3    H240934   0.835   4.658   4.629  1.1673 -0.3026 -2.1892
 6507TIP3   OH240935   6.178   5.239  16.892  0.2059 -0.6625  0.1538
 6507TIP3    H140936   6.272   5.246  16.906  0.3984 -1.7396 -0.4844
 6507TIP3    H240937   6.139   5.265  16.975  1.1176 -1.4203  0.8283
 6508TIP3   OH240938   5.268   2.832  15.253  0.1686 -0.3665 -0.2818
 6508TIP3    H140939   5.342   2.848  15.312 -0.9574  2.6470  0.3763
 6508TIP3    H240940   5.203   2.787  15.307  0.0665  0.2983  0.1536
 6509TIP3   OH240941   0.780   4.841   2.444  0.0671  0.3539 -0.1326
 6509TIP3    H140942   0.697   4.871   2.407  0.7081  1.9394 -0.2846
 6509TIP3    H240943   0.824   4.798   2.371 -0.8782 -1.0872  0.1094
 6510TIP3   OH240944   4.036   4.047  13.175  0.8368  0.1103 -0.6881
 6510TIP3    H140945   3.982   3.968  13.171  0.1981  0.5359 -0.6983
 6510TIP3    H240946   4.103   4.028  13.240 -1.1785  0.6918  1.6147
 6511TIP3   OH240947   2.433   3.644  16.306 -0.2227 -0.3018 -0.4160
 6511TIP3    H140948   2.482   3.686  16.235  0.7795  0.6870  0.8486
 6511TIP3    H240949   2.392   3.716  16.353 -0.9550 -0.9654 -0.0254
 6512TIP3   OH240950   6.376   6.278   5.191  0.0118 -0.0284  0.0225
 6512TIP3    H140951   6.334   6.223   5.257 -0.2789 -1.8178 -1.5982
 6512TIP3    H240952   6.329   6.259   5.110  1.2994  1.0144 -1.0011
 6513TIP3   OH240953   0.086   5.973  13.679 -0.2959  0.1840 -0.3316
 6513TIP3    H140954   0.000   5.997  13.715 -0.4473 -0.0717 -0.5217
 6513TIP3    H240955   0.066   5.910  13.610  0.1885 -1.5207  1.0775
 6514TIP3   OH240956   5.692   1.374  12.210  0.1786  0.0487 -0.2297
 6514TIP3    H140957   5.645   1.370  12.293 -2.4982 -0.3419 -1.7195
 6514TIP3    H240958   5.667   1.294  12.164  1.2432  0.4984 -1.6360
 6515TIP3   OH240959   1.200   6.465   6.354  0.2784  0.0885 -0.1107
 6515TIP3    H140960   1.180   6.376   6.383 -0.1533 -0.1892 -1.2008
 6515TIP3    H240961   1.138   6.520   6.401 -0.9605 -0.4423 -1.0815
 6516TIP3   OH240962   5.285   3.142   6.895 -0.1114 -0.4547  0.8315
 6516TIP3    H140963   5.370   3.187   6.904 -0.5050  0.3651  0.5137
 6516TIP3    H240964   5.228   3.208   6.856 -0.6794 -1.2685  0.2958
 6517TIP3   OH240965   0.504   3.610  16.418  0.4486 -0.0792  0.5105
 6517TIP3    H140966   0.452   3.556  16.477 -0.7840  0.0258 -0.4621
 6517TIP3    H240967   0.556   3.548  16.367 -1.3991 -0.3925 -1.0132
 6518TIP3   OH240968   4.665   2.069  15.388 -0.1426  0.5068 -0.0652
 6518TIP3    H140969   4.614   2.093  15.466 -0.3140  0.8720 -0.2878
 6518TIP3    H240970   4.728   2.004  15.420 -0.1109  0.7683  0.4099
 6519TIP3   OH240971   2.642   4.685  12.146 -0.2066 -0.5726  0.6148
 6519TIP3    H140972   2.661   4.656  12.235  1.7683 -0.4678  0.2499
 6519TIP3    H240973   2.681   4.772  12.139  0.2351 -0.8485 -0.5473
 6520TIP3   OH240974   3.315   0.740   4.681 -0.2675  0.1086 -0.2672
 6520TIP3    H140975   3.268   0.669   4.637 -0.8022 -0.0211  0.4890
 6520TIP3    H240976   3.249   0.810   4.691 -0.3698 -0.1403  0.9583
 6521TIP3   OH240977   2.944   2.041  13.474 -0.3183  0.6508  0.2046
 6521TIP3    H140978   2.949   2.119  13.529 -1.3447  0.9124 -0.0736
 6521TIP3    H240979   2.960   1.969  13.534  1.9538  1.1326  0.2451
 6522TIP3   OH240980   2.293   5.280  14.034 -0.6311  0.3536 -0.2498
 6522TIP3    H140981   2.362   5.223  14.070 -0.9166  1.5294  2.2475
 6522TIP3    H240982   2.338   5.332  13.968  0.1627 -1.0750 -0.8727
 6523TIP3   OH240983   4.880   4.986   0.353  0.3651  0.0130 -0.3264
 6523TIP3    H140984   4.789   5.013   0.344  0.4936  0.1665 -1.3068
 6523TIP3    H240985   4.875   4.894   0.380 -0.0781  0.1689  0.1266
 6524TIP3   OH240986   5.903   1.346   3.171  0.1895 -0.3784  0.2302
 6524TIP3    H140987   5.961   1.381   3.239  0.3994 -0.5801  0.1534
 6524TIP3    H240988   5.851   1.280   3.216  2.3868 -2.6508 -0.4639
 6525TIP3   OH240989   4.314   2.324  14.560 -0.5599 -0.3351 -0.0014
 6525TIP3    H140990   4.375   2.389  14.525 -0.6482 -0.7934 -1.0249
 6525TIP3    H240991   4.339   2.315  14.652 -0.0241  0.5461 -0.0546
 6526TIP3   OH240992   3.039   0.925  12.269 -0.1757  0.2749 -0.7648
 6526TIP3    H140993   3.110   0.865  12.291 -0.6981  0.3327  1.1697
 6526TIP3    H240994   3.076   1.012  12.282 -1.2578  0.3012  2.6309
 6527TIP3   OH240995   0.322   6.323   0.664 -0.3506 -0.2496  0.1946
 6527TIP3    H140996   0.348   6.232   0.669  0.9025  0.0221 -1.3063
 6527TIP3    H240997   0.380   6.363   0.599  0.8013  2.1980  2.6147
 6528TIP3   OH240998   4.840   5.134   6.444 -0.2572  0.2826  0.2170
 6528TIP3    H140999   4.759   5.104   6.485 -0.8390  0.4345 -0.7991
 6528TIP3    H241000   4.907   5.122   6.511 -1.0745 -0.0957  0.9751
 6529TIP3   OH241001   4.972   1.606  16.656 -0.4168  0.4741  0.1473
 6529TIP3    H141002   4.912   1.571  16.590 -0.1419  1.4249 -0.6134
 6529TIP3    H241003   5.035   1.658  16.606 -0.1716  1.1559  1.1497
 6530TIP3   OH241004   0.896   1.739  13.004  0.7408 -0.3455 -0.0226
 6530TIP3    H141005   0.975   1.687  12.993  0.4576 -0.5720 -1.0206
 6530TIP3    H241006   0.867   1.759  12.915 -1.0313 -1.3598  0.2755
 6531TIP3   OH241007   1.852   1.122  16.660  0.2380  0.2488  0.2318
 6531TIP3    H141008   1.855   1.210  16.622  0.3884 -0.5157 -1.5698
 6531TIP3    H241009   1.760   1.097  16.656  0.5684 -0.7066 -1.6976
 6532TIP3   OH241010   6.446   0.444   0.528  0.0884 -0.1845  0.0311
 6532TIP3    H141011   6.439   0.459   0.434 -2.0772  1.2955  0.4055
 6532TIP3    H241012   6.389   0.369   0.545 -0.7616  0.5457  0.4033
 6533TIP3   OH241013   5.434   4.961  12.943 -0.1593  0.0025 -0.0512
 6533TIP3    H141014   5.445   5.039  12.998 -1.1098 -1.2443  1.9683
 6533TIP3    H241015   5.509   4.963  12.883  0.4056  1.8896  0.6898
 6534TIP3   OH241016   0.551   4.305  11.629  0.4084  0.3492  0.0789
 6534TIP3    H141017   0.547   4.399  11.613  1.3213  1.0512  3.5320
 6534TIP3    H241018   0.460   4.277  11.630  0.0456  1.5323  0.7593
 6535TIP3   OH241019   0.765   5.654  16.918 -0.2948  0.7955 -0.4431
 6535TIP3    H141020   0.719   5.619  16.842 -1.1562 -0.2861  0.5459
 6535TIP3    H241021   0.737   5.598  16.991  1.3789  1.1080  0.4739
 6536TIP3   OH241022   1.551   6.666  15.231 -0.0521  0.3482 -0.2731
 6536TIP3    H141023   1.612   6.685  15.160  0.4653  0.7494  0.2786
 6536TIP3    H241024   1.572   6.577  15.258  0.1791  0.4270 -0.1936
 6537TIP3   OH241025   0.018   0.922  12.550  0.1544  0.3907  0.7118
 6537TIP3    H141026  -0.003   0.880  12.467  1.0205 -0.6162  1.0060
 6537TIP3    H241027   0.051   1.008  12.525 -0.0348  0.2757  0.0448
 6538TIP3   OH241028   4.644   4.144  14.095 -0.1456  0.2072 -0.1570
 6538TIP3    H141029   4.601   4.086  14.159  0.9486 -1.9287 -1.3213
 6538TIP3    H241030   4.692   4.207  14.149 -0.4496 -0.6437  1.1436
 6539TIP3   OH241031   6.396   2.153   0.882 -0.6069  0.4350  0.1008
 6539TIP3    H141032   6.446   2.233   0.866 -1.3079  0.5278 -1.8188
 6539TIP3    H241033   6.306   2.182   0.895 -0.7158  0.0305  0.2711
 6540TIP3   OH241034   4.207   0.914  10.597 -0.0671 -0.3501 -0.0617
 6540TIP3    H141035   4.161   0.836  10.568  0.6595 -1.1367  0.8844
 6540TIP3    H241036   4.196   0.976  10.525 -0.9986 -1.1702 -0.6424
 6541TIP3   OH241037   3.385   5.580  14.287 -0.1479  0.5500  0.5223
 6541TIP3    H141038   3.428   5.664  14.270  0.7225 -0.2353 -1.1915
 6541TIP3    H241039   3.397   5.567  14.382  1.7277  1.2596  0.4137
 6542TIP3   OH241040   0.513   3.825   5.121  0.1565 -0.3365  0.1984
 6542TIP3    H141041   0.444   3.883   5.089 -0.1374 -0.5513  0.4421
 6542TIP3    H241042   0.471   3.774   5.190  0.3062 -1.1081 -0.2709
 6543TIP3   OH241043   5.249   2.051   5.601 -0.1935 -0.3763  0.2608
 6543TIP3    H141044   5.284   1.969   5.566 -1.3931 -0.5061 -0.6507
 6543TIP3    H241045   5.161   2.030   5.631 -0.5879  0.6099 -0.1605
 6544TIP3   OH241046   3.136   0.486   2.431 -0.3538  0.3408 -0.1822
 6544TIP3    H141047   3.143   0.402   2.474 -1.2226  1.7972  2.9177
 6544TIP3    H241048   3.129   0.550   2.502 -0.2926  2.9852 -2.4426
 6545TIP3   OH241049   5.540   2.479   4.035 -0.5177  0.4480  1.1986
 6545TIP3    H141050   5.455   2.449   4.003 -0.0669  0.9709 -0.5189
 6545TIP3    H241051   5.520   2.560   4.082 -1.1890 -0.3729  2.3841
 6546TIP3   OH241052   1.240   4.231  16.256  0.0593 -0.2728 -0.2635
 6546TIP3    H141053   1.259   4.145  16.292  0.1531  0.2309  0.9335
 6546TIP3    H241054   1.205   4.281  16.330 -1.3325  0.2868 -1.2634
 6547TIP3   OH241055   0.788   4.591  15.848  0.2363 -0.6599 -0.1226
 6547TIP3    H141056   0.867   4.543  15.872 -0.4553 -2.8355 -1.9673
 6547TIP3    H241057   0.816   4.654  15.782  0.6672 -0.4484  0.2610
 6548TIP3   OH241058   4.318   1.020  11.884 -0.1923  0.2324 -0.2569
 6548TIP3    H141059   4.335   0.990  11.795 -0.8883  0.8861 -0.6155
 6548TIP3    H241060   4.394   0.990  11.934  0.1052 -0.3190 -1.0232
 6549TIP3   OH241061   0.060   2.694   6.161  0.0284  0.3502 -0.1565
 6549TIP3    H141062   0.002   2.706   6.236  0.6417  1.6062  0.1372
 6549TIP3    H241063   0.044   2.604   6.132  0.1489 -0.3139  1.7890
 6550TIP3   OH241064   6.195   0.261   1.666 -0.0926  0.2396 -0.1530
 6550TIP3    H141065   6.244   0.302   1.594 -1.1995 -1.0484 -1.6679
 6550TIP3    H241066   6.208   0.167   1.654  1.9058  0.0708  2.9448
 6551TIP3   OH241067   5.441   5.844  16.493  0.4273 -0.2630  0.1310
 6551TIP3    H141068   5.379   5.813  16.428  0.8379 -0.5788 -0.1112
 6551TIP3    H241069   5.508   5.889  16.442  0.2487  0.3324  0.4134
 6552TIP3   OH241070   2.507   5.843   3.508  0.2097 -0.3525 -0.3405
 6552TIP3    H141071   2.504   5.904   3.582  1.3648 -0.4558 -0.1947
 6552TIP3    H241072   2.598   5.813   3.506 -0.4050 -2.2943 -0.2403
 6553TIP3   OH241073   5.863   3.277  13.332 -0.4174 -0.2688  0.5097
 6553TIP3    H141074   5.881   3.297  13.424  3.0282 -0.7309  0.0019
 6553TIP3    H241075   5.816   3.194  13.334  3.6174 -2.6392  1.7223
 6554TIP3   OH241076   0.111   2.829  16.227 -0.0315 -0.0366 -0.0046
 6554TIP3    H141077   0.109   2.736  16.249  0.3548 -0.3800 -1.3319
 6554TIP3    H241078   0.027   2.863  16.258  0.5313 -0.4527  2.0163
 6555TIP3   OH241079   2.125   2.782  13.292  0.2491  0.0597 -0.0834
 6555TIP3    H141080   2.205   2.789  13.345  1.1113  0.2389 -1.3754
 6555TIP3    H241081   2.148   2.720  13.222 -1.1231 -0.7830  0.1899
 6556TIP3   OH241082   4.012   2.054  14.349 -0.5696  0.1498  0.4711
 6556TIP3    H141083   4.017   2.144  14.319  0.8030  0.1425  0.6657
 6556TIP3    H241084   4.029   2.059  14.443  0.1759 -0.3855  0.3650
 6557TIP3   OH241085   0.133   3.405  16.525 -0.1928  0.5724 -0.0269
 6557TIP3    H141086   0.211   3.361  16.490 -0.7441 -0.0729 -0.4730
 6557TIP3    H241087   0.071   3.404  16.452 -1.1246 -0.2056  0.7596
 6558TIP3   OH241088   5.860   6.074   0.944 -0.0108 -0.1297 -0.6531
 6558TIP3    H141089   5.824   6.160   0.925  1.9704  0.5893 -1.3069
 6558TIP3    H241090   5.810   6.042   1.019  0.2406  2.2478  0.5582
 6559TIP3   OH241091   4.544   1.271   4.721  0.0770  0.3393 -0.3544
 6559TIP3    H141092   4.520   1.186   4.757  2.1037  0.2641  0.8770
 6559TIP3    H241093   4.463   1.322   4.725 -0.9658 -1.2821 -0.4172
 6560TIP3   OH241094   0.307   4.848  15.607 -0.4164 -0.1519 -0.3197
 6560TIP3    H141095   0.344   4.885  15.526 -1.0769 -0.7318 -0.8920
 6560TIP3    H241096   0.383   4.833  15.663  0.0330  0.3958 -0.7762
 6561TIP3   OH241097   3.485   3.497   3.355 -0.1131 -0.0382 -0.0761
 6561TIP3    H141098   3.517   3.586   3.341 -1.8032  0.4778 -0.8121
 6561TIP3    H241099   3.499   3.453   3.271  1.8217 -0.8545  0.6348
 6562TIP3   OH241100   3.379   3.457  10.500  0.0306  0.0008  0.4701
 6562TIP3    H141101   3.361   3.458  10.406  0.2230 -0.1367  0.4320
 6562TIP3    H241102   3.428   3.376  10.514 -0.2389 -0.1128  0.7366
 6563TIP3   OH241103   6.298   0.988   5.499  0.2431 -0.0785 -0.1411
 6563TIP3    H141104   6.287   0.993   5.594 -0.8484 -2.1515 -0.1231
 6563TIP3    H241105   6.392   0.975   5.486  0.5383  1.2785  0.5868
 6564TIP3   OH241106   0.986   0.616  16.997  0.6823  0.1505  0.1472
 6564TIP3    H141107   0.898   0.626  16.961  0.9076  2.2524  0.1102
 6564TIP3    H241108   0.972   0.583  17.086 -0.2760  2.1592  0.7861
 6565TIP3   OH241109   1.677   6.370  15.666 -1.1395  0.5652 -0.8499
 6565TIP3    H141110   1.629   6.300  15.713 -1.1534  0.9538 -0.2804
 6565TIP3    H241111   1.726   6.324  15.598  0.4341 -0.2473  0.7966
 6566TIP3   OH241112   1.322   4.011   4.617  0.1927  0.4885 -0.2654
 6566TIP3    H141113   1.341   4.091   4.667  0.5600 -0.4402  1.1073
 6566TIP3    H241114   1.293   3.948   4.683 -1.4955 -0.0859 -1.5047
 6567TIP3   OH241115   3.432   5.552  14.596 -0.4138 -0.3072 -0.7823
 6567TIP3    H141116   3.459   5.528  14.685  0.3307 -0.1480 -0.9629
 6567TIP3    H241117   3.336   5.557  14.601 -0.4645 -1.4908 -0.2859
 6568TIP3   OH241118   6.605   1.498   1.830  0.2299  0.0165 -0.5432
 6568TIP3    H141119   6.655   1.418   1.841 -2.3996 -1.8620 -1.7521
 6568TIP3    H241120   6.580   1.523   1.919 -0.7498 -1.7164 -0.3131
 6569TIP3   OH241121   2.390   5.033   5.949  0.0821 -0.8280  0.0149
 6569TIP3    H141122   2.477   4.995   5.937 -0.5719 -2.8073  1.2784
 6569TIP3    H241123   2.340   5.003   5.873  0.1318 -0.8167 -0.0221
 6570TIP3   OH241124   4.182   1.081  12.470 -0.1687  0.7719 -0.0921
 6570TIP3    H141125   4.190   1.042  12.383 -0.5716  0.4308  0.0242
 6570TIP3    H241126   4.226   1.166  12.462  3.2064 -0.8356  0.3854
 6571TIP3   OH241127   6.131   3.595   4.947  0.4377 -0.2185 -0.4786
 6571TIP3    H141128   6.197   3.654   4.983 -0.4896  0.3394  0.3391
 6571TIP3    H241129   6.181   3.530   4.897  1.4284  1.5442 -1.8021
 6572TIP3   OH241130   6.010   6.125  11.099  0.2583 -0.0648  0.1633
 6572TIP3    H141131   6.007   6.032  11.121  0.6304 -0.1893 -0.3330
 6572TIP3    H241132   6.000   6.129  11.004  0.4931  0.3905  0.1554
 6573TIP3   OH241133   4.676   1.635   3.736 -0.5989  0.3037 -0.1889
 6573TIP3    H141134   4.696   1.728   3.726 -4.3587  1.0182 -1.7854
 6573TIP3    H241135   4.634   1.630   3.823 -1.6067  0.3598 -0.6634
 6574TIP3   OH241136   5.408   3.472   3.434  0.7009  1.3465 -0.0979
 6574TIP3    H141137   5.323   3.508   3.459  0.4044  0.2392  0.5655
 6574TIP3    H241138   5.402   3.458   3.340 -1.1692 -1.9746  0.4180
 6575TIP3   OH241139   4.746   6.547  13.021  0.1840 -0.5614 -0.4766
 6575TIP3    H141140   4.671   6.508  12.976 -0.8096 -0.3526  0.9565
 6575TIP3    H241141   4.775   6.480  13.083  2.6421 -1.5212 -2.5868
 6576TIP3   OH241142   0.655   5.038  13.407  0.4165  0.0028 -0.5807
 6576TIP3    H141143   0.568   5.072  13.427  0.5340  0.0792 -0.1966
 6576TIP3    H241144   0.645   4.943  13.409  0.4541  0.0077 -0.0345
 6577TIP3   OH241145   2.518   0.091   2.375  0.5497 -0.5692  0.2650
 6577TIP3    H141146   2.613   0.103   2.382  0.5650  0.0976 -1.0277
 6577TIP3    H241147   2.508   0.018   2.314  0.1937  0.9524 -1.5314
 6578TIP3   OH241148   1.843   4.732  17.119  0.4170  0.2451 -0.5609
 6578TIP3    H141149   1.838   4.767  17.030  1.1099  1.8459  0.0144
 6578TIP3    H241150   1.759   4.757  17.159  0.7964  1.0460 -0.2421
 6579TIP3   OH241151   1.747   1.171  15.992 -0.2060  0.0945 -0.1776
 6579TIP3    H141152   1.809   1.233  16.031  0.6847 -1.2161  0.5238
 6579TIP3    H241153   1.761   1.090  16.041 -0.8142 -0.8775 -1.5986
 6580TIP3   OH241154   6.719   5.930  11.740 -0.0857 -0.1713 -0.7757
 6580TIP3    H141155   6.792   5.960  11.793 -1.9170  0.6905  1.3264
 6580TIP3    H241156   6.688   5.851  11.784 -0.9091 -0.0773 -1.1704
 6581TIP3   OH241157   3.959   4.668  16.390 -0.1045 -0.2779  0.1382
 6581TIP3    H141158   3.967   4.612  16.313 -2.3847 -1.1892  0.5218
 6581TIP3    H241159   3.920   4.749  16.358  0.2274 -0.1331  0.1030
 6582TIP3   OH241160   4.362   1.713  16.347 -0.4752 -0.4149 -0.1748
 6582TIP3    H141161   4.324   1.747  16.427 -1.6135 -0.7362 -0.5777
 6582TIP3    H241162   4.358   1.787  16.286 -0.2579 -0.3867 -0.1551
 6583TIP3   OH241163   0.959   1.407   5.787 -0.0619 -0.0010  0.8091
 6583TIP3    H141164   0.957   1.328   5.842 -1.6734 -0.8880 -0.4877
 6583TIP3    H241165   1.052   1.428   5.779  0.3279 -1.1773  1.9935
 6584TIP3   OH241166   1.093   2.559   6.424 -0.4836 -0.6431 -0.0374
 6584TIP3    H141167   1.092   2.570   6.520  0.0810  2.1156 -0.3078
 6584TIP3    H241168   1.001   2.551   6.400 -0.6714 -0.6411  0.6649
 6585TIP3   OH241169   3.653   6.510  14.162 -0.3549 -0.2232 -0.0882
 6585TIP3    H141170   3.611   6.522  14.248 -0.7501 -0.3719 -0.2579
 6585TIP3    H241171   3.630   6.421  14.137  0.8335 -0.6204  0.2285
 6586TIP3   OH241172   5.130   4.397  11.544  0.0962 -0.6991 -0.9148
 6586TIP3    H141173   5.178   4.465  11.496  1.3319 -0.8963  0.0420
 6586TIP3    H241174   5.038   4.418  11.528  0.4841 -0.0293 -2.3486
 6587TIP3   OH241175   6.524   0.601  12.758 -0.3708  0.4199 -0.0886
 6587TIP3    H141176   6.536   0.507  12.745  1.3070  0.9471 -2.6092
 6587TIP3    H241177   6.609   0.640  12.740 -0.9385  2.4263  1.3040
 6588TIP3   OH241178   5.223   3.484   1.551  0.3888  0.1725  0.5304
 6588TIP3    H141179   5.276   3.406   1.534  0.5514 -0.1495  2.4128
 6588TIP3    H241180   5.287   3.554   1.565  0.2572  0.4786 -0.3991
 6589TIP3   OH241181   3.910   3.149   1.731  0.0219  0.1807 -0.2455
 6589TIP3    H141182   3.859   3.209   1.676  0.2403 -0.5939 -1.3184
 6589TIP3    H241183   3.937   3.079   1.671  1.6854  0.1729  0.4850
 6590TIP3   OH241184   4.105   3.043   6.522  0.3698  0.3132 -0.5403
 6590TIP3    H141185   4.018   3.028   6.559 -0.1065  0.3710 -1.6297
 6590TIP3    H241186   4.124   2.964   6.472  1.1564  0.1014  0.0736
 6591TIP3   OH241187   3.375   5.859  12.662 -0.6577  0.0588 -0.0616
 6591TIP3    H141188   3.345   5.911  12.588 -0.7464 -1.2497 -0.9647
 6591TIP3    H241189   3.467   5.839  12.643 -0.6681 -0.2479  0.1975
 6592TIP3   OH241190   4.511   2.498  15.354 -0.2633 -0.4060  0.2587
 6592TIP3    H141191   4.492   2.590  15.372  1.3983  0.4071 -1.9080
 6592TIP3    H241192   4.459   2.478  15.276 -0.4628 -1.2534  0.6033
 6593TIP3   OH241193   5.873   5.870  16.924 -0.2451  0.5816 -0.4297
 6593TIP3    H141194   5.823   5.791  16.946  1.4987 -0.5891 -0.5746
 6593TIP3    H241195   5.839   5.896  16.839  0.9534 -1.5663 -1.6146
 6594TIP3   OH241196   1.881   1.265   5.581 -0.4155 -0.1039 -0.6759
 6594TIP3    H141197   1.934   1.203   5.530  0.5425 -1.1532  1.5038
 6594TIP3    H241198   1.792   1.230   5.576  0.1365 -1.7946  0.6592
 6595TIP3   OH241199   0.631   3.968   3.202 -0.0783 -0.3822 -0.1127
 6595TIP3    H141200   0.703   3.919   3.160  0.9320  0.0974  1.0337
 6595TIP3    H241201   0.648   3.958   3.295  0.4530  2.6035  0.1447
 6596TIP3   OH241202   5.108   5.380   4.796 -0.0160  0.3081  0.9749
 6596TIP3    H141203   5.199   5.380   4.827  0.0813 -0.6523  0.7187
 6596TIP3    H241204   5.094   5.291   4.764 -0.3651  1.0493 -0.9926
 6597TIP3   OH241205   5.028   6.221   1.820  0.1683  0.9967  0.1238
 6597TIP3    H141206   5.071   6.214   1.734  1.9095 -0.6248  1.0942
 6597TIP3    H241207   4.957   6.158   1.816 -0.4726  1.7391 -0.5108
 6598TIP3   OH241208   1.251   2.987  12.181  0.1327 -0.2922 -0.2565
 6598TIP3    H141209   1.228   2.903  12.141 -0.9048 -0.3303  0.3938
 6598TIP3    H241210   1.168   3.019  12.217  0.5161  1.0352 -0.5421
 6599TIP3   OH241211   0.537   2.848  11.903  0.3136 -0.8908 -0.0200
 6599TIP3    H141212   0.535   2.868  11.996  0.4679 -2.1122  0.2508
 6599TIP3    H241213   0.541   2.934  11.860  2.1119 -0.3796  1.1466
 6600TIP3   OH241214   1.839   1.779  17.160  0.1244  0.1371 -0.1384
 6600TIP3    H141215   1.839   1.684  17.173  0.8772  0.0560 -0.6984
 6600TIP3    H241216   1.798   1.791  17.075  0.5530  0.2755 -0.3263
 6601TIP3   OH241217   4.910   1.147  10.915 -0.8390 -0.3861  0.1885
 6601TIP3    H141218   4.885   1.240  10.910  0.7440  0.1516  1.7272
 6601TIP3    H241219   4.887   1.112  10.829 -1.2008  1.5183 -0.5225
 6602TIP3   OH241220   2.061   6.548  12.980  0.2752  0.2143  0.1173
 6602TIP3    H141221   2.068   6.643  12.972  1.7705  0.1441  0.5180
 6602TIP3    H241222   1.996   6.534  13.048  3.2202  1.0177  3.2142
 6603TIP3   OH241223   6.340   0.518   4.048  0.3002 -0.1216  0.1572
 6603TIP3    H141224   6.374   0.472   4.125 -1.1202  0.3207  1.0656
 6603TIP3    H241225   6.325   0.607   4.077 -1.6451 -0.3076 -0.1975
 6604TIP3   OH241226   0.271   4.243  16.156 -0.0184 -0.1846 -0.1946
 6604TIP3    H141227   0.330   4.289  16.215 -2.5697  0.1110  2.2325
 6604TIP3    H241228   0.248   4.163  16.203 -0.8493 -0.7223 -1.4899
 6605TIP3   OH241229   3.635   3.226  16.136 -1.0531 -0.2027 -0.2574
 6605TIP3    H141230   3.583   3.150  16.111  0.0968 -1.6247  1.5164
 6605TIP3    H241231   3.662   3.208  16.227  0.6749  1.4866 -0.3979
 6606TIP3   OH241232   5.967   6.329  16.982 -0.2261 -0.0619 -0.3587
 6606TIP3    H141233   5.900   6.333  16.914 -0.6252 -1.0937 -0.0285
 6606TIP3    H241234   5.985   6.421  17.004 -1.0762  0.2288 -0.8827
 6607TIP3   OH241235   6.459   6.479  16.554 -0.3011  0.8067  0.1874
 6607TIP3    H141236   6.454   6.458  16.461  1.3474 -1.1044  0.4931
 6607TIP3    H241237   6.514   6.557  16.558  2.5461 -1.0989 -0.2449
 6608TIP3   OH241238   5.749   4.664  16.666  0.2171 -0.3967 -0.1905
 6608TIP3    H141239   5.747   4.591  16.728 -1.7449  0.5020  0.8513
 6608TIP3    H241240   5.787   4.737  16.715  0.8283 -0.3175 -0.7789
 6609TIP3   OH241241   1.294   0.759  13.577 -0.1377  0.1046 -0.2597
 6609TIP3    H141242   1.232   0.800  13.516  0.7061  1.2077 -0.3844
 6609TIP3    H241243   1.355   0.829  13.599 -0.8943 -0.0376  2.4684
 6610TIP3   OH241244   2.198   2.824  12.890  0.2473 -0.0846  0.0559
 6610TIP3    H141245   2.167   2.907  12.853  2.4821 -0.4756 -2.8593
 6610TIP3    H241246   2.126   2.763  12.875 -0.7571  0.9262  0.7082
 6611TIP3   OH241247   4.293   4.381  15.252 -0.2765 -0.1232 -0.1726
 6611TIP3    H141248   4.276   4.400  15.344  0.2531 -0.3867 -0.0163
 6611TIP3    H241249   4.309   4.467  15.212 -1.0038  0.0357 -0.1265
 6612TIP3   OH241250   5.173   0.553   5.600 -0.5322 -0.2728  0.4586
 6612TIP3    H141251   5.154   0.467   5.637 -2.1857  0.0097  0.3022
 6612TIP3    H241252   5.129   0.615   5.658 -1.8053  0.2729 -1.0473
 6613TIP3   OH241253   6.583   2.569   5.991 -0.0345 -0.0903  0.3861
 6613TIP3    H141254   6.519   2.575   6.062  0.2555  0.6092  0.5938
 6613TIP3    H241255   6.657   2.520   6.029  0.6502  1.3719  0.9687
 6614TIP3   OH241256   0.473   2.218  16.787 -0.5050 -0.0743 -0.2976
 6614TIP3    H141257   0.490   2.129  16.757 -1.0230 -0.6651  1.1204
 6614TIP3    H241258   0.378   2.226  16.789 -0.5914 -1.0154  3.8138
 6615TIP3   OH241259   1.188   4.434   2.555 -0.4284  0.4252 -0.3240
 6615TIP3    H141260   1.194   4.358   2.613  2.4972  1.2179  0.5011
 6615TIP3    H241261   1.094   4.448   2.543 -1.0189 -2.5726  0.4909
 6616TIP3   OH241262   3.364   1.094   0.780 -0.2939 -0.2292 -0.2657
 6616TIP3    H141263   3.348   1.062   0.691  1.1414 -3.1295  0.4851
 6616TIP3    H241264   3.452   1.132   0.776 -0.6076  0.5188 -0.2810
 6617TIP3   OH241265   5.518   1.881  17.152 -0.4271  0.6311  0.1825
 6617TIP3    H141266   5.533   1.975  17.155  0.7581  0.4607  0.0585
 6617TIP3    H241267   5.591   1.844  17.202  0.1588 -0.3210 -1.3386
 6618TIP3   OH241268   5.226   3.615   6.784 -0.1598  0.2735  0.1164
 6618TIP3    H141269   5.172   3.693   6.796  0.1901  0.5101  0.1552
 6618TIP3    H241270   5.315   3.648   6.782 -0.0337 -0.0866 -0.2237
 6619TIP3   OH241271   0.014   3.717  13.074  0.1242 -0.4181  0.3359
 6619TIP3    H141272   0.088   3.775  13.085  0.3262 -0.5612 -0.2355
 6619TIP3    H241273   0.052   3.629  13.068 -0.0619 -0.4596 -0.2785
 6620TIP3   OH241274   4.601   1.631   2.818  0.4492  0.0257 -0.0872
 6620TIP3    H141275   4.507   1.621   2.830  0.3123 -0.7156 -1.6401
 6620TIP3    H241276   4.610   1.711   2.766  0.6763  0.0982  0.0631
 6621TIP3   OH241277   3.029   0.804   2.384 -0.3272 -0.2054 -0.4691
 6621TIP3    H141278   3.059   0.714   2.371  0.7447 -0.0045  0.5188
 6621TIP3    H241279   3.066   0.853   2.311  0.9185 -0.1517  0.1940
 6622TIP3   OH241280   2.346   0.586  15.603  0.2978 -0.2515 -0.0352
 6622TIP3    H141281   2.309   0.502  15.632 -0.4821  0.1094  0.0336
 6622TIP3    H241282   2.270   0.640  15.582  0.8411 -0.2175 -1.9677
 6623TIP3   OH241283   3.604   2.150   5.031  0.0966  0.4711 -0.3999
 6623TIP3    H141284   3.647   2.222   5.077  0.6153  0.3335 -0.6723
 6623TIP3    H241285   3.515   2.150   5.066  0.6626 -0.0384  1.0624
 6624TIP3   OH241286   0.654   5.424  15.486  0.6644 -0.2244 -0.3535
 6624TIP3    H141287   0.593   5.498  15.480  0.2703 -0.5305 -0.1858
 6624TIP3    H241288   0.612   5.364  15.548  0.4888 -1.0531 -1.2692
 6625TIP3   OH241289   5.853   5.530   3.667 -0.0940 -0.0903 -0.4513
 6625TIP3    H141290   5.904   5.561   3.592 -0.2161 -0.2070 -0.5840
 6625TIP3    H241291   5.765   5.564   3.652  0.4259  1.9275  0.8764
 6626TIP3   OH241292   2.831   0.327   0.777 -0.0881 -0.2107  0.3975
 6626TIP3    H141293   2.769   0.362   0.841  0.1965  1.3637 -0.1768
 6626TIP3    H241294   2.908   0.303   0.829 -0.9432 -1.6736  1.0359
 6627TIP3   OH241295   2.249   4.431  17.190  0.2821  0.0317  0.0608
 6627TIP3    H141296   2.290   4.353  17.151 -0.2899 -0.6550  0.8061
 6627TIP3    H241297   2.207   4.475  17.116  2.6815  0.9653 -0.7850
 6628TIP3   OH241298   0.913   4.146  13.219 -0.1149  0.4668 -0.7257
 6628TIP3    H141299   0.922   4.100  13.135 -0.7271 -2.4975  0.7810
 6628TIP3    H241300   1.001   4.180  13.237  0.3937 -0.2556 -1.7828
 6629TIP3   OH241301   2.916   4.502  11.565  0.6325  0.3401  0.2269
 6629TIP3    H141302   2.840   4.559  11.551 -0.4958 -1.6629 -2.3725
 6629TIP3    H241303   2.991   4.555  11.541 -0.1700  1.4820  0.1796
 6630TIP3   OH241304   2.771   4.379  15.001 -0.1217  0.6245 -0.1418
 6630TIP3    H141305   2.788   4.309  14.938 -0.3765  0.7213 -0.3163
 6630TIP3    H241306   2.830   4.359  15.074 -0.2646  0.1719 -0.1463
 6631TIP3   OH241307   0.854   1.081  15.519 -0.0595  0.0810 -0.0128
 6631TIP3    H141308   0.882   1.073  15.428  1.0379 -1.2729  0.4206
 6631TIP3    H241309   0.901   1.159  15.551 -0.4409  0.5528 -0.5959
 6632TIP3   OH241310   6.188   3.124   5.226  0.4882  0.3990 -0.1218
 6632TIP3    H141311   6.195   3.198   5.164 -2.9201  1.3897  0.5753
 6632TIP3    H241312   6.156   3.052   5.173 -0.3090  0.6339  0.0331
 6633TIP3   OH241313   5.090   1.267  15.364  0.7417  0.4267  0.2818
 6633TIP3    H141314   5.050   1.245  15.280  0.9500 -0.3724  0.3866
 6633TIP3    H241315   5.093   1.185  15.411  1.7394  0.6368  0.5977
 6634TIP3   OH241316   0.864   4.536   4.320  0.1440  0.5662  0.4008
 6634TIP3    H141317   0.782   4.579   4.342  1.8049  2.8812  2.3245
 6634TIP3    H241318   0.932   4.598   4.348  2.5397 -1.1137 -1.4848
 6635TIP3   OH241319   3.215   1.134  15.755  0.2654  0.1303 -0.1177
 6635TIP3    H141320   3.197   1.227  15.740 -0.3995  0.2128  1.1036
 6635TIP3    H241321   3.251   1.103  15.673  1.2648  1.6637 -0.2693
 6636TIP3   OH241322   5.026   5.358  16.441  0.2312  0.4557  0.2508
 6636TIP3    H141323   5.050   5.293  16.375  0.8784  0.4274  0.5089
 6636TIP3    H241324   5.024   5.308  16.523  1.9321  0.9886  0.6454
 6637TIP3   OH241325   0.147   1.710   1.958  0.3421  0.3293 -0.0847
 6637TIP3    H141326   0.085   1.772   1.996  1.0988  0.2176  1.3576
 6637TIP3    H241327   0.098   1.628   1.949 -0.9273  1.3091 -2.7996
 6638TIP3   OH241328   0.272   5.972   3.056 -0.1929 -0.7470  0.5084
 6638TIP3    H141329   0.345   5.918   3.083  0.0665 -2.2090 -2.8837
 6638TIP3    H241330   0.198   5.911   3.049 -1.0810  0.2224  1.3026
 6639TIP3   OH241331   0.245   4.659  17.012 -0.1880  0.0262  0.1343
 6639TIP3    H141332   0.219   4.649  17.103  0.0413  0.8520  0.2916
 6639TIP3    H241333   0.316   4.595  17.000  0.7751  0.9338  0.9354
 6640TIP3   OH241334   4.709   5.003  12.503 -0.5509  0.4554  0.3224
 6640TIP3    H141335   4.628   5.018  12.454 -1.6468 -1.8382  1.3737
 6640TIP3    H241336   4.682   4.952  12.579  1.3829  2.5833  2.5262
 6641TIP3   OH241337   3.020   1.631   5.462 -0.0676  0.6675 -0.4881
 6641TIP3    H141338   2.990   1.714   5.424 -1.2020  1.1311  1.3361
 6641TIP3    H241339   2.982   1.630   5.550 -0.1801 -1.8682 -0.5268
 6642TIP3   OH241340   3.848   3.750  15.298  0.3182  0.2456  0.5631
 6642TIP3    H141341   3.903   3.778  15.225  1.4435  0.4340  1.4673
 6642TIP3    H241342   3.891   3.672  15.332 -0.2898  0.0670  0.9329
 6643TIP3   OH241343   0.924   5.650  15.543  0.6431  0.0405  0.1197
 6643TIP3    H141344   0.996   5.677  15.486 -0.4865  1.6065 -0.5830
 6643TIP3    H241345   0.849   5.702  15.514 -0.4691 -0.6582  1.6738
 6644TIP3   OH241346   4.237   3.953   2.810  0.6450  0.3374 -0.7820
 6644TIP3    H141347   4.246   3.888   2.880 -2.1061 -0.4442 -1.0955
 6644TIP3    H241348   4.201   4.030   2.854 -0.9534 -0.1072 -1.2779
 6645TIP3   OH241349   3.650   4.051  13.659 -0.7351 -0.3018  0.0918
 6645TIP3    H141350   3.721   4.098  13.702  0.8413 -0.0230 -2.6654
 6645TIP3    H241351   3.597   4.119  13.619 -1.8058 -0.5756  1.0506
 6646TIP3   OH241352   0.249   5.572  13.968  0.1837  0.2069 -0.0601
 6646TIP3    H141353   0.258   5.625  13.889 -0.1189  1.3140  0.6326
 6646TIP3    H241354   0.183   5.619  14.020  0.2525 -0.6085  0.7641
 6647TIP3   OH241355   4.316   5.386  14.234 -0.3140  0.1387 -0.3031
 6647TIP3    H141356   4.345   5.336  14.310  0.1462  1.0111  0.1051
 6647TIP3    H241357   4.247   5.332  14.195 -1.6354  0.3658  1.6092
 6648TIP3   OH241358   1.631   5.690  12.266  0.4793 -0.0571  0.0077
 6648TIP3    H141359   1.597   5.604  12.291 -3.0608  0.9284 -1.1369
 6648TIP3    H241360   1.663   5.678  12.177  0.0023 -0.2105 -0.1466
 6649TIP3   OH241361   5.084   2.978  13.408  0.1204 -0.3298  0.2557
 6649TIP3    H141362   5.021   3.046  13.384 -0.6403 -0.9139  0.5579
 6649TIP3    H241363   5.029   2.905  13.438  0.9446 -0.8452  0.5152
 6650TIP3   OH241364   5.085   4.781  17.047  0.1670  0.1903 -0.2087
 6650TIP3    H141365   5.109   4.748  16.960  0.1552  1.1011 -0.5712
 6650TIP3    H241366   5.078   4.703  17.102 -1.3514 -0.5212 -1.3905
 6651TIP3   OH241367   3.737   5.424   6.463  0.2529  0.2752 -0.3526
 6651TIP3    H141368   3.810   5.476   6.499 -0.4769  1.1631 -0.1484
 6651TIP3    H241369   3.780   5.357   6.411  1.2945 -0.2152  1.0976
 6652TIP3   OH241370   1.205   3.219  12.910 -0.1775 -0.0097  0.2030
 6652TIP3    H141371   1.200   3.289  12.845  0.1223 -0.6990 -0.5757
 6652TIP3    H241372   1.134   3.159  12.885  2.3248 -2.2624 -1.8856
 6653TIP3   OH241373   3.379   1.552   4.541  0.4044 -0.4470 -0.3667
 6653TIP3    H141374   3.473   1.546   4.524  0.0405 -2.0665 -1.8961
 6653TIP3    H241375   3.369   1.518   4.630  1.5973  2.5950  1.0126
 6654TIP3   OH241376   5.811   5.550  15.429 -0.8095  0.2568 -0.1641
 6654TIP3    H141377   5.839   5.492  15.358  3.9351  1.0487  0.8934
 6654TIP3    H241378   5.769   5.491  15.492 -0.7320 -1.1969 -1.4321
 6655TIP3   OH241379   1.218   0.776   2.740  0.9413 -0.7591 -0.3606
 6655TIP3    H141380   1.161   0.833   2.791 -0.9003 -0.4182 -2.6839
 6655TIP3    H241381   1.302   0.779   2.785  0.2996  2.1541  0.7511
 6656TIP3   OH241382   3.545   5.878  15.166  0.2627  0.6914 -0.1327
 6656TIP3    H141383   3.500   5.796  15.188 -0.8028  1.4353  0.5031
 6656TIP3    H241384   3.613   5.888  15.233  0.4604  0.2839 -0.2707
 6657TIP3   OH241385   0.729   1.557   1.834 -0.0687 -0.2623 -0.6105
 6657TIP3    H141386   0.666   1.497   1.795 -0.7896  0.8843 -1.2410
 6657TIP3    H241387   0.687   1.643   1.828  0.1590  0.0784  1.9260
 6658TIP3   OH241388   6.523   4.792   0.908 -0.0595 -0.2211  0.0623
 6658TIP3    H141389   6.527   4.700   0.885 -1.7325 -0.0541 -0.9263
 6658TIP3    H241390   6.573   4.836   0.839 -0.2092 -0.2746 -0.0798
 6659TIP3   OH241391   1.587   3.381  11.874 -0.1311  0.0017  0.2906
 6659TIP3    H141392   1.660   3.423  11.830 -1.0775  0.3612 -0.9606
 6659TIP3    H241393   1.579   3.295  11.832 -1.2214  0.4622 -0.4824
 6660TIP3   OH241394   4.231   4.403   4.329  0.3195  0.8286 -0.6281
 6660TIP3    H141395   4.301   4.355   4.374  2.4970  2.9712 -1.6059
 6660TIP3    H241396   4.193   4.340   4.268  1.8039 -0.1991 -0.5025
 6661TIP3   OH241397   2.349   4.215   4.200  0.5076 -0.0651 -0.4665
 6661TIP3    H141398   2.411   4.160   4.248  1.3474  0.0977 -1.3509
 6661TIP3    H241399   2.401   4.252   4.128 -0.3282  0.9834 -0.5347
 6662TIP3   OH241400   1.880   2.046   2.682  0.2402  0.0719  0.4287
 6662TIP3    H141401   1.827   2.071   2.607 -0.8648 -3.7151 -0.1594
 6662TIP3    H241402   1.956   2.002   2.644  0.1038 -1.0992  1.4958
 6663TIP3   OH241403   0.848   2.199   3.803  0.4837 -0.2495 -0.3541
 6663TIP3    H141404   0.823   2.130   3.741  1.9191 -1.6770  0.6225
 6663TIP3    H241405   0.781   2.266   3.791 -1.6818 -2.3480 -0.4477
 6664TIP3   OH241406   1.955   3.919   5.578 -0.1335 -0.2559  0.3948
 6664TIP3    H141407   1.893   3.852   5.605 -1.5582  0.9376  0.1583
 6664TIP3    H241408   1.980   3.895   5.489 -0.4271 -0.6073  0.4073
 6665TIP3   OH241409   2.009   5.704   3.360 -0.1482  0.5216  0.1704
 6665TIP3    H141410   2.035   5.652   3.284 -1.1424 -0.7565  0.6739
 6665TIP3    H241411   2.076   5.685   3.426 -1.6918 -1.9479  1.1138
 6666TIP3   OH241412   1.456   3.189  10.629  0.6157 -0.3710 -0.3125
 6666TIP3    H141413   1.432   3.281  10.619  1.1354 -0.4827 -2.9394
 6666TIP3    H241414   1.386   3.152  10.684  0.5144  1.6158  0.9392
 6667TIP3   OH241415   0.411   2.848   4.480  0.3627 -0.0459  0.4414
 6667TIP3    H141416   0.357   2.913   4.526  0.7343  0.0123  0.7939
 6667TIP3    H241417   0.397   2.867   4.387  0.1564  0.2851  0.5397
 6668TIP3   OH241418   0.367   2.087   0.382  0.3531  0.3576 -0.1143
 6668TIP3    H141419   0.394   2.169   0.422  0.4822  0.3683 -0.2233
 6668TIP3    H241420   0.271   2.091   0.381  0.3833  1.3576 -1.8859
 6669TIP3   OH241421   1.523   5.795  15.409 -0.3826 -0.0850 -0.5423
 6669TIP3    H141422   1.527   5.777  15.315 -1.5273  0.3193 -0.6801
 6669TIP3    H241423   1.442   5.845  15.420  0.3427  0.8886  0.4966
 6670TIP3   OH241424   1.718   3.762  17.059 -0.2736  1.1200  0.5505
 6670TIP3    H141425   1.675   3.678  17.071 -1.6056  1.3732 -1.9626
 6670TIP3    H241426   1.784   3.746  16.992 -1.8241  2.4308 -1.3587
 6671TIP3   OH241427   0.329   3.197   2.460 -0.5592  0.5381 -0.4534
 6671TIP3    H141428   0.345   3.291   2.456  1.5821  0.2202 -0.5229
 6671TIP3    H241429   0.358   3.171   2.547  0.5051 -0.2952 -1.0321
 6672TIP3   OH241430   6.233   0.285   2.523 -0.0348  0.0164 -0.2691
 6672TIP3    H141431   6.309   0.339   2.501  1.6386 -2.4659 -0.7966
 6672TIP3    H241432   6.192   0.265   2.439 -0.2536 -0.0845 -0.1389
 6673TIP3   OH241433   5.563   0.298   0.711  0.5286 -0.3938 -0.4039
 6673TIP3    H141434   5.502   0.245   0.762  0.9141 -1.8227 -1.3998
 6673TIP3    H241435   5.596   0.362   0.774 -0.0978 -1.1940  0.7804
 6674TIP3   OH241436   5.492   4.325   6.993 -0.1357 -0.1039  0.0183
 6674TIP3    H141437   5.411   4.359   6.953 -0.3200 -2.2339 -1.4723
 6674TIP3    H241438   5.509   4.244   6.946  2.3766 -0.1497  0.9805
 6675TIP3   OH241439   5.137   1.112   3.787 -0.5392 -0.1170 -0.1587
 6675TIP3    H141440   5.128   1.198   3.747 -1.7559 -0.5956 -0.9649
 6675TIP3    H241441   5.182   1.059   3.721 -0.8679 -0.4126 -0.1494
 6676TIP3   OH241442   0.155   2.591  12.425  0.2308  0.0633  0.1555
 6676TIP3    H141443   0.142   2.502  12.458 -1.1025  0.3678  0.4987
 6676TIP3    H241444   0.196   2.638  12.497 -0.3942  0.0835  0.5099
 6677TIP3   OH241445   3.997   5.989  16.621  0.0283  0.0297  0.6140
 6677TIP3    H141446   4.008   5.902  16.659 -0.4569 -0.2076  0.2207
 6677TIP3    H241447   4.042   5.986  16.537 -0.8259 -0.1555  0.1544
 6678TIP3   OH241448   5.862   4.697   5.799  0.3851 -0.2152 -0.2613
 6678TIP3    H141449   5.768   4.704   5.781 -0.2600  0.7997  3.1053
 6678TIP3    H241450   5.872   4.612   5.843  1.5004 -1.4750 -2.8145
 6679TIP3   OH241451   0.280   2.951   4.229  0.4053 -0.1789  0.0237
 6679TIP3    H141452   0.321   2.873   4.193 -1.6566 -1.1318 -0.3678
 6679TIP3    H241453   0.218   2.979   4.161 -1.5668 -0.3964  1.6746
 6680TIP3   OH241454   0.423   1.813  13.284 -0.1699  0.3575 -0.6121
 6680TIP3    H141455   0.427   1.729  13.330 -0.2303  0.4346 -0.4675
 6680TIP3    H241456   0.340   1.852  13.312  1.0463  1.6244  1.3298
 6681TIP3   OH241457   0.236   0.059  13.890  0.2337  0.0978  0.2833
 6681TIP3    H141458   0.166  -0.003  13.872  0.1178  0.3350 -0.0971
 6681TIP3    H241459   0.314   0.005  13.900 -0.0587 -0.1894  1.0102
 6682TIP3   OH241460   3.285   6.174   3.920  0.0440  0.3099  0.3876
 6682TIP3    H141461   3.288   6.106   3.852  0.0327  0.2338  0.4629
 6682TIP3    H241462   3.375   6.207   3.926  0.4403 -0.9582  1.6309
 6683TIP3   OH241463   5.818   0.124   1.959 -0.0255 -0.3827  0.0333
 6683TIP3    H141464   5.835   0.038   1.997  1.9048 -0.8274 -1.7415
 6683TIP3    H241465   5.904   0.155   1.930 -0.8889  1.5795 -0.4881
 6684TIP3   OH241466   1.122   6.163  17.056 -0.2191 -0.0825  0.2913
 6684TIP3    H141467   1.147   6.200  17.141  0.4673  1.0464 -0.3917
 6684TIP3    H241468   1.115   6.069  17.072 -0.4967  0.1659  1.6924
 6685TIP3   OH241469   2.692   5.556   4.910  0.4032  0.4085 -0.3644
 6685TIP3    H141470   2.670   5.646   4.889 -0.0705  0.2906 -0.3889
 6685TIP3    H241471   2.759   5.562   4.978 -0.2182  0.7628  0.2136
 6686TIP3   OH241472   5.959   1.031  15.804 -0.1149  0.3942  0.2053
 6686TIP3    H141473   5.895   1.069  15.744  0.2329 -0.1382 -0.5083
 6686TIP3    H241474   6.037   1.018  15.750  0.1525 -0.2344  0.7369
 6687TIP3   OH241475   0.387   1.921   3.546  0.1923 -0.2835 -0.4358
 6687TIP3    H141476   0.421   1.886   3.464 -0.6160 -0.2235 -0.7989
 6687TIP3    H241477   0.332   1.995   3.520 -0.2452 -0.4025  0.1367
 6688TIP3   OH241478   6.750   1.322   2.634 -0.5286  0.1591  0.0312
 6688TIP3    H141479   6.819   1.355   2.692  0.0585  0.7380 -0.9618
 6688TIP3    H241480   6.783   1.237   2.603  0.1199  0.7883 -1.0526
 6689TIP3   OH241481   3.023   3.261  15.126  0.5915 -0.3337 -0.0483
 6689TIP3    H141482   3.047   3.289  15.038  0.8416  3.2574  1.1106
 6689TIP3    H241483   3.084   3.190  15.146  1.5674 -0.1111 -2.1269
 6690TIP3   OH241484   4.586   2.428   4.919 -0.4564  0.0306 -0.4842
 6690TIP3    H141485   4.661   2.461   4.969  1.8126 -3.2520 -1.5739
 6690TIP3    H241486   4.533   2.383   4.984 -0.9721  1.4176  0.0894
 6691TIP3   OH241487   6.396   6.752   3.845  0.5370  0.4339  0.2889
 6691TIP3    H141488   6.334   6.733   3.775 -0.8542  0.0765  1.6250
 6691TIP3    H241489   6.352   6.817   3.900  1.5947  0.6439  0.9088
 6692TIP3   OH241490   2.074   0.395  12.876 -0.3308  0.0131 -0.0587
 6692TIP3    H141491   2.148   0.369  12.930 -1.6848 -0.7793  1.4525
 6692TIP3    H241492   2.005   0.333  12.898 -0.9317 -0.3296 -2.7115
 6693TIP3   OH241493   2.731   4.436   2.531 -0.2282  0.3831  0.1702
 6693TIP3    H141494   2.740   4.371   2.601  1.6532 -0.2676 -0.6536
 6693TIP3    H241495   2.712   4.384   2.453 -0.7402  0.9921 -0.1177
 6694TIP3   OH241496   2.514   1.146  11.713  0.0008 -0.5767  0.1482
 6694TIP3    H141497   2.470   1.061  11.714  0.4884 -0.8599 -0.7609
 6694TIP3    H241498   2.595   1.131  11.762 -0.6843 -0.1852  1.4100
 6695TIP3   OH241499   3.665   3.754   3.801 -0.5044 -0.1730 -0.2123
 6695TIP3    H141500   3.605   3.711   3.862 -0.0363 -0.0829  0.3237
 6695TIP3    H241501   3.699   3.684   3.747 -1.8020 -0.1003 -1.1469
 6696TIP3   OH241502   5.392   0.646  16.113 -0.0278 -0.1862 -0.2206
 6696TIP3    H141503   5.473   0.653  16.061  0.3875 -0.8940  0.3232
 6696TIP3    H241504   5.403   0.566  16.164 -0.5097  0.4060  0.8307
 6697TIP3   OH241505   0.334   1.060   1.574  0.5469  0.0938 -0.2235
 6697TIP3    H141506   0.265   1.126   1.566  1.0284  0.5267 -0.8585
 6697TIP3    H241507   0.380   1.083   1.655 -0.5334 -0.6630  0.6166
 6698TIP3   OH241508   2.461   2.191  15.033  0.2550  0.3184 -0.1303
 6698TIP3    H141509   2.435   2.109  15.074  2.1317 -1.0174 -1.5138
 6698TIP3    H241510   2.411   2.195  14.952  0.4720  0.3404 -0.2634
 6699TIP3   OH241511   5.416   6.627   6.201  0.0543  0.0451 -0.4275
 6699TIP3    H141512   5.383   6.699   6.254  3.5959 -0.1014  2.2308
 6699TIP3    H241513   5.408   6.550   6.258  0.9440 -0.7114 -1.2927
 6700TIP3   OH241514   3.598   1.011   1.842  0.7414 -0.6065 -0.2868
 6700TIP3    H141515   3.647   1.089   1.817 -0.8620 -0.2569 -2.4909
 6700TIP3    H241516   3.622   0.945   1.777  1.0160 -1.5332  0.7368
 6701TIP3   OH241517   2.770   2.985  12.486  0.0139 -0.1988  0.3750
 6701TIP3    H141518   2.857   2.977  12.525  0.8332  0.2324 -1.3180
 6701TIP3    H241519   2.752   2.897  12.451 -0.0119 -0.1563  0.2832
 6702TIP3   OH241520   1.312   0.471   6.089  0.6776 -0.0440  0.1130
 6702TIP3    H141521   1.404   0.497   6.092  0.7777 -0.4872  0.9857
 6702TIP3    H241522   1.291   0.447   6.179 -0.1369 -0.4696 -0.1894
 6703TIP3   OH241523   2.967   3.910  13.403  0.0482 -0.3993  0.0197
 6703TIP3    H141524   2.938   3.929  13.313  1.0942 -0.7164 -0.3980
 6703TIP3    H241525   2.893   3.937  13.458 -1.0729 -1.2883 -1.0125
 6704TIP3   OH241526   5.067   0.764  15.155 -0.5239 -0.0253 -0.2240
 6704TIP3    H141527   5.157   0.750  15.126  0.5172  2.0479  1.7678
 6704TIP3    H241528   5.014   0.703  15.104  2.0216 -1.2757 -1.4130
 6705TIP3   OH241529   0.724   1.507   3.233 -0.0503 -0.4640  0.3966
 6705TIP3    H141530   0.645   1.454   3.223 -2.1392  2.3247  1.4592
 6705TIP3    H241531   0.721   1.568   3.159 -0.0860  1.1146  1.6799
 6706TIP3   OH241532   3.329   1.513  14.457 -0.2093  0.1118  0.1601
 6706TIP3    H141533   3.285   1.429  14.445 -0.4895  0.6209 -2.8138
 6706TIP3    H241534   3.392   1.497  14.527  0.1971 -2.7725 -0.7937
 6707TIP3   OH241535   4.536   6.534   1.536  0.2950  0.2574 -0.1972
 6707TIP3    H141536   4.631   6.540   1.530  0.2437  0.8864 -0.4434
 6707TIP3    H241537   4.516   6.555   1.628  0.2463  2.2384 -0.6403
 6708TIP3   OH241538   0.025   3.209   3.230 -0.1774 -0.7879  0.1174
 6708TIP3    H141539  -0.014   3.216   3.317 -0.9034  0.2312 -0.2886
 6708TIP3    H241540   0.119   3.219   3.245 -0.5489  2.8345  0.4165
 6709TIP3   OH241541   0.330   5.434   4.363 -0.4774  0.2214  0.0556
 6709TIP3    H141542   0.419   5.421   4.331  0.1820 -1.0712  2.2784
 6709TIP3    H241543   0.281   5.359   4.329 -0.2632 -0.0540  0.3477
 6710TIP3   OH241544   4.197   1.492   0.496  0.2117  0.1050  0.5531
 6710TIP3    H141545   4.190   1.462   0.586 -1.8635 -0.7715  0.1141
 6710TIP3    H241546   4.266   1.436   0.458 -0.0228 -0.6082  1.1573
 6711TIP3   OH241547   3.109   6.492  13.238  0.1358  0.1268  0.2247
 6711TIP3    H141548   3.040   6.481  13.173 -0.1509 -0.0945  0.5662
 6711TIP3    H241549   3.125   6.404  13.271  1.7891 -0.1011 -1.0821
 6712TIP3   OH241550   4.935   1.233   0.297 -0.0530  0.1312 -0.3676
 6712TIP3    H141551   4.973   1.318   0.278  0.0928 -0.1176 -1.1997
 6712TIP3    H241552   4.847   1.236   0.259 -0.9508  0.7706  1.7094
 6713TIP3   OH241553   5.429   5.040   4.546  0.3695  0.3895 -0.2280
 6713TIP3    H141554   5.499   4.998   4.597  0.7317  2.0332  0.6875
 6713TIP3    H241555   5.351   5.030   4.600  0.3244  0.3075 -0.3098
 6714TIP3   OH241556   1.880   2.209   2.189  0.2380  0.0488 -0.1549
 6714TIP3    H141557   1.876   2.154   2.111  0.5266 -0.9441  0.5257
 6714TIP3    H241558   1.932   2.158   2.251  1.0869  1.3756  0.2479
 6715TIP3   OH241559   5.709   4.681  17.044  0.1779  0.2458 -0.8246
 6715TIP3    H141560   5.713   4.617  17.115  0.1556  3.3366  2.0813
 6715TIP3    H241561   5.786   4.663  16.990  0.6453 -1.6447  0.4418
 6716TIP3   OH241562   2.721   5.312  11.612  0.2348 -0.4256 -0.0855
 6716TIP3    H141563   2.692   5.359  11.690 -1.0273 -1.1767 -0.0824
 6716TIP3    H241564   2.798   5.359  11.583  1.0067 -0.4168  1.8936
 6717TIP3   OH241565   5.474   1.363   4.934 -0.0975 -0.2859 -0.1379
 6717TIP3    H141566   5.455   1.422   4.861  0.8686  2.1251  1.4647
 6717TIP3    H241567   5.549   1.404   4.978 -2.0345 -0.4190  3.4951
 6718TIP3   OH241568   3.790   5.188   0.247 -0.5646 -0.2913  0.1633
 6718TIP3    H141569   3.848   5.264   0.244  0.7001 -1.0391  3.0143
 6718TIP3    H241570   3.711   5.220   0.290 -1.2718  0.1293 -1.4357
 6719TIP3   OH241571   5.991   6.448   4.847  0.1557 -0.3787  0.1619
 6719TIP3    H141572   6.032   6.529   4.816 -1.6336  0.5865  0.2422
 6719TIP3    H241573   5.932   6.477   4.917 -0.3208 -1.7906  0.3518
 6720TIP3   OH241574   0.044   2.334  17.112 -0.2951  0.3222 -0.0868
 6720TIP3    H141575   0.086   2.338  17.198 -0.4047  0.8772 -0.0583
 6720TIP3    H241576  -0.046   2.307  17.130 -0.2831  0.3143 -0.0379
 6721TIP3   OH241577   2.678   3.101  11.017 -0.1103  0.0645 -0.1087
 6721TIP3    H141578   2.646   3.160  11.086  0.6701 -0.3353  0.6027
 6721TIP3    H241579   2.598   3.067  10.977 -0.5737  0.6197  0.3205
 6722TIP3   OH241580   4.267   3.541  12.276  0.2960  0.1233 -0.1331
 6722TIP3    H141581   4.231   3.452  12.274  0.7292 -0.0655  0.4229
 6722TIP3    H241582   4.232   3.578  12.357  0.6877  0.2223 -0.0120
 6723TIP3   OH241583   2.158   6.308   0.593 -0.1422  0.2838  0.1271
 6723TIP3    H141584   2.197   6.290   0.507 -1.1618  0.4835 -0.3835
 6723TIP3    H241585   2.133   6.222   0.627 -1.0137  0.3294 -0.3922
 6724TIP3   OH241586   5.438   5.527   2.354  0.7361  0.5433 -0.0082
 6724TIP3    H141587   5.405   5.560   2.270 -3.0044  1.5394  1.7463
 6724TIP3    H241588   5.422   5.433   2.351  0.9376  0.5227 -0.5180
 6725TIP3   OH241589   3.661   1.819  13.870 -0.1607 -0.3725  1.1177
 6725TIP3    H141590   3.699   1.863  13.946  0.4665  0.1274  0.5102
 6725TIP3    H241591   3.603   1.752  13.908  0.9457 -0.8280  2.0325
 6726TIP3   OH241592   2.985   4.091   3.923 -0.1715 -0.5163 -0.2537
 6726TIP3    H141593   2.966   4.174   3.879  1.5842  0.5140  0.8815
 6726TIP3    H241594   3.052   4.049   3.869 -0.2336 -0.6788 -0.2063
 6727TIP3   OH241595   2.071   5.842  14.892 -0.0410  0.3880  0.1376
 6727TIP3    H141596   2.085   5.889  14.974  0.5045 -0.7945  0.7351
 6727TIP3    H241597   1.991   5.791  14.908 -0.5340  0.9667 -0.4465
 6728TIP3   OH241598   4.659   5.154  16.823 -0.1472  0.3602 -0.2011
 6728TIP3    H141599   4.619   5.235  16.791 -0.0695  0.3905 -0.2204
 6728TIP3    H241600   4.751   5.176  16.837  0.1137 -0.0245 -1.2551
 6729TIP3   OH241601   0.918   3.927  12.150  0.5126  0.2214 -0.4545
 6729TIP3    H141602   0.840   3.974  12.178  0.3735  0.7306 -1.6499
 6729TIP3    H241603   0.986   3.953  12.212 -0.3410 -0.5132  0.8137
 6730TIP3   OH241604   5.555   6.556  13.607  0.7724 -0.1743  0.4770
 6730TIP3    H141605   5.520   6.621  13.669 -1.0710 -1.9038  1.3128
 6730TIP3    H241606   5.649   6.559  13.621  0.6496  1.7661  1.0676
 6731TIP3   OH241607   5.811   0.017  13.115  0.2571  0.0917 -0.3875
 6731TIP3    H141608   5.789   0.091  13.059 -0.9358  0.0946  0.0584
 6731TIP3    H241609   5.787   0.046  13.203 -0.7690 -1.0191 -0.2873
 6732TIP3   OH241610   1.474   5.674  16.450 -0.0594 -0.5053  0.1004
 6732TIP3    H141611   1.520   5.619  16.387  0.6929  0.4702 -0.2151
 6732TIP3    H241612   1.517   5.658  16.533 -1.5139 -2.3382  0.5362
 6733TIP3   OH241613   2.702   4.377  12.135 -0.1601 -0.1635 -0.4610
 6733TIP3    H141614   2.644   4.378  12.212 -1.7530  1.7817 -1.6361
 6733TIP3    H241615   2.644   4.356  12.062  1.0085 -0.1437 -1.4016
 6734TIP3   OH241616   1.508   0.392  11.797 -0.5380  0.1285  0.0876
 6734TIP3    H141617   1.418   0.409  11.823 -0.6618 -1.6306  0.8622
 6734TIP3    H241618   1.504   0.377  11.702 -1.0046  0.3692  0.0714
 6735TIP3   OH241619   3.370   0.335   4.484  0.4371 -1.1396  0.2859
 6735TIP3    H141620   3.294   0.388   4.510 -0.0856 -0.9000 -1.6673
 6735TIP3    H241621   3.335   0.247   4.471  0.3571 -0.8943 -1.2324
 6736TIP3   OH241622   4.897   6.229   0.662  0.5019  0.0100 -0.4123
 6736TIP3    H141623   4.916   6.269   0.577  0.3105  2.5196  0.6908
 6736TIP3    H241624   4.919   6.137   0.650  1.0061  0.4222 -3.0180
 6737TIP3   OH241625   5.134   5.459  15.951 -0.1936 -0.1135  0.4622
 6737TIP3    H141626   5.074   5.443  15.878 -1.0934  1.8849  0.7344
 6737TIP3    H241627   5.078   5.482  16.025  0.8179  0.0966  1.1872
 6738TIP3   OH241628   1.637   5.067   0.510 -0.0500  0.2700  0.6158
 6738TIP3    H141629   1.628   5.010   0.587 -1.8193 -1.7802 -1.0642
 6738TIP3    H241630   1.558   5.121   0.511  0.0340  0.3951  0.3675
 6739TIP3   OH241631   6.405   2.858  15.820 -0.2896 -0.5926 -0.1662
 6739TIP3    H141632   6.325   2.907  15.800  0.0012 -1.1480 -2.9239
 6739TIP3    H241633   6.389   2.770  15.786 -0.5166 -2.3158  4.0909
 6740TIP3   OH241634   5.911   2.577  14.641  0.1245  0.9350 -0.5336
 6740TIP3    H141635   5.857   2.633  14.697  1.3863  1.6285  0.0041
 6740TIP3    H241636   5.871   2.490  14.648  0.5529  0.8988  1.8297
 6741TIP3   OH241637   5.498   2.904  15.473  0.3825  0.2439 -0.6744
 6741TIP3    H141638   5.439   2.868  15.538 -1.3611  0.4141 -2.1199
 6741TIP3    H241639   5.477   2.998  15.470  3.2929  1.0552  1.4069
 6742TIP3   OH241640   2.693   0.551  12.489 -0.0732  0.0032 -0.0305
 6742TIP3    H141641   2.699   0.580  12.398  0.8802 -1.8573 -0.5753
 6742TIP3    H241642   2.695   0.455  12.485  2.3194 -0.0957  2.1074
 6743TIP3   OH241643   3.647   4.705   3.063  0.9710  0.6958 -0.1757
 6743TIP3    H141644   3.655   4.653   3.143  2.3443 -0.3816 -0.9967
 6743TIP3    H241645   3.660   4.795   3.092  2.2306  0.2463  0.7075
 6744TIP3   OH241646   4.657   1.965  14.450  0.2576 -0.2625  0.0180
 6744TIP3    H141647   4.656   2.060  14.435 -0.1207 -0.2194  0.2920
 6744TIP3    H241648   4.564   1.941  14.452  0.3616 -0.6946 -0.4082
 6745TIP3   OH241649   0.903   5.873   2.645 -0.0012  0.1712  0.7451
 6745TIP3    H141650   0.830   5.835   2.596 -0.6149  1.4593  0.6287
 6745TIP3    H241651   0.900   5.830   2.730 -0.6723 -0.0477  0.6137
 6746TIP3   OH241652   1.985   5.390   3.019 -0.2995 -0.3960 -0.1122
 6746TIP3    H141653   2.053   5.361   2.958  0.9777  0.9122  0.6639
 6746TIP3    H241654   2.026   5.387   3.105 -1.2200  0.3856  0.3643
 6747TIP3   OH241655   6.454   3.147  15.935 -0.3907 -0.2865 -0.0243
 6747TIP3    H141656   6.362   3.122  15.925 -0.3120 -0.5442 -0.1023
 6747TIP3    H241657   6.478   3.116  16.022  0.3554 -2.5060 -1.0067
 6748TIP3   OH241658   0.526   2.274  13.314  0.3364  0.5680  0.0924
 6748TIP3    H141659   0.457   2.225  13.270 -0.9686  1.2953  1.2895
 6748TIP3    H241660   0.491   2.363  13.323  0.9286  0.6536  1.7720
 6749TIP3   OH241661   0.429   3.027  15.175  0.0240 -0.0414  0.2891
 6749TIP3    H141662   0.394   3.098  15.228  1.2363  0.9189 -0.1727
 6749TIP3    H241663   0.352   2.987  15.134 -1.0016 -1.2416  3.2496
 6750TIP3   OH241664   3.839   6.683   4.137 -0.0048  0.0658 -0.1193
 6750TIP3    H141665   3.854   6.644   4.223 -1.4610  0.3532  0.2714
 6750TIP3    H241666   3.926   6.711   4.108  0.4451  0.2767  1.4000
 6751TIP3   OH241667   2.707   6.026   4.435 -0.5973 -0.2935 -0.3163
 6751TIP3    H141668   2.734   6.111   4.398 -0.1252  0.0729  0.8497
 6751TIP3    H241669   2.698   6.043   4.529  0.0256 -1.6693 -0.0085
 6752TIP3   OH241670   5.365   1.612   3.023 -0.9449  0.0228  0.1031
 6752TIP3    H141671   5.448   1.587   2.983 -1.5480 -0.7603 -0.6979
 6752TIP3    H241672   5.362   1.563   3.105 -1.3626 -1.2743 -0.6641
 6753TIP3   OH241673   1.924   0.936  14.407  0.2348  0.2117  0.7835
 6753TIP3    H141674   1.846   0.881  14.402  0.4205  0.0233 -0.1191
 6753TIP3    H241675   1.997   0.874  14.401  0.4437  0.5080  0.2766
 6754TIP3   OH241676   6.232   4.089  13.856 -0.1663 -0.7286 -0.4526
 6754TIP3    H141677   6.138   4.074  13.865 -0.5082  1.5271  0.0033
 6754TIP3    H241678   6.239   4.172  13.808  1.5919 -1.1989 -1.0511
 6755TIP3   OH241679   6.289   3.101  15.489 -0.0042 -0.0979  0.2022
 6755TIP3    H141680   6.355   3.124  15.554  0.8225  1.3195 -1.1229
 6755TIP3    H241681   6.317   3.016  15.455  1.2773  0.5916 -0.5036
 6756TIP3   OH241682   1.228   0.958  11.562  0.3220  0.4052  0.0852
 6756TIP3    H141683   1.203   0.915  11.480 -0.9978  2.3007 -0.5383
 6756TIP3    H241684   1.305   1.010  11.539  0.6860 -0.0077  0.3548
 6757TIP3   OH241685   2.034   6.726  13.296  0.2011  0.1379  0.1416
 6757TIP3    H141686   1.957   6.680  13.263 -0.2411  1.4549 -0.6825
 6757TIP3    H241687   2.002   6.812  13.324  0.9209 -0.2312  2.2192
 6758TIP3   OH241688   3.694   6.005   5.675 -0.1283 -0.1112 -0.8064
 6758TIP3    H141689   3.604   5.974   5.661 -0.4351 -0.1037  0.9944
 6758TIP3    H241690   3.748   5.927   5.668 -0.4711 -0.4024 -0.2605
 6759TIP3   OH241691   0.105   5.736  12.829 -0.0389  0.0825  0.3008
 6759TIP3    H141692   0.011   5.732  12.842 -0.1988  0.0682 -0.8027
 6759TIP3    H241693   0.141   5.676  12.894 -0.5628  2.4908  2.8668
 6760TIP3   OH241694   6.081   1.694  12.916  0.4140 -0.6203  0.4533
 6760TIP3    H141695   6.013   1.647  12.867 -0.3101 -0.0953  0.9387
 6760TIP3    H241696   6.045   1.783  12.926  0.5077 -0.7540  2.0256
 6761TIP3   OH241697   4.659   0.013   1.513  0.6511 -0.2150 -0.0548
 6761TIP3    H141698   4.621  -0.033   1.438  3.7093 -3.9306  0.5218
 6761TIP3    H241699   4.603  -0.011   1.586  1.8201 -2.5676  0.1093
 6762TIP3   OH241700   0.511   4.898  14.995  0.0072  0.2257 -0.4108
 6762TIP3    H141701   0.574   4.826  14.985  0.1547  0.1240  1.2018
 6762TIP3    H241702   0.564   4.977  14.990  0.2488  0.1431  0.8266
 6763TIP3   OH241703   4.731   0.700   3.182  0.8913 -0.2634  0.0251
 6763TIP3    H141704   4.707   0.754   3.257  1.9713 -0.5437  0.5875
 6763TIP3    H241705   4.672   0.728   3.112 -0.8194 -0.7248  1.2603
 6764TIP3   OH241706   4.220   1.518   5.410  0.2316  0.1397 -0.3299
 6764TIP3    H141707   4.144   1.554   5.456  0.6234 -0.5644  0.8911
 6764TIP3    H241708   4.187   1.438   5.368  0.2308 -0.0473  0.0184
 6765TIP3   OH241709   3.110   2.060  15.516  0.3395  0.0446  0.5693
 6765TIP3    H141710   3.062   2.086  15.595  1.0576 -1.2143  1.4431
 6765TIP3    H241711   3.145   1.973  15.537  3.8589  1.3100  0.3700
 6766TIP3   OH241712   0.322   6.471  14.665 -0.4108 -0.1552  0.1683
 6766TIP3    H141713   0.333   6.532  14.592 -1.8618 -0.6165 -0.4386
 6766TIP3    H241714   0.350   6.387  14.631 -1.0825 -0.3691  0.1453
 6767TIP3   OH241715   5.758   3.455   4.272 -0.1441 -0.1554 -0.5363
 6767TIP3    H141716   5.671   3.440   4.310  0.7636 -1.5977  1.0892
 6767TIP3    H241717   5.758   3.405   4.191 -0.6176 -0.7339 -0.1868
 6768TIP3   OH241718   2.821   2.462   5.132  0.3487  0.2800 -0.3570
 6768TIP3    H141719   2.863   2.392   5.182  0.7720  0.9422  0.2268
 6768TIP3    H241720   2.735   2.471   5.173  0.2085 -0.0361 -0.5726
 6769TIP3   OH241721   5.586   3.580  11.441  0.4049 -0.1347 -0.1743
 6769TIP3    H141722   5.545   3.565  11.355 -1.2197  1.2834  0.3137
 6769TIP3    H241723   5.536   3.525  11.501  0.0673  0.5747  0.2040
 6770TIP3   OH241724   3.071   0.387  13.685  0.0767 -0.2106 -0.4047
 6770TIP3    H141725   2.997   0.434  13.647 -0.9588  0.0884  1.9003
 6770TIP3    H241726   3.140   0.453  13.690  0.7514 -0.6341 -3.0876
 6771TIP3   OH241727   1.288   6.400   2.114 -0.0169 -0.4357 -0.1342
 6771TIP3    H141728   1.336   6.396   2.032  0.1979 -1.7863  0.0455
 6771TIP3    H241729   1.352   6.377   2.181 -0.3299  0.0940  0.3553
 6772TIP3   OH241730   4.798   0.983   5.446 -0.3203 -0.1132 -0.0623
 6772TIP3    H141731   4.707   0.961   5.463 -0.5742  0.2035 -0.9710
 6772TIP3    H241732   4.802   0.996   5.351  0.9372 -1.3192 -0.1803
 6773TIP3   OH241733   3.224   4.979   5.751 -0.4285  0.3168 -0.2030
 6773TIP3    H141734   3.240   5.050   5.813  1.7175  0.2222 -0.6334
 6773TIP3    H241735   3.165   5.019   5.685  2.2426  2.3259 -1.4779
 6774TIP3   OH241736   6.537   5.434  14.432  0.0485  0.0108 -0.5964
 6774TIP3    H141737   6.594   5.429  14.356  0.7057 -0.7903 -0.0642
 6774TIP3    H241738   6.559   5.356  14.484  0.9982  1.5269  1.3678
 6775TIP3   OH241739   4.781   0.358   5.620 -0.1544 -0.3287 -0.2076
 6775TIP3    H141740   4.840   0.417   5.666  0.9098 -1.7666  0.2985
 6775TIP3    H241741   4.751   0.408   5.544 -1.3702  1.8132  1.6271
 6776TIP3   OH241742   2.019   1.375   2.707  0.7026  0.1927 -0.7950
 6776TIP3    H141743   1.936   1.418   2.689  1.0425  0.9023 -0.6665
 6776TIP3    H241744   2.006   1.285   2.678 -0.4728  0.0181  0.2153
 6777TIP3   OH241745   3.912   4.026  13.997 -0.3307 -0.0490 -0.0205
 6777TIP3    H141746   3.849   4.050  14.065 -0.9423 -0.9423 -0.2640
 6777TIP3    H241747   3.882   3.942  13.965  1.0904 -0.5690 -0.0314
 6778TIP3   OH241748   4.876   1.771  13.947 -0.2098  0.1978  0.3686
 6778TIP3    H141749   4.950   1.814  13.989  0.3468 -1.0334  0.6675
 6778TIP3    H241750   4.802   1.788  14.006  0.6200 -1.7432  2.0311
 6779TIP3   OH241751   4.040   5.737   0.979 -0.1653 -0.0182  1.0987
 6779TIP3    H141752   4.135   5.735   0.992 -0.1330  0.6571  1.0105
 6779TIP3    H241753   4.013   5.646   0.986  0.9038 -0.6128 -2.0087
 6780TIP3   OH241754   0.266   0.766   0.722  0.1433 -0.6854 -0.0429
 6780TIP3    H141755   0.272   0.812   0.638 -0.2080  0.9799  0.8426
 6780TIP3    H241756   0.173   0.765   0.742  0.3850  0.3584  1.1348
 6781TIP3   OH241757   4.570   4.574   3.413  0.7201 -0.2451 -0.1242
 6781TIP3    H141758   4.511   4.611   3.479  0.5042  0.2061 -0.5669
 6781TIP3    H241759   4.519   4.576   3.332  1.7234  1.1893 -0.7470
 6782TIP3   OH241760   6.355   3.386   3.348 -0.0344  0.1586  0.2685
 6782TIP3    H141761   6.327   3.443   3.420  0.2976 -0.6153  1.0177
 6782TIP3    H241762   6.439   3.422   3.321 -1.1831  1.7875 -1.2157
 6783TIP3   OH241763   5.404   2.686   4.191  0.3569 -0.2176  0.9465
 6783TIP3    H141764   5.449   2.767   4.170 -1.6951  0.6918  0.0132
 6783TIP3    H241765   5.398   2.686   4.287  0.8254  0.4584  0.9736
 6784TIP3   OH241766   5.701   1.463  13.290 -0.0885 -0.4355 -0.3879
 6784TIP3    H141767   5.788   1.485  13.256 -0.6103  1.6515 -0.4373
 6784TIP3    H241768   5.700   1.368  13.294  1.0717 -0.6167 -3.3579
 6785TIP3   OH241769   5.759   6.699   1.188  0.2798 -0.0983  0.0660
 6785TIP3    H141770   5.820   6.767   1.162 -0.1851  1.1433  2.1134
 6785TIP3    H241771   5.677   6.745   1.207  0.1356 -1.1082  2.0632
 6786TIP3   OH241772   3.777   1.266  15.191 -0.3697  0.9564 -0.3359
 6786TIP3    H141773   3.756   1.259  15.098  0.1725 -0.5264 -0.3507
 6786TIP3    H241774   3.869   1.294  15.192  0.5262 -1.8418 -0.2685
 6787TIP3   OH241775   3.183   1.114  16.025 -0.0339  0.1722  0.2706
 6787TIP3    H141776   3.270   1.077  16.039 -0.5709 -0.3493  2.3652
 6787TIP3    H241777   3.185   1.146  15.935  1.1982 -2.9338 -0.8725
 6788TIP3   OH241778   4.947   0.478   1.690 -0.7288  0.1954 -0.6781
 6788TIP3    H141779   5.015   0.489   1.756 -1.6991  0.6048  0.2647
 6788TIP3    H241780   4.992   0.438   1.616  0.8448  1.7618 -0.6097
 6789TIP3   OH241781   6.457   2.747  12.859  0.5742  0.5335 -0.5569
 6789TIP3    H141782   6.521   2.711  12.921 -0.7978  3.2173  2.5443
 6789TIP3    H241783   6.372   2.722  12.894 -0.2378  2.3434 -1.1599
 6790TIP3   OH241784   1.885   6.684  11.625  0.5132  0.1094 -0.4588
 6790TIP3    H141785   1.826   6.628  11.575  2.2686 -2.3129  0.0587
 6790TIP3    H241786   1.897   6.637  11.708  1.9522  1.3040  0.0179
 6791TIP3   OH241787   1.882   2.959  12.937 -0.2441 -0.0129  1.1125
 6791TIP3    H141788   1.811   2.923  12.883  1.6194  0.4793 -1.7398
 6791TIP3    H241789   1.928   2.882  12.970  0.2516 -0.3383 -0.2876
 6792TIP3   OH241790   3.307   3.985   1.378 -0.3923 -0.4064  0.2961
 6792TIP3    H141791   3.371   4.034   1.431  0.0479 -0.2176 -0.4057
 6792TIP3    H241792   3.224   4.029   1.396 -0.3068 -0.5619  1.1049
 6793TIP3   OH241793   3.161   3.430  15.359 -0.2846 -0.3081  0.2747
 6793TIP3    H141794   3.188   3.372  15.288 -0.9185 -0.0335 -0.1924
 6793TIP3    H241795   3.118   3.504  15.315 -0.1361  0.1592  0.9062
 6794TIP3   OH241796   0.896   5.705  16.293  0.0913 -0.4984  0.7469
 6794TIP3    H141797   0.816   5.654  16.299  1.1505 -2.1891  0.7771
 6794TIP3    H241798   0.917   5.728  16.383 -0.1173 -0.4119  0.7730
 6795TIP3   OH241799   1.458   1.917  12.332 -0.1259 -0.1085  0.0688
 6795TIP3    H141800   1.409   1.973  12.392 -0.8377  0.9332 -1.4495
 6795TIP3    H241801   1.473   1.836  12.382  0.3291  1.1451  2.0501
 6796TIP3   OH241802   4.788   4.704   2.549 -0.2097 -0.2240  0.2419
 6796TIP3    H141803   4.820   4.625   2.504 -0.6295 -0.6636  0.7112
 6796TIP3    H241804   4.693   4.704   2.533 -0.3603 -0.3889  1.1422
 6797TIP3   OH241805   4.629   4.865  14.306  0.3073 -0.6995 -0.2951
 6797TIP3    H141806   4.717   4.847  14.273  0.1414 -0.4015 -0.9008
 6797TIP3    H241807   4.615   4.958  14.288  1.0525  0.0340  2.5684
 6798TIP3   OH241808   2.797   1.902   0.997  0.7847 -0.3845  0.2655
 6798TIP3    H141809   2.885   1.923   1.028  1.2510 -0.5493 -0.9071
 6798TIP3    H241810   2.806   1.816   0.954  0.3658  0.2292 -1.0963
 6799TIP3   OH241811   6.295   5.392   6.579  0.0167  0.3904 -0.2681
 6799TIP3    H141812   6.346   5.388   6.660 -0.5894  1.3023  0.1776
 6799TIP3    H241813   6.215   5.343   6.599 -0.1747  0.6946 -0.2711
 6800TIP3   OH241814   4.316   3.509   1.686 -0.1548 -0.3918 -0.4468
 6800TIP3    H141815   4.319   3.473   1.597  1.0308  2.0804 -1.4466
 6800TIP3    H241816   4.239   3.468   1.726 -0.5257 -1.7730 -2.4984
 6801TIP3   OH241817   3.783   1.139  14.946 -0.2627 -0.1685  0.0758
 6801TIP3    H141818   3.855   1.077  14.958 -0.7048 -0.7437 -0.1563
 6801TIP3    H241819   3.756   1.125  14.855 -0.2878  0.4548 -0.0085
 6802TIP3   OH241820   6.338   0.730  15.776  0.2927  0.2757 -0.0300
 6802TIP3    H141821   6.305   0.703  15.690 -2.0653  1.3724  0.4799
 6802TIP3    H241822   6.311   0.659  15.834 -1.3182  1.2210  0.4064
 6803TIP3   OH241823   4.611   5.167  12.169  0.3727 -0.5730  0.5345
 6803TIP3    H141824   4.562   5.193  12.248  2.2430  0.1385  1.4816
 6803TIP3    H241825   4.595   5.073  12.161 -1.5662 -0.2700  0.5164
 6804TIP3   OH241826   0.935   3.073   0.168 -0.1580  0.1708  0.4841
 6804TIP3    H141827   0.932   3.071   0.263 -0.0108 -0.2105  0.4821
 6804TIP3    H241828   0.987   3.152   0.147  2.8441 -1.6270  0.8035
 6805TIP3   OH241829   2.870   5.242  14.409  0.1188  0.7277 -0.9294
 6805TIP3    H141830   2.885   5.327  14.448  0.8322 -0.2920  1.0616
 6805TIP3    H241831   2.806   5.199  14.466  0.5680 -0.4677 -1.2941
 6806TIP3   OH241832   0.066   6.266  11.615  0.2620  0.1030 -1.0426
 6806TIP3    H141833   0.118   6.186  11.624 -1.2026 -0.7106  0.4763
 6806TIP3    H241834   0.131   6.336  11.607  1.6378 -0.8426  1.3791
 6807TIP3   OH241835   2.482   5.195  13.724  0.0621 -0.2057 -0.0078
 6807TIP3    H141836   2.394   5.160  13.715 -0.7949  1.9792 -0.5175
 6807TIP3    H241837   2.539   5.118  13.719 -1.6779 -1.4449 -1.8543
 6808TIP3   OH241838   3.918   6.107   0.263  0.1622 -0.5869 -0.8443
 6808TIP3    H141839   3.827   6.078   0.254  0.0388 -0.0385 -1.3871
 6808TIP3    H241840   3.957   6.044   0.324 -0.7962 -0.3399  0.0369
 6809TIP3   OH241841   3.706   5.001  12.321 -0.3425 -0.2646  0.5546
 6809TIP3    H141842   3.765   5.048  12.262 -2.0663 -0.6475 -1.5830
 6809TIP3    H241843   3.673   5.068  12.380 -0.7485  0.7309 -0.7562
 6810TIP3   OH241844   6.705   4.222   0.684  0.3438  0.0068  0.3215
 6810TIP3    H141845   6.679   4.307   0.649 -0.8495 -0.3187  0.3979
 6810TIP3    H241846   6.704   4.163   0.609  2.4523  0.3183  0.0123
 6811TIP3   OH241847   3.696   1.414   5.961 -0.3085 -0.0633 -0.3536
 6811TIP3    H141848   3.627   1.479   5.977  0.2094  0.4907 -0.3783
 6811TIP3    H241849   3.743   1.448   5.885 -1.1248 -1.3544 -1.4565
 6812TIP3   OH241850   0.848   4.991  16.795  0.0336 -0.2501 -0.1150
 6812TIP3    H141851   0.924   5.041  16.764  0.4419 -0.4563  0.5381
 6812TIP3    H241852   0.773   5.040  16.763  0.4246  1.0782  0.9505
 6813TIP3   OH241853   0.602   5.537   0.828 -0.9335 -0.2682  0.0098
 6813TIP3    H141854   0.655   5.600   0.779 -2.4695  2.0036  1.1832
 6813TIP3    H241855   0.639   5.452   0.805  1.4579  1.0633 -1.3131
 6814TIP3   OH241856   2.805   3.619   5.304  0.0706 -0.3693  0.7370
 6814TIP3    H141857   2.764   3.705   5.303  4.0763  1.6272 -0.0102
 6814TIP3    H241858   2.804   3.593   5.396  0.1647  1.1310  1.1708
 6815TIP3   OH241859   5.253   5.064   5.292  0.3196 -0.3706  0.7164
 6815TIP3    H141860   5.253   5.157   5.273 -0.9054 -0.6921 -0.9436
 6815TIP3    H241861   5.238   5.059   5.386  2.3386  1.1392  1.1538
 6816TIP3   OH241862   5.050   3.828  15.228 -0.0385 -0.4226 -0.3802
 6816TIP3    H141863   5.086   3.812  15.141  0.0050  1.6712 -0.7645
 6816TIP3    H241864   4.985   3.897  15.215  1.7957  1.7729  1.6410
 6817TIP3   OH241865   3.927   1.619   1.400  0.0574 -0.5706 -0.0844
 6817TIP3    H141866   3.911   1.598   1.308  0.7157 -4.3381  0.5973
 6817TIP3    H241867   4.010   1.667   1.400 -0.8592  1.0869 -1.5770
 6818TIP3   OH241868   1.079   5.114  14.719 -0.6910  0.1854 -0.2026
 6818TIP3    H141869   0.988   5.091  14.739 -1.0643  2.8177  1.3996
 6818TIP3    H241870   1.104   5.175  14.788  2.0783  0.0702 -1.0371
 6819TIP3   OH241871   5.219   6.001   1.025  0.1124 -0.2542 -0.3335
 6819TIP3    H141872   5.129   6.032   1.010 -0.3494 -0.6227  1.5318
 6819TIP3    H241873   5.215   5.957   1.110  2.0031 -0.5379 -0.3778
 6820TIP3   OH241874   4.332   3.083   6.217  0.6804  0.7622  0.4883
 6820TIP3    H141875   4.279   3.146   6.266  2.0357  1.2756  1.3302
 6820TIP3    H241876   4.331   3.003   6.270  0.0184  0.4927  0.0646
 6821TIP3   OH241877   0.334   1.300   1.777  0.2448  0.3123  0.5436
 6821TIP3    H141878   0.404   1.308   1.841  0.0363  4.3392  0.3957
 6821TIP3    H241879   0.362   1.356   1.704 -0.5797 -2.3757 -1.9307
 6822TIP3   OH241880   4.942   0.392   5.101 -0.4801  0.0675 -0.2209
 6822TIP3    H141881   5.004   0.346   5.156 -1.7240 -2.0975 -0.5671
 6822TIP3    H241882   4.983   0.396   5.015 -0.3042 -0.2418 -0.1472
 6823TIP3   OH241883   1.015   1.382  12.340  0.1876 -0.5336 -0.2241
 6823TIP3    H141884   1.107   1.406  12.349 -0.2319  0.6526  1.1211
 6823TIP3    H241885   1.011   1.334  12.258  1.8126  0.4504 -0.9144
 6824TIP3   OH241886   2.248   3.347   2.038 -0.3095 -0.6870 -0.1605
 6824TIP3    H141887   2.330   3.298   2.029  0.6426  0.5153  1.6759
 6824TIP3    H241888   2.248   3.408   1.964  1.1881  0.3110  0.6391
 6825TIP3   OH241889   6.408   2.093  10.735  0.0275  0.0039 -0.0831
 6825TIP3    H141890   6.381   2.180  10.767  1.1883  0.0360  0.8567
 6825TIP3    H241891   6.327   2.053  10.704 -1.2201 -0.0244  2.9448
 6826TIP3   OH241892   1.945   5.034   5.174  0.3940  0.6116 -0.1034
 6826TIP3    H141893   1.854   5.006   5.175  0.6465 -0.2423  1.0542
 6826TIP3    H241894   1.995   4.953   5.170  1.1207  0.8755  2.3036
 6827TIP3   OH241895   6.473   5.085   6.305 -0.0482  0.5901 -0.7015
 6827TIP3    H141896   6.498   4.999   6.338 -0.1438 -0.0735 -2.3405
 6827TIP3    H241897   6.377   5.085   6.307 -0.0493  1.7580  2.0322
 6828TIP3   OH241898   3.198   4.939   4.141  0.2854  0.0740  0.5904
 6828TIP3    H141899   3.212   4.894   4.225  1.6229 -2.8033 -1.1028
 6828TIP3    H241900   3.114   4.907   4.110  0.0012  0.7946  0.5994
 6829TIP3   OH241901   2.766   2.972  15.238 -0.6330  0.5925 -0.1570
 6829TIP3    H141902   2.767   3.061  15.204 -0.1218  0.3553 -0.7604
 6829TIP3    H241903   2.858   2.952  15.256 -0.6318 -0.1645 -0.9598
 6830TIP3   OH241904   2.447   6.783  15.226  0.3948  0.1985  0.4284
 6830TIP3    H141905   2.506   6.854  15.199  0.7622  0.3148  1.4842
 6830TIP3    H241906   2.464   6.713  15.164  0.2217  0.9339 -0.4689
 6831TIP3   OH241907   2.883   3.997  13.904  0.7890 -0.2506 -0.3488
 6831TIP3    H141908   2.939   4.004  13.982  1.0538  0.8446 -0.6340
 6831TIP3    H241909   2.835   4.079  13.901  0.6542 -0.3608 -1.2584
 6832TIP3   OH241910   5.562   3.804  12.792  0.0490 -0.2607  0.0997
 6832TIP3    H141911   5.610   3.840  12.717  0.8182  0.2750  0.8368
 6832TIP3    H241912   5.501   3.740  12.754 -0.3203  0.7882 -1.0761
 6833TIP3   OH241913   4.072   0.067   0.290 -0.4659  0.0694 -0.4316
 6833TIP3    H141914   4.148   0.099   0.340  1.2329 -1.3103 -2.0991
 6833TIP3    H241915   4.035   0.146   0.250 -0.7700  0.9403  1.4800
 6834TIP3   OH241916   2.743   3.793   4.985 -0.1376  0.2508  0.4724
 6834TIP3    H141917   2.691   3.864   4.948  0.8939  0.2021 -1.1173
 6834TIP3    H241918   2.755   3.818   5.077  2.8031  3.7431 -0.7360
 6835TIP3   OH241919   5.625   6.340   0.310  0.1815  0.3274 -0.1392
 6835TIP3    H141920   5.562   6.273   0.339 -1.9972  1.0063 -3.0699
 6835TIP3    H241921   5.584   6.423   0.334  1.5474  0.7059  0.9176
 6836TIP3   OH241922   6.090   4.105  15.147  0.0372  0.0065  0.1853
 6836TIP3    H141923   6.058   4.056  15.222 -1.6450  3.0338  1.5413
 6836TIP3    H241924   6.033   4.080  15.075 -0.5320 -0.3293  0.7490
 6837TIP3   OH241925   0.023   1.648  14.934 -0.3837  0.0961 -0.4552
 6837TIP3    H141926  -0.040   1.691  14.876 -1.8416 -1.5022 -0.0808
 6837TIP3    H241927   0.008   1.554  14.920  1.1863 -0.3027  0.4368
 6838TIP3   OH241928   5.845   0.601   3.055  0.2617 -0.4104 -0.0031
 6838TIP3    H141929   5.903   0.614   2.980 -0.7671 -1.6962 -1.0319
 6838TIP3    H241930   5.817   0.510   3.049 -1.1456 -0.0587  0.9930
 6839TIP3   OH241931   3.885   1.994  13.795 -0.6580 -0.3045 -0.1824
 6839TIP3    H141932   3.796   1.983  13.764 -0.6250 -0.0591 -0.3621
 6839TIP3    H241933   3.936   2.014  13.717 -0.6308  0.6295  0.0619
 6840TIP3   OH241934   2.599   6.238   4.818 -0.0527  0.0123 -0.0419
 6840TIP3    H141935   2.629   6.320   4.779 -0.3635  0.9763  1.6738
 6840TIP3    H241936   2.584   6.260   4.910  0.0540 -2.0286  0.4794
 6841TIP3   OH241937   1.797   3.644  15.497  0.3323  0.1435 -0.2528
 6841TIP3    H141938   1.766   3.560  15.530 -0.6976  1.0962  1.2438
 6841TIP3    H241939   1.861   3.621  15.430  0.8605 -1.8307  0.8924
 6842TIP3   OH241940   0.318   2.881  14.918  0.8925 -0.3947 -0.0776
 6842TIP3    H141941   0.290   2.907  14.830  1.6155 -0.4723 -0.3280
 6842TIP3    H241942   0.413   2.893  14.918  0.9199 -0.5959  0.6242
 6843TIP3   OH241943   4.887   6.260   5.338  0.4199  0.6675  0.3295
 6843TIP3    H141944   4.796   6.277   5.361  0.3971  1.6924 -0.5230
 6843TIP3    H241945   4.884   6.234   5.246  0.8916 -0.1753  0.5495
 6844TIP3   OH241946   5.292   2.383   4.003 -0.3355 -0.3435 -0.4533
 6844TIP3    H141947   5.257   2.296   3.984 -0.1409 -0.2332 -1.3279
 6844TIP3    H241948   5.218   2.431   4.042 -0.3130 -1.0396  0.4612
 6845TIP3   OH241949   2.508   6.135  16.729 -0.3671  0.5340  0.0174
 6845TIP3    H141950   2.581   6.081  16.698 -0.2641  0.1171  0.9735
 6845TIP3    H241951   2.472   6.174  16.649  1.7681  1.8513 -0.3535
 6846TIP3   OH241952   4.157   5.559  15.078  0.2673 -0.1668  0.1659
 6846TIP3    H141953   4.234   5.583  15.130  0.6538 -2.0449  0.5016
 6846TIP3    H241954   4.087   5.614  15.113  1.1979  0.7510  0.6347
 6847TIP3   OH241955   5.452   2.964   5.773 -0.0913  0.2769  0.7010
 6847TIP3    H141956   5.368   2.947   5.729 -0.4314  1.3097  0.9392
 6847TIP3    H241957   5.471   2.882   5.819  0.8502 -1.2466 -2.2522
 6848TIP3   OH241958   2.225   0.834   2.989 -0.0386  0.0535  0.5325
 6848TIP3    H141959   2.137   0.811   3.018 -0.9933  0.7734 -1.7022
 6848TIP3    H241960   2.230   0.929   3.001  0.1919  0.1084  0.0180
 6849TIP3   OH241961   6.018   3.459  13.501  0.0679 -0.0841  0.1349
 6849TIP3    H141962   6.088   3.393  13.505 -0.7352 -1.0720 -1.5486
 6849TIP3    H241963   6.036   3.509  13.421  2.1167  3.4679  2.6736
 6850TIP3   OH241964   2.140   1.586   3.430 -0.0034  0.4681  0.4304
 6850TIP3    H141965   2.099   1.579   3.517 -1.2674 -0.7863 -0.2567
 6850TIP3    H241966   2.084   1.648   3.383 -0.8988 -0.9399 -0.3769
 6851TIP3   OH241967   0.192   4.283   0.723 -0.7477  0.1637 -0.5369
 6851TIP3    H141968   0.216   4.200   0.765 -2.6153  0.2529  0.7449
 6851TIP3    H241969   0.097   4.287   0.730 -0.7144  2.1875 -1.0212
 6852TIP3   OH241970   2.648   0.143  15.108 -0.1146 -0.4072 -0.1384
 6852TIP3    H141971   2.623   0.121  15.019 -0.5727 -1.5127  0.2493
 6852TIP3    H241972   2.736   0.108  15.118 -0.1184 -0.4095 -0.1087
 6853TIP3   OH241973   4.252   2.688  11.510 -0.0019  0.7133  0.0832
 6853TIP3    H141974   4.211   2.750  11.450  0.1822  1.1092  0.3615
 6853TIP3    H241975   4.190   2.616  11.517  0.7055 -0.0927 -1.8422
 6854TIP3   OH241976   0.536   5.950  16.988  0.0359  0.4919 -0.6280
 6854TIP3    H141977   0.556   5.865  16.948 -2.8855 -0.9595  0.8245
 6854TIP3    H241978   0.613   5.970  17.042  0.0949 -2.0710  0.3164
 6855TIP3   OH241979   2.589   2.785  15.317 -0.1881  0.2802  0.1954
 6855TIP3    H141980   2.632   2.871  15.316  0.4301 -0.0407 -0.4124
 6855TIP3    H241981   2.606   2.748  15.231 -0.3369 -0.5195  0.5049
 6856TIP3   OH241982   5.662   3.568   5.507 -0.0473  0.2373 -0.0595
 6856TIP3    H141983   5.632   3.480   5.531 -0.6043  0.5320  0.3403
 6856TIP3    H241984   5.676   3.564   5.412 -0.6791 -0.1043 -0.1398
 6857TIP3   OH241985   4.156   5.316   5.911  0.0791 -0.2839 -0.6091
 6857TIP3    H141986   4.151   5.410   5.932  0.2242  0.2724 -2.9523
 6857TIP3    H241987   4.241   5.289   5.947 -0.6219  0.1027  1.4246
 6858TIP3   OH241988   6.278   1.215  12.998  0.1361 -0.0425  0.1217
 6858TIP3    H141989   6.340   1.144  12.983 -0.3249 -0.1701 -1.2204
 6858TIP3    H241990   6.324   1.294  12.968 -0.1600 -0.0695 -0.4057
 6859TIP3   OH241991   2.192   1.484   3.950  0.1078 -0.2133 -0.2365
 6859TIP3    H141992   2.186   1.400   3.996  1.9828 -0.4242 -0.3246
 6859TIP3    H241993   2.278   1.482   3.908  0.5556  2.1314  0.4934
 6860TIP3   OH241994   5.889   5.587   3.361 -0.5445  0.5336  0.4951
 6860TIP3    H141995   5.885   5.500   3.321  0.6986  0.0419  1.4265
 6860TIP3    H241996   5.983   5.606   3.368 -0.7886  1.4663  1.3280
 6861TIP3   OH241997   5.696   2.544   3.474  0.1103  0.7218  0.3448
 6861TIP3    H141998   5.630   2.597   3.518 -0.4633 -1.3247  2.0111
 6861TIP3    H241999   5.647   2.477   3.428  0.8966  0.9169 -0.8057
 6862TIP3   OH242000   6.698   0.319  13.695 -0.4548 -0.4284  0.2390
 6862TIP3    H142001   6.721   0.282  13.780 -2.1248  2.0744  1.8523
 6862TIP3    H242002   6.773   0.374  13.672 -0.4473 -0.2985  0.5728
 6863TIP3   OH242003   1.761   2.568   5.758  0.4684  0.1954  0.4343
 6863TIP3    H142004   1.815   2.588   5.682 -0.7556 -2.8534 -1.3011
 6863TIP3    H242005   1.822   2.531   5.822  1.2315  1.2782  0.3431
 6864TIP3   OH242006   5.039   0.646  11.168  0.5875 -0.1366 -0.9528
 6864TIP3    H142007   5.075   0.662  11.255 -0.6239 -1.0037 -0.2691
 6864TIP3    H242008   4.970   0.712  11.158  0.5975 -0.1585 -1.1804
 6865TIP3   OH242009   4.741   3.635  11.685 -0.0600 -0.5546  0.1782
 6865TIP3    H142010   4.719   3.542  11.677 -1.1967 -0.3253  0.5662
 6865TIP3    H242011   4.693   3.664  11.762 -0.3862  0.5502 -0.4344
 6866TIP3   OH242012   5.547   5.333   3.139 -0.2029 -0.0875 -0.6103
 6866TIP3    H142013   5.469   5.283   3.163 -1.3994  2.4326  0.9679
 6866TIP3    H242014   5.603   5.329   3.217 -0.2983  0.9869 -0.4794
 6867TIP3   OH242015   1.731   2.410  12.471 -0.1975 -0.3111  0.1049
 6867TIP3    H142016   1.674   2.488  12.473  0.0187 -0.1736  2.0928
 6867TIP3    H242017   1.670   2.337  12.478 -0.1759 -0.1877  1.6102
 6868TIP3   OH242018   5.010   0.695   0.404 -1.0085 -0.3056 -0.7245
 6868TIP3    H142019   5.033   0.638   0.330 -1.1515  0.0136 -1.0172
 6868TIP3    H242020   4.927   0.659   0.435 -0.6099 -0.8592 -0.2836
 6869TIP3   OH242021   0.705   6.691  15.401 -0.2168 -0.2324  0.5234
 6869TIP3    H142022   0.711   6.728  15.489  0.6911 -2.1661  1.2963
 6869TIP3    H242023   0.658   6.608  15.412 -0.5277 -0.2614 -0.8902
 6870TIP3   OH242024   3.705   3.641   2.908 -0.6554 -0.6256 -0.2578
 6870TIP3    H142025   3.711   3.619   3.001  1.1502 -1.5445 -0.5657
 6870TIP3    H242026   3.784   3.693   2.891 -0.8143 -0.7401 -1.3507
 6871TIP3   OH242027   0.224   3.975  12.857  0.4292  0.1879 -0.1494
 6871TIP3    H142028   0.248   4.046  12.916 -0.5014  0.7033 -0.3741
 6871TIP3    H242029   0.151   4.010  12.806 -0.3101 -1.0632  0.0137
 6872TIP3   OH242030   0.434   0.503   6.371  0.0728  0.1535 -0.4764
 6872TIP3    H142031   0.364   0.494   6.436  0.4974  1.3306  0.1640
 6872TIP3    H242032   0.510   0.462   6.412 -0.4471 -1.9746 -1.5556
 6873TIP3   OH242033   5.981   1.243  14.082  0.1965  0.2965  0.1392
 6873TIP3    H142034   5.966   1.148  14.081 -1.1111  0.4768  1.1789
 6873TIP3    H242035   6.042   1.257  14.154  0.3175  0.2562  0.0450
 6874TIP3   OH242036   1.899   4.205  12.628  0.1887 -0.4082  0.6333
 6874TIP3    H142037   1.929   4.294  12.609 -0.3190 -0.4349 -0.2960
 6874TIP3    H242038   1.809   4.216  12.658 -0.2858 -0.7027 -0.6328
 6875TIP3   OH242039   0.002   5.611  11.596  0.1034  0.1440 -0.3064
 6875TIP3    H142040   0.088   5.613  11.554 -0.2953  2.2174 -1.0814
 6875TIP3    H242041  -0.060   5.626  11.525 -0.6532  2.2824  0.7612
 6876TIP3   OH242042   1.974   0.261   2.157 -0.5316 -0.9118 -0.4892
 6876TIP3    H142043   1.971   0.270   2.061 -0.7444  0.3308 -0.3789
 6876TIP3    H242044   2.029   0.333   2.186 -2.7441  0.4275  0.5150
 6877TIP3   OH242045   2.518   4.216  15.991 -0.0098  0.1324  0.1699
 6877TIP3    H142046   2.505   4.308  15.967 -0.2515 -0.0618 -0.4485
 6877TIP3    H242047   2.507   4.214  16.086 -2.4546  0.3192 -0.0813
 6878TIP3   OH242048   1.192   1.668   5.898  0.1692 -0.4774  0.0417
 6878TIP3    H142049   1.195   1.574   5.881  3.1335 -0.9452  2.6949
 6878TIP3    H242050   1.177   1.675   5.992  0.7767  1.6831  0.0130
 6879TIP3   OH242051   3.771   3.266  15.527 -0.2173  0.1450  0.3109
 6879TIP3    H142052   3.774   3.269  15.623 -0.4931  1.5175  0.2871
 6879TIP3    H242053   3.863   3.271  15.500 -0.0706 -1.2349  0.5157
 6880TIP3   OH242054   4.394   6.186   4.240 -0.4372 -0.1398  0.1276
 6880TIP3    H142055   4.379   6.108   4.187  0.0930 -0.9473  1.1486
 6880TIP3    H242056   4.386   6.156   4.330  1.9897  0.5048  0.6000
 6881TIP3   OH242057   6.629   1.411   0.512 -0.1910  0.9788  0.2331
 6881TIP3    H142058   6.687   1.481   0.481  0.2039 -0.0070 -1.3458
 6881TIP3    H242059   6.588   1.378   0.432  1.0644 -1.8457  0.6985
 6882TIP3   OH242060   4.959   5.623   0.362 -0.3884 -0.0448  0.4612
 6882TIP3    H142061   5.051   5.643   0.381 -0.2592  0.3026 -0.5191
 6882TIP3    H242062   4.916   5.708   0.357  0.0677  0.0469 -3.1958
 6883TIP3   OH242063   4.043   5.241  11.794 -0.4308 -0.1428  0.3505
 6883TIP3    H142064   4.087   5.325  11.781 -0.7289  0.1059  0.9262
 6883TIP3    H242065   3.954   5.255  11.762  0.0974 -0.8619 -1.4950
 6884TIP3   OH242066   1.791   2.747   1.833 -0.3199  0.3471  0.4084
 6884TIP3    H142067   1.703   2.767   1.801  0.6664  1.1110 -1.9769
 6884TIP3    H242068   1.830   2.833   1.850  1.9928  0.4220 -4.4332
 6885TIP3   OH242069   6.089   4.476   4.170  0.1953  0.1772  0.4576
 6885TIP3    H142070   6.104   4.471   4.076  0.1769 -0.0561  0.4675
 6885TIP3    H242071   5.995   4.489   4.178  0.0420 -0.8976  0.4791
 6886TIP3   OH242072   0.953   3.675  15.635 -0.0819 -0.3786 -0.5333
 6886TIP3    H142073   0.996   3.720  15.708  1.2247 -1.7757 -0.4043
 6886TIP3    H242074   0.880   3.629  15.677 -0.4879  0.3642 -0.4180
 6887TIP3   OH242075   1.073   2.878  16.857  0.1234 -0.7735 -0.2969
 6887TIP3    H142076   1.082   2.793  16.901 -2.7397 -0.8465  0.2091
 6887TIP3    H242077   1.144   2.879  16.793  0.8332 -3.1122  0.4047
 6888TIP3   OH242078   1.556   6.492   5.088  0.4977 -0.6920 -0.3611
 6888TIP3    H142079   1.488   6.534   5.140 -0.7542  0.5052 -2.8958
 6888TIP3    H242080   1.613   6.563   5.061  0.7553 -1.2013 -1.1748
 6889TIP3   OH242081   0.173   4.313   1.188 -0.1440  0.1322 -0.2842
 6889TIP3    H142082   0.227   4.329   1.266 -1.1314 -0.1450  0.4756
 6889TIP3    H242083   0.236   4.304   1.117  0.8483 -0.6875  0.6670
 6890TIP3   OH242084   1.452   6.388  14.526  0.4686  0.7828 -0.0266
 6890TIP3    H142085   1.421   6.314  14.473 -0.2804  0.8894  0.2451
 6890TIP3    H242086   1.547   6.387  14.515  0.4259  0.0860 -0.4292
 6891TIP3   OH242087   3.911   2.113   3.761  0.3879  0.1051  0.4388
 6891TIP3    H142088   3.831   2.080   3.719  1.4805  0.0832 -1.6944
 6891TIP3    H242089   3.887   2.200   3.792 -0.5628 -0.0196  0.0881
 6892TIP3   OH242090   4.548   5.375  16.457  0.6871 -0.0619 -0.0391
 6892TIP3    H142091   4.465   5.364  16.503  1.2720  0.3446  1.1187
 6892TIP3    H242092   4.547   5.306  16.390 -0.3871 -0.3348  0.2475
 6893TIP3   OH242093   0.393   0.462  14.387 -0.3019 -0.5582 -0.3884
 6893TIP3    H142094   0.310   0.507  14.373 -0.7139 -1.7681 -2.0223
 6893TIP3    H242095   0.377   0.402  14.460 -0.5571 -0.0572 -0.0332
 6894TIP3   OH242096   1.463   3.900   2.187  0.3183 -0.3904 -0.5983
 6894TIP3    H142097   1.415   3.890   2.105  0.0773 -0.1212 -0.4912
 6894TIP3    H242098   1.552   3.922   2.160  0.5579 -1.6047 -0.8129
 6895TIP3   OH242099   3.213   4.304  11.003 -0.3044 -0.2465 -0.1829
 6895TIP3    H142100   3.282   4.247  11.038  0.6672  1.0310  0.0532
 6895TIP3    H242101   3.212   4.286  10.910  2.8943  2.2429 -0.8210
 6896TIP3   OH242102   0.292   3.218   3.593 -0.0178 -0.2591  0.8039
 6896TIP3    H142103   0.228   3.272   3.640  0.8203  0.0270  1.6507
 6896TIP3    H242104   0.267   3.128   3.614 -1.6054 -0.2251 -0.8641
 6897TIP3   OH242105   6.473   2.216  12.854  0.0199 -0.3759 -0.5075
 6897TIP3    H142106   6.383   2.243  12.838 -0.0789 -0.5635 -0.2681
 6897TIP3    H242107   6.525   2.295  12.836 -0.3196  0.1460  0.7356
 6898TIP3   OH242108   6.701   6.202  13.321  0.7696 -0.1545  0.7486
 6898TIP3    H142109   6.717   6.171  13.231 -0.1891  0.2659  0.4287
 6898TIP3    H242110   6.677   6.122  13.369 -2.1258  0.0706 -0.1783
 6899TIP3   OH242111   0.790   4.884   0.160 -0.4741  0.2678  0.3592
 6899TIP3    H142112   0.782   4.788   0.160  0.1583  0.1881 -2.7538
 6899TIP3    H242113   0.868   4.901   0.212 -0.3914 -0.9243  0.6443
 6900TIP3   OH242114   4.363   0.063   3.759  0.1798 -0.0764 -0.0430
 6900TIP3    H142115   4.379  -0.028   3.734 -0.7040 -0.5541  1.0433
 6900TIP3    H242116   4.432   0.113   3.716  0.4328 -1.2168 -0.9778
 6901TIP3   OH242117   4.647   0.151   1.055  0.4033  0.6445 -0.0029
 6901TIP3    H142118   4.731   0.138   1.011 -0.6337 -2.0564 -1.3128
 6901TIP3    H242119   4.649   0.242   1.085  1.9037  2.0603 -4.0839
 6902TIP3   OH242120   4.888   2.972   4.915 -0.0792  0.6817 -0.3349
 6902TIP3    H142121   4.808   2.983   4.967 -0.3910  1.2003 -0.9247
 6902TIP3    H242122   4.956   3.011   4.969 -0.0592 -0.5702  0.5807
 6903TIP3   OH242123   4.135   2.720   2.907 -0.0838  0.0915 -0.2838
 6903TIP3    H142124   4.154   2.628   2.926 -1.6245 -0.1273  0.3240
 6903TIP3    H242125   4.075   2.717   2.833 -0.4331  0.5803 -0.0240
 6904TIP3   OH242126   6.203   1.965   3.282  0.4219 -0.0850  0.0229
 6904TIP3    H142127   6.167   1.991   3.197  1.3494  1.7903  0.1524
 6904TIP3    H242128   6.274   1.905   3.260 -0.8515 -1.4475 -0.3920
 6905TIP3   OH242129   4.339   6.673   6.219 -0.4312 -1.0205 -0.0399
 6905TIP3    H142130   4.293   6.661   6.136  0.2725 -0.6067 -0.4882
 6905TIP3    H242131   4.431   6.682   6.196 -0.3659  0.3305  0.6675
 6906TIP3   OH242132   5.790   2.746  16.347 -0.2930 -0.1617 -0.0873
 6906TIP3    H142133   5.817   2.671  16.400  1.3120  0.0940 -0.5204
 6906TIP3    H242134   5.797   2.820  16.406  1.0548  0.0582 -0.4992
 6907TIP3   OH242135   2.767   2.963   5.675  0.1212 -0.0425  0.0073
 6907TIP3    H142136   2.817   3.042   5.655  0.2213 -0.2099 -0.4184
 6907TIP3    H242137   2.825   2.912   5.732  0.3183 -0.1000 -0.2408
 6908TIP3   OH242138   2.802   1.488  12.373  0.2676  0.1523  0.5403
 6908TIP3    H142139   2.893   1.465  12.394  0.2352 -0.3372  0.1538
 6908TIP3    H242140   2.755   1.404  12.377 -0.8049  0.8255  3.9470
 6909TIP3   OH242141   3.361   5.699   1.421  0.7797  0.3375  0.1576
 6909TIP3    H142142   3.349   5.734   1.332  2.7738  2.4125  0.6513
 6909TIP3    H242143   3.384   5.607   1.407  0.3241  0.4523 -1.4497
 6910TIP3   OH242144   3.903   2.717   5.441  0.5143  0.7170  0.1087
 6910TIP3    H142145   3.927   2.809   5.432  1.0940  0.5749  0.1846
 6910TIP3    H242146   3.973   2.669   5.397 -0.4513  0.3681 -1.0793
 6911TIP3   OH242147   1.082   4.630  15.316 -0.4162  0.0228 -0.5154
 6911TIP3    H142148   1.094   4.548  15.362  0.2008  0.4321  0.0564
 6911TIP3    H242149   1.075   4.605  15.224  1.0153 -0.5543 -0.4776
 6912TIP3   OH242150   1.613   6.083   1.764 -0.2856 -0.3248  0.6154
 6912TIP3    H142151   1.550   6.032   1.815 -1.2843  0.2454 -0.0290
 6912TIP3    H242152   1.587   6.068   1.673 -0.8231  1.6190  0.4333
 6913TIP3   OH242153   1.057   0.808   3.096 -0.3912  0.2401  0.7098
 6913TIP3    H142154   1.037   0.875   3.031 -1.1857  0.3846  1.1059
 6913TIP3    H242155   1.153   0.801   3.093 -0.4525 -0.2029 -0.9120
 6914TIP3   OH242156   1.808   4.667   2.097  0.1608 -0.3233 -0.3285
 6914TIP3    H142157   1.839   4.750   2.134 -0.2635 -0.3373  0.0664
 6914TIP3    H242158   1.765   4.623   2.171 -1.8913  0.2325 -1.1560
 6915TIP3   OH242159   4.418   4.949   4.996 -0.0780  0.0053 -0.3319
 6915TIP3    H142160   4.412   4.913   4.907 -0.0383 -1.7088  0.3436
 6915TIP3    H242161   4.505   4.987   5.001 -0.5610  1.3061 -1.4573
 6916TIP3   OH242162   3.607   3.800   1.262 -0.5393  0.0388  0.0884
 6916TIP3    H142163   3.664   3.876   1.264 -0.4008  0.0042 -1.6750
 6916TIP3    H242164   3.537   3.824   1.200 -1.3632 -0.6572  0.7287
 6917TIP3   OH242165   6.065   2.816  13.721 -0.0764  0.1168 -0.2529
 6917TIP3    H142166   6.144   2.815  13.667  0.9482 -2.7960  1.1886
 6917TIP3    H242167   5.992   2.815  13.659  0.9987  2.5821 -1.5947
 6918TIP3   OH242168   6.755   2.825   3.546  0.4762 -0.6171  0.2012
 6918TIP3    H142169   6.770   2.739   3.584 -1.6644 -0.8347  0.6420
 6918TIP3    H242170   6.826   2.836   3.483  0.2599 -3.1055 -0.5398
 6919TIP3   OH242171   5.446   1.852  12.376 -0.0397 -0.5148 -0.4715
 6919TIP3    H142172   5.532   1.812  12.360  0.1465  0.6435 -2.5645
 6919TIP3    H242173   5.462   1.946  12.378 -0.8520 -0.3810  2.0417
 6920TIP3   OH242174   6.655   5.609   0.960  0.5018  0.6216 -0.5950
 6920TIP3    H142175   6.584   5.654   1.005  0.3791  0.7130 -0.8748
 6920TIP3    H242176   6.644   5.633   0.868  0.0463 -0.5176 -0.8403
 6921TIP3   OH242177   2.375   3.678   0.991  0.4836  0.6876  0.0345
 6921TIP3    H142178   2.425   3.734   1.050  0.1965 -0.2494  1.1899
 6921TIP3    H242179   2.284   3.693   1.015  0.4705 -1.2682  1.2703
 6922TIP3   OH242180   2.567   3.432  13.100  0.9688  0.2467 -0.0685
 6922TIP3    H142181   2.528   3.470  13.021  2.5548  2.4650  0.1391
 6922TIP3    H242182   2.598   3.346  13.072  1.0336  0.7831 -1.7322
 6923TIP3   OH242183   1.887   3.664   1.758 -1.3914 -1.1316  0.2561
 6923TIP3    H142184   1.935   3.683   1.838 -0.1062  0.3989 -0.8490
 6923TIP3    H242185   1.796   3.680   1.780 -0.8054  1.9436  0.6954
 6924TIP3   OH242186   0.151   5.771  12.452  0.4462 -0.7878  0.3124
 6924TIP3    H142187   0.058   5.775  12.472  0.1319 -1.0890 -1.0382
 6924TIP3    H242188   0.159   5.811  12.365  1.5427 -0.9787  0.3149
 6925TIP3   OH242189   6.080   6.011  15.853  0.0357 -0.1320 -0.8447
 6925TIP3    H142190   6.125   6.086  15.813  2.3394 -1.3022 -0.5227
 6925TIP3    H242191   5.994   6.045  15.877  1.3656  2.6948  0.1668
 6926TIP3   OH242192   2.911   1.777   2.543  0.0421 -0.3761 -0.4781
 6926TIP3    H142193   2.897   1.683   2.555 -0.8373 -0.3547 -1.2244
 6926TIP3    H242194   2.827   1.817   2.568  0.7270  0.2901  0.7600
 6927TIP3   OH242195   3.667   1.103  12.158  0.4975 -0.1629  0.0210
 6927TIP3    H142196   3.581   1.143  12.170  0.9448  0.6305  0.5915
 6927TIP3    H242197   3.674   1.087  12.064 -0.7039 -1.1897  0.1001
 6928TIP3   OH242198   1.581   4.028   0.662  0.2085  0.6381  0.0898
 6928TIP3    H142199   1.501   4.009   0.711  0.4862 -0.2944  0.2028
 6928TIP3    H242200   1.565   3.991   0.575  0.1268  1.3475 -0.1961
 6929TIP3   OH242201   2.737   0.257   4.237 -0.8012 -0.2384 -0.1449
 6929TIP3    H142202   2.813   0.316   4.244 -0.5913 -0.6685  1.2941
 6929TIP3    H242203   2.709   0.243   4.327 -2.0668 -0.7912 -0.6128
 6930TIP3   OH242204   6.775   4.125   2.995 -0.0114 -0.3039 -0.5974
 6930TIP3    H142205   6.800   4.214   2.971  0.2244  0.5094  2.5062
 6930TIP3    H242206   6.681   4.121   2.977  0.1077  0.3242 -1.3974
 6931TIP3   OH242207   4.007   3.192   5.908  0.0969  0.0356 -0.0115
 6931TIP3    H142208   3.968   3.234   5.985  1.0560 -2.5575  1.9665
 6931TIP3    H242209   4.092   3.234   5.898 -0.0040  0.3487  0.4202
 6932TIP3   OH242210   5.832   3.401  15.505 -0.2006  0.0829  0.0837
 6932TIP3    H142211   5.903   3.458  15.533 -0.2771 -0.4339  1.3949
 6932TIP3    H242212   5.835   3.402  15.409  1.2393  0.4703  0.1305
 6933TIP3   OH242213   1.014   2.549   2.129  0.0235 -0.5376  0.3601
 6933TIP3    H142214   0.977   2.564   2.042 -0.9149 -1.4345  0.5950
 6933TIP3    H242215   1.108   2.566   2.119 -0.1219 -0.3938 -0.7662
 6934TIP3   OH242216   3.584   0.518  13.785  0.3978 -0.0295  0.0476
 6934TIP3    H142217   3.500   0.563  13.786 -0.5250 -1.7128 -0.7150
 6934TIP3    H242218   3.648   0.588  13.801 -1.1606  1.1783  1.2433
 6935TIP3   OH242219   0.767   1.676  13.485 -0.4032  0.3173  0.4048
 6935TIP3    H142220   0.820   1.633  13.552  0.4782  1.5295  0.5099
 6935TIP3    H242221   0.741   1.606  13.425  2.1294 -0.1465 -0.1859
 6936TIP3   OH242222   1.388   1.238  14.509  0.1885 -0.7691  0.3515
 6936TIP3    H142223   1.294   1.231  14.493  0.2231 -3.3473  1.0219
 6936TIP3    H242224   1.411   1.154  14.550  2.6017  0.2073  1.0493
 6937TIP3   OH242225   3.868   5.319  15.599 -0.0425 -0.4807 -0.3080
 6937TIP3    H142226   3.859   5.233  15.639  0.5171 -0.3683  0.0698
 6937TIP3    H242227   3.826   5.310  15.514 -0.0449 -1.1103 -0.2430
 6938TIP3   OH242228   1.937   5.543   2.652 -0.1978  0.7569 -0.2985
 6938TIP3    H142229   2.030   5.560   2.637  0.1450  1.8970  2.7071
 6938TIP3    H242230   1.930   5.448   2.661  0.6699  0.6634 -0.6142
 6939TIP3   OH242231   2.402   3.300   4.937 -0.1337  0.4633  0.1643
 6939TIP3    H142232   2.337   3.231   4.939 -1.3108  1.5210 -0.3758
 6939TIP3    H242233   2.373   3.358   4.866  0.4980  1.8196  0.9932
 6940TIP3   OH242234   4.955   6.163   3.757 -0.5075  0.4893 -0.4493
 6940TIP3    H142235   4.932   6.098   3.690 -0.8774 -0.3607  0.5076
 6940TIP3    H242236   4.969   6.112   3.836  2.2372  1.2348 -0.3995
 6941TIP3   OH242237   6.111   4.187   1.359  0.3981  0.3616  0.4848
 6941TIP3    H142238   6.047   4.211   1.427 -1.6758  0.6576 -1.5152
 6941TIP3    H242239   6.104   4.256   1.294  0.4691 -1.2527 -1.2789
 6942TIP3   OH242240   3.442   1.509  13.390 -0.0214  0.5477 -0.6932
 6942TIP3    H142241   3.373   1.532  13.327 -1.3572  0.3339  0.6667
 6942TIP3    H242242   3.400   1.446  13.449  1.4160  0.2496  0.0263
 6943TIP3   OH242243   5.693   2.633   1.355 -0.0897 -0.4469 -0.1629
 6943TIP3    H142244   5.747   2.634   1.434  0.6941 -0.7298 -0.6973
 6943TIP3    H242245   5.745   2.679   1.289 -1.4841  1.3558 -0.0390
 6944TIP3   OH242246   6.420   6.386   5.560 -0.6687  0.5232  0.3372
 6944TIP3    H142247   6.382   6.457   5.508 -0.5835  1.1235  1.0958
 6944TIP3    H242248   6.365   6.382   5.639 -2.1827 -1.8583 -0.7841
 6945TIP3   OH242249   3.473   6.754  12.766 -0.2068 -0.4794  0.1204
 6945TIP3    H142250   3.555   6.727  12.809 -0.4476 -0.2723  0.7143
 6945TIP3    H242251   3.413   6.771  12.839 -0.1192  1.4752 -0.2220
 6946TIP3   OH242252   3.774   4.194  11.475  0.3797  0.5687  0.6199
 6946TIP3    H142253   3.710   4.216  11.407  1.3576  2.4491  0.2917
 6946TIP3    H242254   3.774   4.270  11.533  1.3226 -0.0061  1.3803
 6947TIP3   OH242255   3.930   1.779   3.267  0.1431 -0.1518 -0.2873
 6947TIP3    H142256   3.886   1.714   3.212  0.1203  0.0973 -0.5647
 6947TIP3    H242257   3.901   1.863   3.232  0.2890  0.0083 -0.0211
 6948TIP3   OH242258   6.579   2.012   0.452 -0.3199  0.3587 -0.4459
 6948TIP3    H142259   6.596   1.967   0.535 -0.3608  0.4078 -0.4108
 6948TIP3    H242260   6.645   1.977   0.392 -0.5456  0.0249 -0.5013
 6949TIP3   OH242261   5.964   2.277  16.831  0.1352  0.0911  0.0851
 6949TIP3    H142262   5.876   2.307  16.851  0.1152 -0.1636  0.3996
 6949TIP3    H242263   6.007   2.352  16.790 -0.8923 -0.4710 -2.0441
 6950TIP3   OH242264   1.546   4.795  16.622 -0.5896  0.1545 -0.3958
 6950TIP3    H142265   1.553   4.750  16.538 -1.6735  1.1485 -1.0336
 6950TIP3    H242266   1.524   4.885  16.599 -1.7250  0.2418  0.9671
 6951TIP3   OH242267   0.373   2.941   1.768 -0.3153 -0.8621 -0.3818
 6951TIP3    H142268   0.458   2.950   1.725  0.5337 -0.8960  1.2118
 6951TIP3    H242269   0.335   3.028   1.765  1.0286 -0.1603  1.3173
 6952TIP3   OH242270   2.781   4.084   3.620 -0.2746 -0.3298  0.2927
 6952TIP3    H142271   2.694   4.069   3.655 -0.2924  0.1584  0.4674
 6952TIP3    H242272   2.789   4.022   3.547 -0.3309 -1.1577  0.9843
 6953TIP3   OH242273   6.071   3.524  11.743  0.0344  0.3127 -0.3650
 6953TIP3    H142274   6.108   3.499  11.659  1.4254 -0.5538  0.5035
 6953TIP3    H242275   5.976   3.524  11.728  0.2657  0.1087 -1.9047
 6954TIP3   OH242276   5.808   1.868   1.810 -0.1866  0.0234 -0.5545
 6954TIP3    H142277   5.724   1.842   1.774 -1.4615  0.3955  2.0373
 6954TIP3    H242278   5.839   1.938   1.752 -1.9785  0.3592 -1.1211
 6955TIP3   OH242279   1.044   4.881  15.014  0.0869  0.1363 -0.2718
 6955TIP3    H142280   1.127   4.834  15.007 -0.4562 -0.8610 -0.1159
 6955TIP3    H242281   0.977   4.816  14.992 -0.8430  0.1352  2.2983
 6956TIP3   OH242282   6.424   0.723   1.867  0.1283 -0.3226  0.7173
 6956TIP3    H142283   6.506   0.709   1.915 -0.5738 -0.9811  1.7325
 6956TIP3    H242284   6.421   0.652   1.802  1.1247  0.6266 -0.3972
 6957TIP3   OH242285   6.119   6.121  16.562  0.1926 -0.3888  0.3921
 6957TIP3    H142286   6.144   6.034  16.594  0.7127  0.0011  1.0553
 6957TIP3    H242287   6.183   6.180  16.601  0.0408  0.2573 -0.3263
 6958TIP3   OH242288   4.995   4.003  12.599 -0.0182  0.0826  0.2596
 6958TIP3    H142289   4.979   4.068  12.530  1.1816 -1.1069 -1.1674
 6958TIP3    H242290   4.910   3.963  12.615 -0.1536 -0.2278 -1.1628
 6959TIP3   OH242291   2.467   5.923  16.380 -0.1128  0.0349 -0.0674
 6959TIP3    H142292   2.493   5.880  16.299 -3.1621 -2.3861  0.0925
 6959TIP3    H242293   2.487   5.858  16.448 -1.9915  0.0161  0.5151
 6960TIP3   OH242294   2.679   6.751   6.435  0.8207  0.2802 -0.0131
 6960TIP3    H142295   2.757   6.762   6.381  0.5096  0.4416 -0.4329
 6960TIP3    H242296   2.635   6.836   6.430 -0.0155 -0.1965 -0.7698
 6961TIP3   OH242297   3.636   4.854   3.440  0.2478 -0.4976  0.1028
 6961TIP3    H142298   3.703   4.831   3.376 -0.2576  1.6059 -1.2203
 6961TIP3    H242299   3.553   4.835   3.396 -0.0980  0.7528  0.1914
 6962TIP3   OH242300   5.983   0.549  12.476 -0.0636  0.1129 -0.6136
 6962TIP3    H142301   6.055   0.607  12.451 -0.9038  2.2283  1.6301
 6962TIP3    H242302   5.910   0.575  12.419 -0.6395  1.7867  0.8438
 6963TIP3   OH242303   3.923   3.915  12.771  0.2564  0.0638 -0.0529
 6963TIP3    H142304   3.863   3.862  12.720  1.5850 -0.8777 -0.6482
 6963TIP3    H242305   3.961   3.976  12.708 -0.2599  0.8394  0.3746
 6964TIP3   OH242306   0.401   6.578  14.951  0.2439 -0.0485  0.4702
 6964TIP3    H142307   0.349   6.574  14.871  0.5322 -1.8712  0.3671
 6964TIP3    H242308   0.427   6.670  14.958 -1.9212  0.6353 -0.1533
 6965TIP3   OH242309   4.227   1.199  12.986 -0.4069  0.4608  0.8526
 6965TIP3    H142310   4.195   1.225  12.900  0.6158  0.1333  0.3646
 6965TIP3    H242311   4.278   1.274  13.017 -0.1319  0.2897  0.8267
 6966TIP3   OH242312   2.574   1.549  14.422  0.0293 -0.3653 -0.2579
 6966TIP3    H142313   2.525   1.549  14.340  0.9916 -2.8329 -0.8760
 6966TIP3    H242314   2.520   1.498  14.482 -0.0579  0.3523  0.2821
 6967TIP3   OH242315   2.381   6.629  15.647  0.3511 -0.0290 -0.2531
 6967TIP3    H142316   2.422   6.543  15.632 -0.1855 -0.1798 -0.8518
 6967TIP3    H242317   2.454   6.686  15.670  0.7489 -0.5835 -0.1288
 6968TIP3   OH242318   6.506   5.183  13.410  0.4320  0.6954 -0.2960
 6968TIP3    H142319   6.521   5.249  13.343 -3.1149  1.7948 -0.0757
 6968TIP3    H242320   6.529   5.226  13.492 -2.6777  2.0116 -0.0656
 6969TIP3   OH242321   0.624   4.082  13.892 -0.2763  0.3815 -0.0154
 6969TIP3    H142322   0.634   4.151  13.957 -0.7684  1.2710 -0.8842
 6969TIP3    H242323   0.690   4.102  13.825 -1.9546  1.3172 -1.4080
 6970TIP3   OH242324   5.265   1.113   1.937 -0.5899  0.0300 -1.0483
 6970TIP3    H142325   5.187   1.105   1.883 -1.3193  1.5009 -0.2505
 6970TIP3    H242326   5.234   1.151   2.019  1.1205  1.7478 -1.1526
 6971TIP3   OH242327   1.691   4.486   5.397 -0.5064  0.6264 -0.1877
 6971TIP3    H142328   1.631   4.412   5.404 -1.9691  1.6925 -1.1693
 6971TIP3    H242329   1.635   4.560   5.373  0.8353  2.1806  1.3354
 6972TIP3   OH242330   3.829   0.125   3.101  0.3540  0.7080 -0.7439
 6972TIP3    H142331   3.834   0.105   3.007 -1.1690  0.0350 -0.7153
 6972TIP3    H242332   3.739   0.155   3.113  0.3416  0.1567  0.6099
 6973TIP3   OH242333   2.211   0.204   2.755 -0.5070 -0.4161  0.3898
 6973TIP3    H142334   2.216   0.263   2.679 -0.1094  1.1903  1.6575
 6973TIP3    H242335   2.139   0.145   2.733 -2.3428  1.8735 -0.0023
 6974TIP3   OH242336   5.107   3.122   5.392 -0.2456  0.1665 -0.2867
 6974TIP3    H142337   5.014   3.130   5.371 -0.1060  1.4051 -0.4788
 6974TIP3    H242338   5.109   3.107   5.487 -0.6174  1.1551 -0.1113
 6975TIP3   OH242339   2.311   1.068   6.391  0.0382 -0.3160  0.2936
 6975TIP3    H142340   2.365   1.014   6.449 -0.6855 -1.0653  0.2776
 6975TIP3    H242341   2.257   1.005   6.343  2.9286  0.0077 -3.6549
 6976TIP3   OH242342   1.841   5.019  14.741  0.2331 -0.0829 -0.1768
 6976TIP3    H142343   1.858   4.930  14.771  1.7449  0.2291 -0.0473
 6976TIP3    H242344   1.796   5.009  14.658 -1.0653 -0.9582  0.6103
 6977TIP3   OH242345   1.325   0.657  14.089  0.1469 -0.0458  0.0428
 6977TIP3    H142346   1.312   0.745  14.126 -0.7258 -0.2409  0.2203
 6977TIP3    H242347   1.261   0.651  14.018  1.0144 -0.1126 -0.7359
 6978TIP3   OH242348   0.055   3.586  14.900  0.3757 -0.2063  0.1252
 6978TIP3    H142349   0.150   3.587  14.911  0.4652 -0.1179 -0.6005
 6978TIP3    H242350   0.024   3.514  14.955  0.7885  0.2406  0.9409
 6979TIP3   OH242351   0.365   5.804   3.507  0.3827 -0.4087 -0.2782
 6979TIP3    H142352   0.455   5.806   3.539  0.4153 -1.3880 -0.2936
 6979TIP3    H242353   0.345   5.711   3.497 -0.6239 -0.1986 -0.2917
 6980TIP3   OH242354   2.273   1.857  11.518 -0.2215  0.5922  0.5953
 6980TIP3    H142355   2.232   1.935  11.481 -0.0248  0.2109 -0.4643
 6980TIP3    H242356   2.326   1.822  11.446  0.1029 -0.2186  1.2230
 6981TIP3   OH242357   3.389   2.591  14.489 -0.0867 -0.4433 -0.5332
 6981TIP3    H142358   3.418   2.621  14.403 -0.7481  1.0615 -0.2485
 6981TIP3    H242359   3.454   2.626  14.550  0.7672 -2.0843 -0.4579
 6982TIP3   OH242360   4.305   6.360   3.969  0.4292  0.2549  0.0829
 6982TIP3    H142361   4.283   6.282   4.019 -0.0954  1.1340  1.2675
 6982TIP3    H242362   4.342   6.420   4.033  1.9725  0.5359 -1.0471
 6983TIP3   OH242363   2.767   0.656   5.044 -0.2942 -0.4155 -0.3226
 6983TIP3    H142364   2.730   0.676   4.957 -0.3383 -0.3141 -0.2804
 6983TIP3    H242365   2.860   0.641   5.027 -0.5669 -1.8278 -0.6039
 6984TIP3   OH242366   6.750   3.457  12.614  0.6128  0.3232 -0.0106
 6984TIP3    H142367   6.741   3.550  12.636 -2.2738  0.4717 -1.5352
 6984TIP3    H242368   6.723   3.452  12.522  0.6918 -2.0326  0.0712
 6985TIP3   OH242369   2.551   4.803  14.925 -0.1887 -0.3214  0.7067
 6985TIP3    H142370   2.469   4.773  14.887 -1.1050  1.3204  1.3140
 6985TIP3    H242371   2.564   4.748  15.002 -0.1458 -1.2974  0.0151
 6986TIP3   OH242372   0.324   0.304  13.854 -0.5795 -0.7918 -0.3954
 6986TIP3    H142373   0.307   0.307  13.759  0.5011  1.7087 -0.5591
 6986TIP3    H242374   0.318   0.212  13.877 -0.6850 -1.4566 -2.9550
 6987TIP3   OH242375   6.477   4.639   6.809 -0.3849  0.4672  0.0140
 6987TIP3    H142376   6.404   4.661   6.752  0.3719  0.1976 -1.0690
 6987TIP3    H242377   6.496   4.720   6.856 -0.8519  0.7549 -0.2911
 6988TIP3   OH242378   2.675   0.610   6.564 -0.4525  0.2318 -0.2348
 6988TIP3    H142379   2.704   0.683   6.617 -0.7681  1.2565 -1.4586
 6988TIP3    H242380   2.611   0.647   6.504 -1.7428 -1.3333  0.1287
 6989TIP3   OH242381   4.774   1.966  12.291 -0.2375  0.5048 -0.1029
 6989TIP3    H142382   4.748   1.879  12.321  0.0207  1.1258  2.0314
 6989TIP3    H242383   4.870   1.964  12.293 -0.1613 -0.0700 -2.8370
 6990TIP3   OH242384   0.547   6.327   5.222  0.0595  0.4230 -0.6166
 6990TIP3    H142385   0.509   6.271   5.155  0.0286  1.3696 -1.4019
 6990TIP3    H242386   0.600   6.268   5.276 -0.0190 -0.3634 -1.3993
 6991TIP3   OH242387   1.985   5.155  12.622 -0.2146 -0.1966 -0.0810
 6991TIP3    H142388   1.929   5.231  12.633  1.1978  0.7412  0.8130
 6991TIP3    H242389   1.932   5.093  12.572 -2.5290  0.1006  1.9281
 6992TIP3   OH242390   3.031   1.323   1.476  0.6009  0.0825  0.1203
 6992TIP3    H142391   3.027   1.311   1.381 -0.1848  0.9954  0.0320
 6992TIP3    H242392   3.088   1.399   1.488  2.5307 -1.3779  0.5023
 6993TIP3   OH242393   4.034   0.884  12.593  0.3758  0.4230 -0.4306
 6993TIP3    H142394   4.068   0.951  12.534  1.1794 -0.1927 -0.6722
 6993TIP3    H242395   4.014   0.931  12.674  0.3004  1.0725 -0.8227
 6994TIP3   OH242396   6.049   6.057   3.595 -0.1112 -0.3836 -0.4876
 6994TIP3    H142397   6.087   6.123   3.537 -2.2941 -1.0918 -2.8216
 6994TIP3    H242398   5.958   6.084   3.606  0.5251  0.4490  3.7912
 6995TIP3   OH242399   2.765   1.636  13.330 -0.3101 -0.3173  0.4192
 6995TIP3    H142400   2.806   1.707  13.281 -0.2863 -0.3993  0.3230
 6995TIP3    H242401   2.683   1.619  13.283  0.6203 -1.7116 -0.7050
 6996TIP3   OH242402   5.479   4.250   4.825 -0.2800 -0.2396 -0.0016
 6996TIP3    H142403   5.396   4.257   4.777 -0.2773  0.2138  0.0533
 6996TIP3    H242404   5.524   4.333   4.806  0.5343 -0.8381 -0.7363
 6997TIP3   OH242405   0.652   4.895   3.035  0.0075  0.0594  0.5558
 6997TIP3    H142406   0.638   4.882   2.941 -2.0274 -0.1716  0.8843
 6997TIP3    H242407   0.634   4.810   3.075  0.5909  0.2318  1.2045
 6998TIP3   OH242408   4.123   6.160  14.544 -0.3534  0.0482  0.5180
 6998TIP3    H142409   4.039   6.196  14.516  0.5770  1.3165 -0.6823
 6998TIP3    H242410   4.187   6.194  14.482  1.1182 -0.6348  1.6013
 6999TIP3   OH242411   1.881   2.477  16.446 -0.3598  0.1386  0.0237
 6999TIP3    H142412   1.814   2.496  16.380 -0.1523  0.6351 -0.0490
 6999TIP3    H242413   1.922   2.562  16.463  1.1418 -0.3952 -0.8992
 7000TIP3   OH242414   2.713   0.666   2.052 -0.5637 -0.2420  0.0070
 7000TIP3    H142415   2.674   0.738   2.101 -1.1156 -1.3872  1.2836
 7000TIP3    H242416   2.690   0.683   1.961 -2.1751  0.2587  0.4926
 7001TIP3   OH242417   3.114   1.347  15.056  0.7503  0.2700  0.0657
 7001TIP3    H142418   3.135   1.267  15.007  2.2586  1.6186 -1.5564
 7001TIP3    H242419   3.042   1.386  15.007  0.2574  0.1119  0.6553
 7002TIP3   OH242420   0.346   3.115  14.022 -0.0490 -0.1934 -0.4103
 7002TIP3    H142421   0.312   3.092  13.935 -0.6704  1.1373 -0.5218
 7002TIP3    H242422   0.302   3.054  14.082 -0.7414 -0.1238 -0.8463
 7003TIP3   OH242423   0.635   0.925  14.378 -0.2747  0.2974  0.5306
 7003TIP3    H142424   0.604   0.939  14.468 -1.9991 -1.4211  0.2213
 7003TIP3    H242425   0.591   0.845  14.349 -0.6031  1.4217 -2.2293
 7004TIP3   OH242426   0.618   3.639  12.680  0.5097 -0.0552 -0.0686
 7004TIP3    H142427   0.593   3.573  12.744 -0.8056  0.5788  0.0961
 7004TIP3    H242428   0.544   3.642  12.619 -0.2777  2.5044  0.9381
 7005TIP3   OH242429   6.573   1.061  13.402 -0.1674  0.2746 -0.2114
 7005TIP3    H142430   6.568   1.073  13.497 -1.2288 -0.0074 -0.2343
 7005TIP3    H242431   6.661   1.093  13.379  0.0465  0.4624  0.8409
 7006TIP3   OH242432   2.070   0.405   4.636  0.5967  0.5156  0.4169
 7006TIP3    H142433   1.979   0.405   4.664  0.0684  0.8780 -1.2299
 7006TIP3    H242434   2.067   0.434   4.545  2.3387  0.3458  0.2862
 7007TIP3   OH242435   0.490   2.334  16.450  0.8321  0.0975  0.4781
 7007TIP3    H142436   0.412   2.389  16.439  1.0320  0.6243  1.6729
 7007TIP3    H242437   0.511   2.339  16.543  0.2333 -2.8908  0.8241
 7008TIP3   OH242438   1.394   2.289   0.335 -0.3784 -0.2915  0.2308
 7008TIP3    H142439   1.435   2.206   0.359  0.6701  0.2707  0.3982
 7008TIP3    H242440   1.300   2.269   0.331 -0.4474 -0.7933  3.2644
 7009TIP3   OH242441   4.289   3.617   5.133  0.3473  0.6874 -0.0458
 7009TIP3    H142442   4.258   3.647   5.047 -1.0873  0.0373  0.2419
 7009TIP3    H242443   4.229   3.659   5.195 -1.7220 -2.7229  0.3753
 7010TIP3   OH242444   2.067   2.271   1.776  0.0064  0.1647  0.1704
 7010TIP3    H142445   2.088   2.340   1.713 -2.5704  0.7371 -0.0841
 7010TIP3    H242446   2.129   2.285   1.848  2.3046  0.1300 -1.7286
 7011TIP3   OH242447   5.524   1.897   0.987 -0.1589 -0.3858 -0.1540
 7011TIP3    H142448   5.518   1.802   0.983  0.1467 -0.5553  2.3348
 7011TIP3    H242449   5.616   1.915   1.004 -0.4262  0.2699  0.6636
 7012TIP3   OH242450   5.098   0.723   3.818  0.1446  0.0557  0.3234
 7012TIP3    H142451   5.175   0.701   3.869 -1.4406 -1.6326  2.0843
 7012TIP3    H242452   5.082   0.646   3.764 -1.8377 -0.7763  1.9865
 7013TIP3   OH242453   6.619   2.343   0.075 -0.3606 -0.1775 -0.1860
 7013TIP3    H142454   6.705   2.353   0.116 -0.6080  0.9975  0.0601
 7013TIP3    H242455   6.578   2.430   0.082 -2.0534 -1.0159  0.8146
 7014TIP3   OH242456   2.697   6.343  13.444 -0.6983  0.2908 -0.2373
 7014TIP3    H142457   2.630   6.331  13.512 -1.5694 -0.9696 -1.2949
 7014TIP3    H242458   2.710   6.256  13.407  2.1986  0.3248  0.5345
 7015TIP3   OH242459   2.261   4.394  12.789 -0.1345 -0.0404  0.3758
 7015TIP3    H142460   2.352   4.422  12.793  0.1259 -0.9054  0.8500
 7015TIP3    H242461   2.255   4.338  12.712  0.0970 -1.1519  1.1390
 7016TIP3   OH242462   5.975   2.295   1.347  0.1960  0.2618  0.6859
 7016TIP3    H142463   5.881   2.297   1.362 -0.0261  2.1429 -0.6988
 7016TIP3    H242464   5.988   2.226   1.281 -0.4089  0.9431 -0.1634
 7017TIP3   OH242465   3.650   0.683  12.755  0.0743 -0.2407 -0.4994
 7017TIP3    H142466   3.668   0.760  12.701 -0.5951 -0.5731 -1.1973
 7017TIP3    H242467   3.729   0.630  12.748  1.9686  1.9537  2.7389
 7018TIP3   OH242468   6.246   5.723   0.666  0.2016 -0.1249 -0.3991
 7018TIP3    H142469   6.261   5.709   0.573 -1.8419 -2.1893 -0.4455
 7018TIP3    H242470   6.175   5.787   0.670  0.6832  0.4037 -0.2488
 7019TIP3   OH242471   2.670   3.780   2.020  0.7212  0.3689  0.2435
 7019TIP3    H142472   2.615   3.720   1.970  0.2366  0.9908  0.0235
 7019TIP3    H242473   2.674   3.742   2.108  0.2051  0.1470  0.1726
 7020TIP3   OH242474   1.521   6.309  15.204  0.2294  0.2899  0.3785
 7020TIP3    H142475   1.609   6.288  15.173 -0.5151 -1.9775 -0.3353
 7020TIP3    H242476   1.486   6.370  15.139  0.1376 -1.3153 -1.1062
 7021TIP3   OH242477   0.954   5.904   5.574 -0.4963  0.0424  0.1158
 7021TIP3    H142478   0.860   5.907   5.555 -0.1365 -0.5789 -1.8268
 7021TIP3    H242479   0.965   5.826   5.627 -1.0865  0.1456  0.3977
 7022TIP3   OH242480   0.150   6.569  12.501  0.5985  0.2036 -0.3651
 7022TIP3    H142481   0.191   6.506  12.442  0.3811 -0.3617  0.0810
 7022TIP3    H242482   0.069   6.526  12.529  0.0559  1.0111 -0.6839
 7023TIP3   OH242483   5.575   1.455  14.055  0.1628 -0.3620  0.1147
 7023TIP3    H142484   5.665   1.471  14.084  0.2607 -0.0745 -0.3309
 7023TIP3    H242485   5.526   1.438  14.135  0.1792  1.6292  0.5841
 7024TIP3   OH242486   2.704   1.003  15.024  0.0725  0.1109 -0.2536
 7024TIP3    H142487   2.717   1.096  15.005 -0.2065  0.2534  0.2641
 7024TIP3    H242488   2.740   0.990  15.112  0.1196 -0.2743 -0.3259
 7025TIP3   OH242489   0.346   6.369   2.078 -0.1690  0.5877 -0.6879
 7025TIP3    H142490   0.406   6.417   2.022  0.6933 -1.3843 -1.5149
 7025TIP3    H242491   0.266   6.358   2.025 -0.0788  0.4413 -0.7941
 7026TIP3   OH242492   6.311   1.819   6.272  0.6447  0.2316 -0.7035
 7026TIP3    H142493   6.405   1.811   6.283  0.5949 -0.5374 -0.8382
 7026TIP3    H242494   6.287   1.749   6.212 -0.0754  0.1276 -0.3087
 7027TIP3   OH242495   6.576   5.483  12.103  0.1929 -0.4804 -0.8893
 7027TIP3    H142496   6.542   5.573  12.103  0.9737 -0.1823 -1.0307
 7027TIP3    H242497   6.581   5.459  12.010  0.7920 -0.3598 -0.8900
 7028TIP3   OH242498   1.740   4.253   3.670  0.2759  0.4391  0.6849
 7028TIP3    H142499   1.657   4.217   3.638 -0.3638  2.0730  0.4789
 7028TIP3    H242500   1.778   4.297   3.594  1.1578  0.0271  0.8800
 7029TIP3   OH242501   1.149   5.494   3.782 -0.1973 -0.4756  0.2759
 7029TIP3    H142502   1.207   5.431   3.825 -0.8965 -1.2429  0.1142
 7029TIP3    H242503   1.208   5.561   3.748  0.5891 -1.1896  0.2077
 7030TIP3   OH242504   1.017   2.882  12.457 -0.3143 -0.2814  0.3123
 7030TIP3    H142505   1.087   2.938  12.492 -0.6330  0.4773 -0.2513
 7030TIP3    H242506   0.940   2.939  12.453 -1.0190 -1.1733  1.1168
 7031TIP3   OH242507   6.154   3.132   3.749 -0.2984 -0.0984  0.0238
 7031TIP3    H142508   6.136   3.069   3.680 -1.2129  1.1846 -0.9307
 7031TIP3    H242509   6.148   3.217   3.706 -1.2239  0.7357  1.7604
 7032TIP3   OH242510   4.434   5.199   3.712 -0.2236  0.6398  0.2825
 7032TIP3    H142511   4.365   5.199   3.779  0.3043 -3.2901  0.9529
 7032TIP3    H242512   4.386   5.201   3.629 -0.9671  2.5279  0.7306
 7033TIP3   OH242513   1.000   3.770  12.860  0.4165  0.1311 -0.9435
 7033TIP3    H142514   1.016   3.841  12.922 -1.0567  1.9555 -2.5689
 7033TIP3    H242515   1.015   3.690  12.910 -0.1451  1.5485  1.5753
 7034TIP3   OH242516   3.860   3.330   6.097 -0.4684  0.5843 -0.1660
 7034TIP3    H142517   3.831   3.417   6.070 -0.0214  0.4101 -1.2216
 7034TIP3    H242518   3.781   3.277   6.102 -1.0463  1.6047  2.6646
 7035TIP3   OH242519   6.527   2.628   4.952 -0.3289 -0.6172  0.2395
 7035TIP3    H142520   6.440   2.593   4.973 -0.5246  1.0078  2.2597
 7035TIP3    H242521   6.578   2.616   5.032  0.5701  0.6749 -0.1245
 7036TIP3   OH242522   4.507   4.175   1.300  0.5255  0.0764  1.0473
 7036TIP3    H142523   4.524   4.249   1.242 -0.4240 -0.3498  0.2256
 7036TIP3    H242524   4.470   4.108   1.244 -1.6428  0.1242  2.3749
 7037TIP3   OH242525   4.629   4.566   1.877  0.0916  0.4838  0.0050
 7037TIP3    H142526   4.562   4.523   1.825 -0.6411 -0.3950  1.6400
 7037TIP3    H242527   4.603   4.658   1.878 -1.2211  0.1143  0.8131
 7038TIP3   OH242528   3.251   6.340   0.794 -0.4013 -0.4755 -0.1451
 7038TIP3    H142529   3.308   6.264   0.783 -0.7495 -1.0263  1.7246
 7038TIP3    H242530   3.166   6.311   0.762 -0.8215 -1.2947  1.6055
 7039TIP3   OH242531   5.998   0.763  14.749  0.6062 -0.3768 -0.0215
 7039TIP3    H142532   6.045   0.683  14.724  0.5974 -0.0024 -1.2940
 7039TIP3    H242533   6.014   0.772  14.843  1.4850 -1.3023 -0.0700
 7040TIP3   OH242534   2.191   3.076  14.171  0.5431 -0.3932 -0.1197
 7040TIP3    H142535   2.197   3.171  14.176 -1.2560 -0.2741  0.1872
 7040TIP3    H242536   2.179   3.048  14.262  1.5888 -0.9716 -0.1463
 7041TIP3   OH242537   2.020   1.966  13.227  0.3359  0.1256  0.1819
 7041TIP3    H142538   2.099   1.943  13.179 -0.9699 -0.2761 -1.8292
 7041TIP3    H242539   2.020   1.908  13.303  2.0134  0.2065  0.2585
 7042TIP3   OH242540   0.466   3.639  15.260 -0.2795  0.3566 -0.1134
 7042TIP3    H142541   0.394   3.673  15.313  1.0033  1.9307  0.6492
 7042TIP3    H242542   0.449   3.545  15.255 -2.4855  0.7156 -0.1070
 7043TIP3   OH242543   2.699   6.299   5.439  0.2926 -0.2595 -0.5226
 7043TIP3    H142544   2.779   6.246   5.436  0.8639  0.6252 -1.8796
 7043TIP3    H242545   2.628   6.238   5.422  0.7458 -0.9509  0.0700
 7044TIP3   OH242546   4.719   5.814   4.267 -0.6895 -0.3776  0.8834
 7044TIP3    H142547   4.791   5.874   4.285 -1.6141  0.7077  1.0022
 7044TIP3    H242548   4.731   5.742   4.329  0.6173 -0.4869  0.5134
 7045TIP3   OH242549   2.600   3.413   4.726 -0.4084 -0.1328  0.4353
 7045TIP3    H142550   2.554   3.452   4.651 -0.3877  0.1269  0.5577
 7045TIP3    H242551   2.612   3.321   4.701 -1.6098 -0.3732  0.7022
 7046TIP3   OH242552   6.221   4.181  16.957  0.7744 -0.5254  0.5007
 7046TIP3    H142553   6.192   4.232  17.033  1.8286 -1.3725  1.4961
 7046TIP3    H242554   6.167   4.103  16.958  1.6134 -1.1112  1.1175
 7047TIP3   OH242555   3.980   0.626  12.760 -0.2538  0.2311  0.4671
 7047TIP3    H142556   3.998   0.705  12.709  0.0767  0.4167  0.8680
 7047TIP3    H242557   4.039   0.560  12.723 -1.5280 -0.2198 -0.8047
 7048TIP3   OH242558   4.336   0.450  16.102 -0.4930  0.1319  0.7181
 7048TIP3    H142559   4.281   0.371  16.105 -1.0615  0.4471 -0.8936
 7048TIP3    H242560   4.343   0.471  16.009 -2.7711  3.6859  1.2581
 7049TIP3   OH242561   0.963   5.245   3.600 -0.3028 -0.1026 -0.1148
 7049TIP3    H142562   1.004   5.172   3.554  1.6394  0.5726  0.5104
 7049TIP3    H242563   0.986   5.232   3.692 -2.3879 -0.2698  0.4266
 7050TIP3   OH242564   0.673   3.546  14.047 -0.5700  0.0033  0.2703
 7050TIP3    H142565   0.579   3.550  14.066 -0.3381  0.1108  1.4103
 7050TIP3    H242566   0.700   3.637  14.041 -0.2793 -0.0066  1.2858
 7051TIP3   OH242567   2.271   4.522   3.741 -0.1489 -0.5270 -0.0197
 7051TIP3    H142568   2.286   4.607   3.781 -0.5343 -1.3645  1.9323
 7051TIP3    H242569   2.316   4.527   3.656  0.4984  1.3223  0.4202
 7052TIP3   OH242570   4.277   6.187   3.181  0.5326 -0.3949 -0.0672
 7052TIP3    H142571   4.248   6.224   3.098 -0.4365 -0.2330  0.3425
 7052TIP3    H242572   4.352   6.132   3.158  2.3406  2.2208 -0.6267
 7053TIP3   OH242573   1.928   6.585  14.132 -0.1283 -0.0802 -0.0572
 7053TIP3    H142574   1.894   6.663  14.088 -0.3036  1.3821  2.6102
 7053TIP3    H242575   1.851   6.539  14.164  0.1413  1.3137  2.7515
 7054TIP3   OH242576   3.402   4.059  11.067 -0.5414 -0.4581 -0.5329
 7054TIP3    H142577   3.354   4.015  10.996 -1.2869 -0.2688 -0.1461
 7054TIP3    H242578   3.483   4.088  11.026 -1.1931  0.1112 -1.4521
 7055TIP3   OH242579   3.500   5.575   5.610  0.4061 -0.0676 -0.1680
 7055TIP3    H142580   3.515   5.670   5.606  1.6763 -0.2596 -0.2419
 7055TIP3    H242581   3.558   5.545   5.680  0.8371 -0.9357 -0.8797
 7056TIP3   OH242582   6.744   6.646  14.329 -0.3427 -0.1589  0.2456
 7056TIP3    H142583   6.729   6.715  14.265 -1.1753 -1.2785 -0.7853
 7056TIP3    H242584   6.656   6.619  14.356 -0.0180 -0.6612  0.8074
 7057TIP3   OH242585   6.570   6.145   4.913  0.2885 -0.2452  0.2127
 7057TIP3    H142586   6.638   6.209   4.892  1.8012 -1.7283  0.3687
 7057TIP3    H242587   6.576   6.134   5.008 -1.0586  0.5480  0.4007
 7058TIP3   OH242588   3.662   6.734  12.398 -0.6571 -0.1170 -0.0100
 7058TIP3    H142589   3.703   6.694  12.321 -0.5391 -1.8008  0.9034
 7058TIP3    H242590   3.736   6.754  12.456 -0.7512  1.0726 -0.2976
 7059TIP3   OH242591   2.178   1.604  13.780 -0.4337  0.1702 -0.1799
 7059TIP3    H142592   2.124   1.681  13.799  0.5157  0.9145 -0.4373
 7059TIP3    H242593   2.262   1.623  13.823  0.2362 -0.1298 -1.3247
 7060TIP3   OH242594   4.681   6.436  10.571  0.9552  0.6416  0.1541
 7060TIP3    H142595   4.606   6.416  10.626 -0.7651  0.8586 -2.0672
 7060TIP3    H242596   4.723   6.350  10.557  0.3809  0.3255  0.3467
 7061TIP3   OH242597   6.488   3.041   1.497  0.0713  0.1500 -0.1368
 7061TIP3    H142598   6.564   2.988   1.521 -0.3804 -0.3417  0.2324
 7061TIP3    H242599   6.455   3.074   1.581 -0.3061  0.1050 -0.2674
 7062TIP3   OH242600   1.488   5.089  16.599 -0.0513 -0.2428  0.6005
 7062TIP3    H142601   1.476   5.184  16.594  0.5159 -0.1612  0.6687
 7062TIP3    H242602   1.577   5.079  16.635  0.0311 -0.8007  0.2368
 7063TIP3   OH242603   0.533   1.121   2.632  0.0190 -0.6380  0.6993
 7063TIP3    H142604   0.511   1.031   2.609  0.3087 -0.3024 -0.9459
 7063TIP3    H242605   0.454   1.156   2.672 -0.8057 -0.9538 -0.6595
 7064TIP3   OH242606   2.937   5.373   1.845 -0.0424 -0.6420  0.0001
 7064TIP3    H142607   2.923   5.376   1.750  1.6257 -0.5366 -0.2611
 7064TIP3    H242608   2.945   5.464   1.871 -0.2789 -0.6815  0.2145
 7065TIP3   OH242609   2.736   1.155   3.694 -0.5529 -0.0376  0.2863
 7065TIP3    H142610   2.788   1.192   3.623  0.0378 -0.2444  0.6031
 7065TIP3    H242611   2.722   1.064   3.669 -1.5146  0.2444 -0.2178
 7066TIP3   OH242612   1.322   2.991   4.056 -0.0710 -0.0795  0.3027
 7066TIP3    H142613   1.237   3.001   4.098  0.1954  0.5525  0.7011
 7066TIP3    H242614   1.342   3.077   4.019  0.9309  0.1321  1.2655
 7067TIP3   OH242615   4.196   4.194   1.423  0.2453 -0.3077  0.1865
 7067TIP3    H142616   4.142   4.240   1.487  0.0444 -0.9646  0.4822
 7067TIP3    H242617   4.286   4.216   1.448  0.1338  0.7506 -0.2838
 7068TIP3   OH242618   4.287   0.036  16.060  0.3322  0.2841 -0.0657
 7068TIP3    H142619   4.377   0.006  16.072 -0.0930 -1.6418 -1.5090
 7068TIP3    H242620   4.262   0.002  15.974 -2.1705 -0.2330  0.8430
 7069TIP3   OH242621   2.352   3.481   2.754  0.1172 -0.4691  0.1517
 7069TIP3    H142622   2.375   3.544   2.823  0.9228 -0.9798  0.3609
 7069TIP3    H242623   2.385   3.521   2.674  1.5329 -1.0596  0.4110
 7070TIP3   OH242624   4.046   3.647  10.673  0.2815 -0.0087 -0.0768
 7070TIP3    H142625   4.094   3.687  10.746 -0.5696  2.2419 -0.7117
 7070TIP3    H242626   4.075   3.695  10.596  1.7235 -2.8539 -1.3924
 7071TIP3   OH242627   0.335   5.472  10.926  0.1936  0.8786 -0.1170
 7071TIP3    H142628   0.255   5.440  10.969 -1.1452  0.5831 -2.6767
 7071TIP3    H242629   0.402   5.409  10.950 -0.3307  1.1151  2.0759
 7072TIP3   OH242630   2.002   1.190   5.034  0.0357  0.6426  0.0166
 7072TIP3    H142631   2.078   1.168   4.980 -0.1292  0.8143 -0.2850
 7072TIP3    H242632   1.970   1.105   5.064  0.2328  0.5573 -0.0096
 7073TIP3   OH242633   2.333   4.796  13.245 -0.4740 -0.6666 -0.0368
 7073TIP3    H142634   2.293   4.709  13.246  1.8174 -1.7512  1.3696
 7073TIP3    H242635   2.281   4.848  13.306 -1.5399 -1.1961 -0.4950
 7074TIP3   OH242636   4.721   6.577  11.542 -0.1390  0.2893  0.0405
 7074TIP3    H142637   4.722   6.514  11.470  0.7734 -0.2777  0.5488
 7074TIP3    H242638   4.639   6.559  11.589 -0.0269 -0.3123  0.0080
 7075TIP3   OH242639   1.219   5.070  13.458 -0.1410 -0.5348 -0.7333
 7075TIP3    H142640   1.130   5.052  13.426 -0.6015  1.5443 -0.7569
 7075TIP3    H242641   1.217   5.163  13.481  1.3473 -1.0234  1.5706
 7076TIP3   OH242642   3.253   4.080  15.661  0.3275 -0.1499 -0.1070
 7076TIP3    H142643   3.286   4.038  15.582  2.6362 -0.6342  1.0648
 7076TIP3    H242644   3.160   4.056  15.664  0.6236 -1.6112 -1.7172
 7077TIP3   OH242645   4.870   3.992   5.569 -0.5475  0.0649  0.0990
 7077TIP3    H142646   4.781   3.976   5.601 -1.0099 -0.5152 -1.4433
 7077TIP3    H242647   4.898   3.909   5.532  1.3759 -0.2938  2.2469
 7078TIP3   OH242648   6.737   6.772   0.635  0.0008 -0.3935 -0.3244
 7078TIP3    H142649   6.727   6.683   0.601 -1.9423 -0.1540 -0.4554
 7078TIP3    H242650   6.652   6.813   0.620  0.7806  1.4024 -0.0009
 7079TIP3   OH242651   1.428   4.559  15.977 -0.4962 -0.4340  0.0333
 7079TIP3    H142652   1.369   4.485  15.994 -1.0779 -0.1910 -0.9140
 7079TIP3    H242653   1.512   4.518  15.957 -0.5417 -0.8054  0.5846
 7080TIP3   OH242654   2.790   4.982  14.749  0.1031  0.4043 -0.1873
 7080TIP3    H142655   2.743   5.059  14.718 -0.6334 -1.0171 -2.7792
 7080TIP3    H242656   2.726   4.912  14.747  0.2835  0.0436  3.9034
 7081TIP3   OH242657   6.539   4.628  17.070  0.1040  0.3541  0.0868
 7081TIP3    H142658   6.538   4.586  17.155  0.9794  1.3114  0.5764
 7081TIP3    H242659   6.621   4.676  17.067  0.2315  0.0879 -1.4157
 7082TIP3   OH242660   2.233   5.603  11.633 -0.0227  0.3915 -0.9633
 7082TIP3    H142661   2.215   5.685  11.679  0.0446 -0.2395  0.2050
 7082TIP3    H242662   2.318   5.575  11.666 -1.2087 -1.5024  0.6860
 7083TIP3   OH242663   2.407   3.311   3.566 -0.4109  0.1230  0.2952
 7083TIP3    H142664   2.417   3.253   3.491  0.6763  0.2840  0.3092
 7083TIP3    H242665   2.321   3.290   3.602 -0.1678 -1.2163  0.0889
 7084TIP3   OH242666   0.964   4.847  14.534 -0.1069  0.6058 -0.7035
 7084TIP3    H142667   1.054   4.816  14.539 -1.0025 -1.8196  1.3203
 7084TIP3    H242668   0.946   4.885  14.620 -1.3148  0.1922 -0.7570
 7085TIP3   OH242669   5.074   3.599  15.387  0.6692  0.8787  0.3342
 7085TIP3    H142670   5.083   3.654  15.465  0.9160  0.6119  0.4936
 7085TIP3    H242671   5.038   3.658  15.321  1.3199  1.3395  0.3834
 7086TIP3   OH242672   1.533   3.487   4.305 -0.4725 -0.3780  0.4753
 7086TIP3    H142673   1.539   3.581   4.318  0.6923 -0.3112 -0.4647
 7086TIP3    H242674   1.554   3.450   4.391  5.0039  0.1180 -0.4740
 7087TIP3   OH242675   4.737   5.345  13.579 -0.3128  0.3901  0.4353
 7087TIP3    H142676   4.716   5.292  13.502  3.2198 -1.4968  0.6867
 7087TIP3    H242677   4.728   5.435  13.549 -1.5775 -0.3182 -1.4218
 7088TIP3   OH242678   4.381   2.965   4.795 -0.4228  0.4160 -0.0818
 7088TIP3    H142679   4.296   2.957   4.754 -0.8178 -0.6612  0.9155
 7088TIP3    H242680   4.437   3.003   4.728 -1.6180  0.8638 -0.8323
 7089TIP3   OH242681   2.677   2.561  11.062 -0.2435  0.5185  0.6222
 7089TIP3    H142682   2.592   2.567  11.107 -1.4405 -0.7386 -1.4010
 7089TIP3    H242683   2.678   2.636  11.002  0.4673  1.0319  1.2674
 7090TIP3   OH242684   2.982   4.982  12.175 -0.1113  0.3730 -0.2053
 7090TIP3    H142685   2.938   5.057  12.214 -1.9978 -0.2712 -1.0581
 7090TIP3    H242686   3.052   5.020  12.122 -0.7006  1.4952 -0.1789
 7091TIP3   OH242687   6.416   2.965   0.517 -0.2628 -0.0227  0.2700
 7091TIP3    H142688   6.431   3.059   0.510 -0.1097 -0.0570  0.1392
 7091TIP3    H242689   6.503   2.927   0.529 -0.1305 -0.3040 -1.4495
 7092TIP3   OH242690   4.877   4.827  13.976  0.0057 -0.3207 -0.0650
 7092TIP3    H142691   4.837   4.910  14.002 -2.0329 -1.2853  0.0222
 7092TIP3    H242692   4.969   4.847  13.964 -0.6590  2.2341 -1.1880
 7093TIP3   OH242693   0.363   3.222  15.719  0.7829  0.6203  0.2790
 7093TIP3    H142694   0.330   3.230  15.630 -0.9249 -1.6298  0.6577
 7093TIP3    H242695   0.320   3.143  15.754  1.6514  1.2670  2.9700
 7094TIP3   OH242696   1.352   4.204  13.009  0.9841  0.1340 -0.2987
 7094TIP3    H142697   1.432   4.154  12.992  1.3390  0.9399 -1.0860
 7094TIP3    H242698   1.337   4.195  13.103  1.9742 -0.0669 -0.1514
 7095TIP3   OH242699   2.282   1.196  12.073 -0.0845  0.2384 -0.1852
 7095TIP3    H142700   2.343   1.124  12.055  1.2127  1.3368 -0.2266
 7095TIP3    H242701   2.280   1.245  11.991  0.4311  1.2692  0.4132
 7096TIP3   OH242702   5.692   3.892   0.303  0.3908  0.0801 -0.1923
 7096TIP3    H142703   5.777   3.867   0.265 -1.0487 -1.5529 -2.4742
 7096TIP3    H242704   5.641   3.924   0.228 -1.8717 -1.3561  0.6977
 7097TIP3   OH242705   5.233   5.745   2.181  0.2500 -0.4048 -0.3453
 7097TIP3    H142706   5.205   5.797   2.106 -0.5686 -0.7166 -0.2583
 7097TIP3    H242707   5.279   5.670   2.144 -0.6174 -0.8328 -0.5529
 7098TIP3   OH242708   6.459   6.643  13.420  0.4711 -0.9135  0.2662
 7098TIP3    H142709   6.476   6.569  13.362  0.2791  0.0159 -0.9862
 7098TIP3    H242710   6.449   6.603  13.507 -2.3338 -2.6365 -0.7857
 7099TIP3   OH242711   0.507   0.137  13.611  0.3035  0.1898  0.9861
 7099TIP3    H142712   0.422   0.098  13.630 -0.5668  0.5963 -1.7787
 7099TIP3    H242713   0.493   0.231  13.621  0.5056  0.2317  0.8811
 7100TIP3   OH242714   3.911   0.002  14.822 -0.1602 -0.3141 -0.4353
 7100TIP3    H142715   3.951   0.072  14.771 -0.4329 -1.1357 -1.7851
 7100TIP3    H242716   3.978  -0.023  14.886  0.6212 -0.1095 -1.1810
 7101TIP3   OH242717   5.078   4.448  13.874 -0.0335 -0.1596  0.4078
 7101TIP3    H142718   5.160   4.452  13.824 -0.3847 -1.4550 -0.2858
 7101TIP3    H242719   5.022   4.513  13.833  0.6673  0.7812  0.9248
 7102TIP3   OH242720   4.893   0.868  10.903  0.3741 -0.8991  0.1888
 7102TIP3    H142721   4.898   0.882  10.809 -1.3411 -0.9549  0.0804
 7102TIP3    H242722   4.901   0.956  10.940 -1.2357 -0.6086 -0.1174
 7103TIP3   OH242723   3.092   6.527   5.207 -0.7488  0.7391 -0.0352
 7103TIP3    H142724   3.117   6.467   5.278 -1.2456 -0.3741 -0.7741
 7103TIP3    H242725   3.164   6.590   5.202  1.4024 -1.7122 -1.3626
 7104TIP3   OH242726   2.805   1.430  12.699  0.4268 -0.3350  0.3991
 7104TIP3    H142727   2.813   1.346  12.654 -0.4614 -0.4155  0.3687
 7104TIP3    H242728   2.889   1.474  12.684  0.6565 -0.9462 -0.1410
 7105TIP3   OH242729   1.751   5.588  14.565 -0.5255 -0.4366 -0.5005
 7105TIP3    H142730   1.753   5.512  14.507 -0.4378 -0.8631  0.0568
 7105TIP3    H242731   1.733   5.662  14.507  1.5200 -0.5805 -1.3613
 7106TIP3   OH242732   3.222   4.336   6.319  0.0726 -0.5157  0.4739
 7106TIP3    H142733   3.232   4.400   6.389  0.9206 -1.4430  1.2293
 7106TIP3    H242734   3.312   4.311   6.296 -0.1880 -0.0193 -1.1440
 7107TIP3   OH242735   0.154   4.510  12.031 -0.7702 -0.1939 -0.2120
 7107TIP3    H142736   0.104   4.541  12.107 -0.1402 -0.2178  0.2119
 7107TIP3    H242737   0.111   4.428  12.007 -1.3877  0.1541 -0.2950
 7108TIP3   OH242738   6.470   3.133   5.321 -0.2505  0.0374 -0.1468
 7108TIP3    H142739   6.513   3.048   5.332 -0.2843 -0.0730 -0.8582
 7108TIP3    H242740   6.389   3.113   5.274 -0.2187  0.4716 -0.3869
 7109TIP3   OH242741   1.648   5.199  15.373  0.2220  0.9133 -0.0102
 7109TIP3    H142742   1.708   5.173  15.303 -0.6577  1.2689 -0.9193
 7109TIP3    H242743   1.622   5.288  15.350  0.0431  1.0876  0.8616
 7110TIP3   OH242744   6.429   5.715   5.350  0.7853 -1.0685 -0.2999
 7110TIP3    H142745   6.386   5.630   5.340  0.9459 -1.2578  0.5758
 7110TIP3    H242746   6.431   5.752   5.262 -1.8425 -0.7244 -0.2643
 7111TIP3   OH242747   1.989   3.947  15.257  0.2137  0.5364 -0.1543
 7111TIP3    H142748   1.913   3.909  15.214  2.1878 -1.8653 -1.5959
 7111TIP3    H242749   1.988   3.911  15.346  0.1847 -0.2497 -0.4728
 7112TIP3   OH242750   3.913   0.886  10.449  0.4158  0.0681 -0.3681
 7112TIP3    H142751   3.854   0.908  10.377  1.6579  2.4014 -0.7446
 7112TIP3    H242752   3.990   0.849  10.406  1.2277  1.6195 -0.2713
 7113TIP3   OH242753   2.289   0.397   1.737  0.5744 -0.4487 -0.2023
 7113TIP3    H142754   2.263   0.399   1.645  0.1589  2.3159 -0.0617
 7113TIP3    H242755   2.279   0.305   1.763 -1.1429 -0.9156 -2.3955
 7114TIP3   OH242756   6.379   2.336  15.416  0.3489 -0.3201 -0.3646
 7114TIP3    H142757   6.303   2.306  15.367  0.0427  0.2361 -0.2316
 7114TIP3    H242758   6.356   2.424  15.444  1.1379 -0.0578 -0.5322
 7115TIP3   OH242759   2.909   2.154   3.462  0.0222 -0.4023  0.4317
 7115TIP3    H142760   2.821   2.151   3.498  0.1208  1.1128  0.8493
 7115TIP3    H242761   2.942   2.241   3.487  0.9308 -0.2139 -1.3536
 7116TIP3   OH242762   0.950   5.684  11.973  0.0863  0.9162  0.1584
 7116TIP3    H142763   1.017   5.642  11.919 -1.0673 -0.3820 -0.2846
 7116TIP3    H242764   0.975   5.664  12.063 -0.6804 -1.0875 -0.0614
 7117TIP3   OH242765   3.334   1.013  12.391  0.1023  0.2208  0.2467
 7117TIP3    H142766   3.367   1.092  12.347  1.2847 -0.9294 -1.0008
 7117TIP3    H242767   3.389   0.942  12.357 -1.1231 -1.1864  1.1331
 7118TIP3   OH242768   6.663   5.185  14.384  0.3086  0.0107 -0.3358
 7118TIP3    H142769   6.717   5.222  14.313  1.5092 -1.4007 -0.1894
 7118TIP3    H242770   6.626   5.105  14.346 -1.5362  0.8403 -0.3519
 7119TIP3   OH242771   2.326   6.116  15.206 -0.1533 -0.0368 -0.8841
 7119TIP3    H142772   2.334   6.158  15.121  2.9816 -1.0602 -1.1448
 7119TIP3    H242773   2.310   6.188  15.267 -1.2724  0.8125 -2.1641
 7120TIP3   OH242774   1.016   4.715  16.702 -0.5368 -0.7893  0.3956
 7120TIP3    H142775   0.953   4.784  16.723  0.1640 -0.3710  1.1627
 7120TIP3    H242776   1.077   4.714  16.776  0.1672 -1.4043 -0.1765
 7121TIP3   OH242777   0.393   3.679   1.891  1.1750  0.4122 -0.4402
 7121TIP3    H142778   0.417   3.758   1.843  0.1386  0.1634 -1.4138
 7121TIP3    H242779   0.462   3.616   1.869  1.9602  1.0223  0.2775
 7122TIP3   OH242780   4.145   3.001   5.188 -0.1308  0.0379  0.1339
 7122TIP3    H142781   4.166   2.951   5.110 -1.0265  0.9432 -0.7077
 7122TIP3    H242782   4.220   3.059   5.201  1.1777 -1.8872  1.4537
 7123TIP3   OH242783   3.306   5.488  13.847  0.5653  0.1071 -0.2363
 7123TIP3    H142784   3.318   5.438  13.928  0.0535  0.9136  0.3399
 7123TIP3    H242785   3.275   5.573  13.876  0.4152  0.4127 -1.2881
 7124TIP3   OH242786   0.451   3.432  12.922  0.6075 -0.3198 -0.9575
 7124TIP3    H142787   0.498   3.424  13.005  0.7141 -0.0900 -0.9946
 7124TIP3    H242788   0.370   3.479  12.945  1.9864  2.4213 -1.4722
 7125TIP3   OH242789   2.243   6.774   1.529 -0.3031 -0.0221  0.8570
 7125TIP3    H142790   2.244   6.694   1.477 -0.5491 -0.2102  1.1450
 7125TIP3    H242791   2.315   6.826   1.494  0.8420 -1.0170  1.6816
 7126TIP3   OH242792   0.377   2.317   1.548 -0.7465  0.1678 -0.2196
 7126TIP3    H142793   0.433   2.241   1.531 -1.5705  0.0396 -2.5024
 7126TIP3    H242794   0.288   2.284   1.537 -1.2762  0.5695  2.5947
 7127TIP3   OH242795   5.707   2.075  13.289  0.0142  0.1649  0.0478
 7127TIP3    H142796   5.703   1.979  13.286 -0.2908  0.1640  0.4132
 7127TIP3    H242797   5.632   2.104  13.238 -1.0325  0.1918  1.5675
 7128TIP3   OH242798   4.922   4.205   0.572  0.1932 -0.5334 -0.0738
 7128TIP3    H142799   4.835   4.181   0.606  0.0821  0.2776  0.2221
 7128TIP3    H242800   4.966   4.121   0.558 -0.2332 -0.9128  0.8408
 7129TIP3   OH242801   0.121   5.039  16.000  0.1370  0.0552  0.7019
 7129TIP3    H142802   0.120   5.008  15.910  0.6459  1.4512  0.2021
 7129TIP3    H242803   0.081   4.968  16.050 -1.6243 -0.0716 -0.8321
 7130TIP3   OH242804   3.937   1.114  12.233 -0.2970  0.0043  0.0154
 7130TIP3    H142805   3.871   1.045  12.240  0.0479 -0.1465  2.0755
 7130TIP3    H242806   3.920   1.171  12.308 -0.2974  1.9265 -1.4142
 7131TIP3   OH242807   1.549   3.366  11.581  0.4814 -0.2264  0.5579
 7131TIP3    H142808   1.524   3.424  11.652 -2.6151  0.3176 -0.9087
 7131TIP3    H242809   1.487   3.293  11.586  2.0873 -1.6564  0.2071
 7132TIP3   OH242810   2.625   0.946  12.808  0.4651 -0.2485 -0.4361
 7132TIP3    H142811   2.703   0.943  12.862  1.1267  3.5359 -1.0131
 7132TIP3    H242812   2.552   0.935  12.870  1.2918  1.6420  0.9036
 7133TIP3   OH242813   0.444   4.834  15.373 -0.0017  0.2701 -0.2900
 7133TIP3    H142814   0.518   4.842  15.434  0.3718  0.7935 -0.8000
 7133TIP3    H242815   0.432   4.740  15.362  0.8037  0.1784 -0.4478
 7134TIP3   OH242816   2.532   4.961  15.983  0.2659  0.7795 -0.0079
 7134TIP3    H142817   2.507   5.043  16.025  0.2533  0.4451  0.6364
 7134TIP3    H242818   2.470   4.896  16.017  1.2248  0.1971  0.6547
 7135TIP3   OH242819   0.336   4.176   4.444 -0.2773 -0.1266 -0.1977
 7135TIP3    H142820   0.416   4.189   4.394 -0.1131  0.6586  0.2601
 7135TIP3    H242821   0.286   4.113   4.393  0.5253 -0.4403 -0.6093
 7136TIP3   OH242822   2.394   1.511  11.673 -0.8322  0.4310 -0.0286
 7136TIP3    H142823   2.346   1.575  11.726 -2.1127  0.1822 -0.8627
 7136TIP3    H242824   2.337   1.434  11.671  0.1492 -0.2980 -0.0509
 7137TIP3   OH242825   2.718   4.260  11.460 -0.2250 -0.4113 -0.4936
 7137TIP3    H142826   2.696   4.341  11.506  1.9121  1.7702 -3.1239
 7137TIP3    H242827   2.814   4.255  11.464 -0.1589 -1.4451 -2.5485
 7138TIP3   OH242828   4.972   3.599  13.399 -0.0904  0.3449 -0.3795
 7138TIP3    H142829   4.987   3.546  13.476 -3.7931 -0.4525 -0.1126
 7138TIP3    H242830   4.898   3.656  13.423  0.0886  1.5687 -2.5920
 7139TIP3   OH242831   5.080   2.226  14.690 -0.5716  0.1259  0.3032
 7139TIP3    H142832   5.150   2.219  14.754 -0.6635  0.0765  0.3982
 7139TIP3    H242833   5.119   2.196  14.608 -0.9948 -1.5880  0.7229
 7140TIP3   OH242834   4.213   2.645   4.849  0.2232  0.3452  0.4898
 7140TIP3    H142835   4.236   2.560   4.813  0.7767  1.5335 -2.0192
 7140TIP3    H242836   4.126   2.663   4.814  1.3392  2.1306 -1.4264
 7141TIP3   OH242837   2.879   5.980  16.065  0.4889 -0.3431  0.3752
 7141TIP3    H142838   2.892   6.070  16.095  0.8053  0.2135 -1.4004
 7141TIP3    H242839   2.790   5.978  16.031 -0.3883 -1.3555  2.5843
 7142TIP3   OH242840   2.009   2.668   3.936 -0.3792  0.0104  0.1387
 7142TIP3    H142841   2.030   2.761   3.931 -0.4978 -0.0063 -0.7926
 7142TIP3    H242842   2.091   2.624   3.914 -0.0109 -0.1352  1.7051
 7143TIP3   OH242843   0.334   0.481  12.596 -0.0922  0.1541 -0.3321
 7143TIP3    H142844   0.360   0.570  12.622  0.5722 -0.3263  0.6741
 7143TIP3    H242845   0.330   0.433  12.678 -1.0674 -0.5993 -0.8164
 7144TIP3   OH242846   0.734   5.738   1.234 -0.1693 -0.0126  0.4737
 7144TIP3    H142847   0.736   5.757   1.328  1.7408 -0.5639  0.5709
 7144TIP3    H242848   0.749   5.644   1.228  0.5663  0.1509 -0.4119
 7145TIP3   OH242849   3.687   2.329  11.489  0.2604 -0.2093 -0.2099
 7145TIP3    H142850   3.739   2.410  11.491  1.0236 -0.7174  0.8775
 7145TIP3    H242851   3.667   2.316  11.396 -0.4896  1.6196 -0.3179
 7146TIP3   OH242852   5.418   1.690   4.497  0.2689 -0.5817 -0.6561
 7146TIP3    H142853   5.496   1.734   4.464 -0.2300 -0.5532 -1.8299
 7146TIP3    H242854   5.356   1.692   4.423 -0.3939 -1.6667 -0.1466
 7147TIP3   OH242855   3.218   4.705   5.827  0.3939 -0.3328 -0.1355
 7147TIP3    H142856   3.220   4.793   5.789 -0.1312 -0.0053  0.5654
 7147TIP3    H242857   3.146   4.661   5.782 -1.3116  0.5983  1.5982
 7148TIP3   OH242858   5.988   2.907  12.592 -0.0035 -0.5102  0.0100
 7148TIP3    H142859   6.062   2.919  12.651 -1.1332  0.5483  1.2507
 7148TIP3    H242860   6.013   2.834  12.536  1.7469 -0.5033  0.7615
 7149TIP3   OH242861   3.186   1.553   3.975 -0.6613  0.3881  0.2506
 7149TIP3    H142862   3.135   1.492   3.922 -1.4487  0.9103  0.4058
 7149TIP3    H242863   3.276   1.544   3.942 -0.7119 -1.0831  0.4929
 7150TIP3   OH242864   6.041   0.324   2.313  0.7129  0.1380  0.2369
 7150TIP3    H142865   6.003   0.399   2.267 -1.3856 -2.1791 -1.9641
 7150TIP3    H242866   6.063   0.261   2.244 -1.9260 -3.1833  2.2262
 7151TIP3   OH242867   0.460   3.969  12.608 -0.2837 -0.0014  0.5414
 7151TIP3    H142868   0.519   3.952  12.681 -0.4236  0.0871  0.6766
 7151TIP3    H242869   0.389   3.906  12.620  0.6437 -1.2928 -0.5930
 7152TIP3   OH242870   0.314   1.179   5.325 -0.2506  0.1811 -0.9722
 7152TIP3    H142871   0.305   1.142   5.237 -0.0836 -0.4485 -0.7253
 7152TIP3    H242872   0.407   1.173   5.345 -0.5566 -1.5824  0.0624
 7153TIP3   OH242873   2.198   3.396   4.719  0.0290  0.5743 -0.0381
 7153TIP3    H142874   2.104   3.404   4.703 -0.3105 -0.8739  1.0918
 7153TIP3    H242875   2.228   3.486   4.733 -1.5594  0.8868  1.5517
 7154TIP3   OH242876   6.635   4.429   3.654  0.0742 -0.1625  0.5593
 7154TIP3    H142877   6.548   4.394   3.635 -0.4220  0.2919  1.9303
 7154TIP3    H242878   6.647   4.414   3.747  0.1229  2.6468  1.0562
 7155TIP3   OH242879   6.365   2.936   1.997  0.0007  0.0765 -0.2932
 7155TIP3    H142880   6.385   2.860   1.941  0.2554  0.6945 -1.0549
 7155TIP3    H242881   6.312   2.993   1.941 -0.6543  0.2140  0.4596
 7156TIP3   OH242882   3.230   3.571   2.873  0.0867  0.2481  0.2965
 7156TIP3    H142883   3.167   3.501   2.856  2.2955 -1.8756  0.5828
 7156TIP3    H242884   3.246   3.566   2.968  0.8901  0.5820  0.1806
 7157TIP3   OH242885   6.127   5.067  12.371  0.0553 -0.1065 -0.1487
 7157TIP3    H142886   6.083   5.065  12.456 -1.0718  0.8009 -0.6886
 7157TIP3    H242887   6.164   5.155  12.365  2.1677 -0.9257  0.3837
 7158TIP3   OH242888   5.622   5.954   0.127  0.1680 -0.4112  0.5343
 7158TIP3    H142889   5.628   6.038   0.080  2.3893  0.3336  2.0317
 7158TIP3    H242890   5.618   5.888   0.058 -0.7409  0.8694 -0.6781
 7159TIP3   OH242891   0.001   4.315  13.059  0.0324  0.2653  0.4512
 7159TIP3    H142892   0.010   4.364  13.140  1.5969 -1.3448  1.3116
 7159TIP3    H242893  -0.061   4.245  13.079  1.9098 -1.3172  0.8933
 7160TIP3   OH242894   6.181   5.112  10.475 -0.3785  0.0394  0.1614
 7160TIP3    H142895   6.099   5.107  10.524  0.2499 -0.0629  1.2205
 7160TIP3    H242896   6.174   5.194  10.426 -0.7296  0.4992  0.9667
 7161TIP3   OH242897   5.181   5.893  15.572 -0.5075  0.0650  0.2956
 7161TIP3    H142898   5.178   5.841  15.492  1.0784 -0.3330  0.4831
 7161TIP3    H242899   5.089   5.909  15.593 -0.9383  0.1444 -1.5774
 7162TIP3   OH242900   6.328   2.374  12.531  0.7836  0.1433 -0.0092
 7162TIP3    H142901   6.346   2.467  12.545  1.7871 -0.0578  0.0611
 7162TIP3    H242902   6.295   2.370  12.442  1.0025  0.5351 -0.1113
 7163TIP3   OH242903   4.114   2.919   4.257 -0.3452 -0.4967  0.6357
 7163TIP3    H142904   4.073   2.857   4.317 -1.5271 -1.4777 -1.1298
 7163TIP3    H242905   4.091   2.887   4.170  1.7051  0.6314 -0.3735
 7164TIP3   OH242906   5.728   1.219  11.803 -0.1175 -0.1195 -0.7926
 7164TIP3    H142907   5.757   1.144  11.752  0.9145  0.0798 -0.5213
 7164TIP3    H242908   5.705   1.285  11.739  1.2322  0.1526 -1.0166
 7165TIP3   OH242909   0.736   4.795   4.270  0.1553 -0.0105  0.0004
 7165TIP3    H142910   0.641   4.796   4.263  0.1890  1.0775 -0.3479
 7165TIP3    H242911   0.754   4.828   4.358  0.2409  0.9412 -0.3642
 7166TIP3   OH242912   5.067   4.612  14.127  0.0506  0.1728 -0.0931
 7166TIP3    H142913   5.011   4.624  14.051  0.3253 -0.6023 -0.4356
 7166TIP3    H242914   5.137   4.554  14.095 -0.6308 -1.3752  1.1283
 7167TIP3   OH242915   2.295   4.968   0.151 -0.2638 -0.4651 -0.6108
 7167TIP3    H142916   2.372   4.970   0.094 -0.5078  0.6666 -0.9133
 7167TIP3    H242917   2.237   4.904   0.111 -0.2055 -0.0674 -1.3449
 7168TIP3   OH242918   5.834   0.790   4.893  0.1335  0.2007 -0.3856
 7168TIP3    H142919   5.907   0.728   4.896 -0.6595 -0.8378 -1.7928
 7168TIP3    H242920   5.763   0.745   4.938 -0.3212  0.2467 -1.0499
 7169TIP3   OH242921   0.953   2.501   1.866  0.2533  0.0166  0.7592
 7169TIP3    H142922   0.985   2.546   1.787  1.8870 -0.8984  0.8616
 7169TIP3    H242923   0.858   2.497   1.855  0.1156  2.9281  0.4776
 7170TIP3   OH242924   4.483   6.644  12.017 -0.4429 -0.1021 -0.0052
 7170TIP3    H142925   4.413   6.673  11.959 -0.2951 -0.0194 -0.1434
 7170TIP3    H242926   4.477   6.548  12.017  1.0246 -0.2233 -2.0108
 7171TIP3   OH242927   5.713   0.700  14.702  0.0470  0.0677 -0.2632
 7171TIP3    H142928   5.689   0.751  14.779  0.2110  0.6157 -0.5744
 7171TIP3    H242929   5.808   0.691  14.708 -0.1289 -1.4139  0.5406
 7172TIP3   OH242930   0.927   0.704  13.807 -0.2867  0.2028 -0.0325
 7172TIP3    H142931   0.865   0.672  13.872  0.3767 -0.9986  0.0180
 7172TIP3    H242932   1.013   0.695  13.848 -0.1095  2.6956  0.2441
 7173TIP3   OH242933   2.651   2.235   6.534 -0.5829  0.5599 -0.0602
 7173TIP3    H142934   2.687   2.232   6.445 -0.1921  2.1302  0.0381
 7173TIP3    H242935   2.664   2.147   6.568 -0.3335  0.0685 -1.4063
 7174TIP3   OH242936   3.869   0.778  15.201 -0.0046  0.6245 -0.8528
 7174TIP3    H142937   3.870   0.723  15.279 -0.9547  0.4113 -0.9830
 7174TIP3    H242938   3.783   0.762  15.162 -0.0691  1.7886 -1.1895
 7175TIP3   OH242939   1.634   2.224   3.501  0.2544 -0.5830  0.1090
 7175TIP3    H142940   1.572   2.232   3.574 -0.3068  0.6699 -0.4892
 7175TIP3    H242941   1.579   2.202   3.426  0.4168  1.3312 -0.5907
 7176TIP3   OH242942   2.844   3.126   5.425 -0.2724 -0.3981  0.0337
 7176TIP3    H142943   2.781   3.074   5.376  0.0478 -0.7799  0.0237
 7176TIP3    H242944   2.793   3.167   5.494 -0.5231 -0.7650  0.0695
 7177TIP3   OH242945   6.765   5.498   0.347  0.0052  0.0569 -0.9219
 7177TIP3    H142946   6.780   5.404   0.360 -1.6660 -0.5195 -2.9767
 7177TIP3    H242947   6.685   5.503   0.295 -0.9872  2.7000  0.7434
 7178TIP3   OH242948   1.786   3.963   6.307  0.0678  0.0937  0.2636
 7178TIP3    H142949   1.747   3.917   6.233 -1.0897  0.3559  0.7013
 7178TIP3    H242950   1.788   4.055   6.279  0.7653  0.0238  0.0771
 7179TIP3   OH242951   5.144   2.092  16.621 -0.2868  0.1610  0.1458
 7179TIP3    H142952   5.105   2.167  16.576 -0.8890 -0.3121 -0.1238
 7179TIP3    H242953   5.174   2.034  16.551 -1.2267 -0.5775  0.3500
 7180TIP3   OH242954   2.849   2.718   2.147  0.5388  0.2510 -0.4566
 7180TIP3    H142955   2.759   2.716   2.179  0.3819 -1.7112 -0.9371
 7180TIP3    H242956   2.843   2.760   2.061 -0.4288 -2.7033 -1.8817
 7181TIP3   OH242957   6.050   3.367   3.608  0.2460 -0.0476 -0.4996
 7181TIP3    H142958   6.070   3.456   3.637  0.3135 -0.4349  0.6873
 7181TIP3    H242959   5.955   3.362   3.609  0.2419  0.0095 -0.5662
 7182TIP3   OH242960   4.898   2.039  13.712 -0.8031  0.8101  0.2360
 7182TIP3    H142961   4.879   2.097  13.638  1.5112  1.8181  0.3967
 7182TIP3    H242962   4.950   2.092  13.771 -0.7634 -0.6889  1.5759
 7183TIP3   OH242963   5.539   5.745   1.969 -0.4458 -0.0094 -0.4934
 7183TIP3    H142964   5.537   5.810   1.899  1.9254  1.0752  0.3963
 7183TIP3    H242965   5.567   5.664   1.926  0.2605  0.4697 -0.9424
 7184TIP3   OH242966   3.771   5.842   3.467 -0.2311  0.1219  0.1318
 7184TIP3    H142967   3.835   5.786   3.423  0.8088  1.8179 -0.5943
 7184TIP3    H242968   3.824   5.902   3.520 -1.3467 -0.0129  1.4307
 7185TIP3   OH242969   3.282   2.215   4.529  0.1242 -0.2139 -0.1557
 7185TIP3    H142970   3.234   2.169   4.460  0.5271  1.9949 -2.0003
 7185TIP3    H242971   3.370   2.229   4.491  0.5734  0.3915  1.0771
 7186TIP3   OH242972   2.920   3.131  15.502  0.6421 -0.2339 -0.2419
 7186TIP3    H142973   2.969   3.208  15.529  0.6126 -0.1850 -0.3290
 7186TIP3    H242974   2.828   3.158  15.506  0.6376 -0.2182 -0.4120
 7187TIP3   OH242975   4.395   4.696  12.536  0.4091 -0.9929  0.0575
 7187TIP3    H142976   4.363   4.643  12.609  1.2412  0.6154  1.6355
 7187TIP3    H242977   4.337   4.771  12.534 -0.5846 -1.7858 -1.9852
 7188TIP3   OH242978   3.334   0.256  13.869 -0.6472 -0.0209  0.7421
 7188TIP3    H142979   3.281   0.230  13.794 -0.9187  0.2209  0.8449
 7188TIP3    H242980   3.383   0.332  13.839  0.8323 -1.1744  0.1589
 7189TIP3   OH242981   6.303   3.094  11.350  1.2495 -0.0919 -0.3815
 7189TIP3    H142982   6.212   3.114  11.372  1.3782  0.4738 -0.3582
 7189TIP3    H242983   6.304   2.999  11.333  0.4912  0.0479 -1.2073
 7190TIP3   OH242984   2.911   1.773  12.383  0.0118 -0.3634 -0.1466
 7190TIP3    H142985   2.866   1.689  12.378 -1.1127  0.1596  0.7343
 7190TIP3    H242986   2.840   1.838  12.384  0.8407  0.5577 -0.2559
 7191TIP3   OH242987   4.510   1.491   0.784  0.3260  0.1111  0.6729
 7191TIP3    H142988   4.502   1.466   0.876  1.2625  0.4569  0.8586
 7191TIP3    H242989   4.567   1.568   0.786  0.2597  0.1813 -0.1892
 7192TIP3   OH242990   1.955   4.230  10.333 -0.1988  0.1587 -0.3863
 7192TIP3    H142991   1.866   4.223  10.298 -0.6360 -2.9735  1.1207
 7192TIP3    H242992   1.943   4.234  10.428  1.2092  1.9863 -0.2612
 7193TIP3   OH242993   0.714   6.060  14.156 -0.4403 -0.3832  0.0060
 7193TIP3    H142994   0.771   5.985  14.136 -0.4156 -0.1121 -0.9552
 7193TIP3    H242995   0.653   6.027  14.222  0.3430 -0.9002  0.4781
 7194TIP3   OH242996   5.372   4.604   5.278 -0.6966  0.4397 -0.1902
 7194TIP3    H142997   5.281   4.612   5.306 -0.4742 -1.5533  1.2064
 7194TIP3    H242998   5.369   4.555   5.196 -0.9959  2.1907 -1.2659
 7195TIP3   OH242999   5.079   6.346  16.127  0.3213 -0.1183  0.6792
 7195TIP3    H143000   5.138   6.386  16.063 -0.8597  0.3168 -0.1593
 7195TIP3    H243001   5.028   6.420  16.161 -0.2494 -0.5934  0.8562
 7196TIP3   OH243002   4.617   4.404   1.186  0.1514  0.1399 -0.3710
 7196TIP3    H143003   4.656   4.375   1.103  0.9722  0.8413 -0.2439
 7196TIP3    H243004   4.689   4.450   1.230 -0.0177 -1.0563  1.1529
 7197TIP3   OH243005   0.060   5.079   4.087 -0.3382 -0.4606 -0.3101
 7197TIP3    H143006   0.121   5.089   4.014 -0.1853  1.8487  0.1170
 7197TIP3    H243007   0.088   5.143   4.152 -2.9911  0.4311  0.0390
 7198TIP3   OH243008   3.281   4.676  13.147 -0.0172 -0.1094  0.5420
 7198TIP3    H143009   3.375   4.659  13.151 -0.1705 -0.9801  0.6072
 7198TIP3    H243010   3.250   4.620  13.076 -0.5005  0.0796  0.6055
 7199TIP3   OH243011   2.676   2.770  10.870  0.1454  0.3307 -0.1808
 7199TIP3    H143012   2.751   2.795  10.815  0.4221 -1.4885 -0.6440
 7199TIP3    H243013   2.599   2.795  10.819  0.4178 -0.2120 -0.8669
 7200TIP3   OH243014   0.831   1.370  14.929 -0.1736 -0.0232 -0.7529
 7200TIP3    H143015   0.910   1.334  14.968 -0.2536  2.5856  1.9801
 7200TIP3    H243016   0.861   1.442  14.873 -0.5881  1.2150  0.5807
 7201TIP3   OH243017   2.871   1.840  13.193  0.0789 -0.2110 -0.2496
 7201TIP3    H143018   2.902   1.835  13.103 -0.1611  0.2118 -0.3588
 7201TIP3    H243019   2.882   1.932  13.217 -0.2191 -0.2451  0.0229
 7202TIP3   OH243020   2.744   1.852   5.531  0.4019  0.0733  0.6408
 7202TIP3    H143021   2.703   1.856   5.618  0.4390  0.8916  0.6257
 7202TIP3    H243022   2.675   1.821   5.473 -0.1610  1.2958  0.6429
 7203TIP3   OH243023   5.498   3.487  14.691 -0.6365  0.2357 -0.1491
 7203TIP3    H143024   5.578   3.536  14.671 -0.7298  0.4733  0.0513
 7203TIP3    H243025   5.501   3.411  14.634 -0.7279  0.7240 -0.8193
 7204TIP3   OH243026   4.605   3.055  16.258  0.6170  0.3072 -0.2825
 7204TIP3    H143027   4.594   3.016  16.345 -0.6087 -0.4437 -0.7526
 7204TIP3    H243028   4.529   3.113  16.248 -0.8567 -1.8276 -1.9837
 7205TIP3   OH243029   4.396   1.424   4.968 -0.2066 -0.3283  0.0880
 7205TIP3    H143030   4.356   1.490   4.911  0.7352 -0.4415 -0.7267
 7205TIP3    H243031   4.456   1.474   5.024 -0.7009 -0.2907  0.5867
 7206TIP3   OH243032   3.327   0.473  15.559  0.0102 -0.7406  0.2852
 7206TIP3    H143033   3.399   0.535  15.576  0.5982 -0.9869 -1.1916
 7206TIP3    H243034   3.321   0.420  15.638  0.1258  0.6028  1.2045
 7207TIP3   OH243035   5.038   0.340   4.484 -0.0126  0.3534  0.3430
 7207TIP3    H143036   4.958   0.287   4.480  0.2462 -0.0655  0.7112
 7207TIP3    H243037   5.106   0.280   4.514 -0.0431  1.2779  2.3241
 7208TIP3   OH243038   6.724   3.022   5.687  0.2011  0.2270  0.2358
 7208TIP3    H143039   6.746   2.963   5.615  3.6120  0.6379  0.8424
 7208TIP3    H243040   6.715   3.108   5.645 -0.1917  0.0528 -0.0342
 7209TIP3   OH243041   3.503   6.306   0.122 -0.0957 -0.2123  0.3989
 7209TIP3    H143042   3.508   6.392   0.080 -0.7404  1.0628  2.8312
 7209TIP3    H243043   3.412   6.280   0.113  0.2807 -1.0320 -1.0739
 7210TIP3   OH243044   3.079   5.874  11.731  0.0356 -0.3047  0.4323
 7210TIP3    H143045   3.016   5.934  11.772  0.4706 -0.6533  1.6533
 7210TIP3    H243046   3.025   5.808  11.688 -0.4664 -0.7140  1.6406
 7211TIP3   OH243047   1.278   1.252   6.064  0.1314  0.2500 -0.1639
 7211TIP3    H143048   1.305   1.300   6.143  1.4922  0.2691 -0.6264
 7211TIP3    H243049   1.338   1.177   6.060 -2.4511 -1.9588  0.9740
 7212TIP3   OH243050   5.796   3.764  16.295  0.2574  0.1306  0.0959
 7212TIP3    H143051   5.817   3.834  16.358 -0.2192  0.3897 -0.0336
 7212TIP3    H243052   5.877   3.751  16.246  0.1165  1.1583 -0.4265
 7213TIP3   OH243053   5.162   2.555   2.846 -0.0061 -0.4740  0.3260
 7213TIP3    H143054   5.133   2.501   2.920  0.4090 -0.9494  0.1439
 7213TIP3    H243055   5.127   2.642   2.865 -0.6556 -0.7985  0.6332
 7214TIP3   OH243056   5.640   1.543  17.143 -1.1301 -0.3804  0.4067
 7214TIP3    H143057   5.591   1.501  17.213 -1.2464 -0.8901  0.0272
 7214TIP3    H243058   5.574   1.592  17.094 -1.2323 -0.8870  0.0271
 7215TIP3   OH243059   3.688   2.382  16.308 -0.4053 -0.0206 -0.9224
 7215TIP3    H143060   3.617   2.338  16.261 -0.7702 -0.1736 -0.2267
 7215TIP3    H243061   3.696   2.333  16.390  2.2312 -1.6222 -2.0776
 7216TIP3   OH243062   5.280   2.868   6.098 -0.0327 -0.4886 -0.4468
 7216TIP3    H143063   5.308   2.848   6.187  1.2026  1.0063 -0.4804
 7216TIP3    H243064   5.222   2.796   6.075 -0.1743 -1.0275  1.4723
 7217TIP3   OH243065   6.314   3.707  11.534 -0.4325  0.2603 -0.0928
 7217TIP3    H143066   6.266   3.624  11.530 -1.3579  0.6940  1.5500
 7217TIP3    H243067   6.400   3.687  11.498 -1.4831 -0.7932 -2.0879
 7218TIP3   OH243068   3.352   3.589   4.675 -0.7194  0.8827 -0.8374
 7218TIP3    H143069   3.394   3.539   4.605 -1.9925 -0.1016 -0.9205
 7218TIP3    H243070   3.261   3.598   4.646 -2.0881 -2.2894  2.1096
 7219TIP3   OH243071   2.909   5.296  15.993 -0.3999  0.5747 -0.2515
 7219TIP3    H143072   2.884   5.210  15.959 -0.9204 -0.0827  1.6980
 7219TIP3    H243073   2.832   5.351  15.978 -0.0396  0.7471 -1.5676
 7220TIP3   OH243074   4.129   6.278  11.896  0.2411  0.4432  0.0435
 7220TIP3    H143075   4.071   6.353  11.886  0.5737  0.8695  1.1813
 7220TIP3    H243076   4.135   6.265  11.991  1.7646  0.2256 -0.0664
 7221TIP3   OH243077   2.799   4.067   6.660  0.0213 -0.2412 -0.1641
 7221TIP3    H143078   2.882   4.096   6.621 -0.1990  0.4834 -0.0811
 7221TIP3    H243079   2.751   4.147   6.678 -0.7089 -0.6679 -0.2149
 7222TIP3   OH243080   1.056   2.795   3.067 -0.0254 -0.0585 -0.2809
 7222TIP3    H143081   1.025   2.711   3.035  0.5525 -0.4832  0.2699
 7222TIP3    H243082   0.978   2.837   3.102 -0.7050  0.4695 -2.3113
 7223TIP3   OH243083   2.195   4.179   2.071 -0.2830  0.4182 -0.5684
 7223TIP3    H143084   2.106   4.214   2.075 -0.6540 -0.5507 -0.1481
 7223TIP3    H243085   2.248   4.251   2.039 -1.3248  0.8194 -1.4233
 7224TIP3   OH243086   3.589   2.922   6.261 -0.3835  0.0877  0.7142
 7224TIP3    H143087   3.500   2.938   6.292 -0.0197  1.5635  1.0079
 7224TIP3    H243088   3.634   3.006   6.272  0.6680 -0.2792 -0.7149
 7225TIP3   OH243089   5.262   1.653  12.339 -0.3759 -0.1404 -0.0569
 7225TIP3    H143090   5.306   1.736  12.359 -0.4504 -0.2733  0.6501
 7225TIP3    H243091   5.319   1.611  12.274  0.5829 -0.3462  0.9039
 7226TIP3   OH243092   4.922   3.265   4.066  0.3216  0.0099  0.1706
 7226TIP3    H143093   4.853   3.307   4.013  0.1978  2.3810  2.1173
 7226TIP3    H243094   4.875   3.210   4.128  0.2928 -0.1971 -0.0358
 7227TIP3   OH243095   2.060   0.347   2.959  0.2097 -0.4225  0.0572
 7227TIP3    H143096   1.974   0.349   2.917 -0.2423  1.4151  1.0281
 7227TIP3    H243097   2.119   0.316   2.891 -0.9186  0.0846 -1.1676
 7228TIP3   OH243098   4.375   4.268   2.226 -0.3949 -0.1589 -0.0755
 7228TIP3    H143099   4.347   4.188   2.181 -1.6485  0.7547 -0.9649
 7228TIP3    H243100   4.341   4.339   2.172 -0.0539  0.9804  1.1705
 7229TIP3   OH243101   5.296   3.748  12.401 -0.0167 -0.4047  0.0724
 7229TIP3    H143102   5.319   3.729  12.310  2.4959 -0.5434  0.7148
 7229TIP3    H243103   5.207   3.782  12.396  0.0325 -0.5392 -2.4232
 7230TIP3   OH243104   0.813   5.597   5.998 -0.3299  0.6785 -0.1772
 7230TIP3    H143105   0.897   5.595   5.953  0.4250  1.7945  1.1449
 7230TIP3    H243106   0.831   5.557   6.083 -0.8165  2.1184  0.6208
 7231TIP3   OH243107   4.721   1.852   3.371 -0.7141 -0.0936  0.1574
 7231TIP3    H143108   4.630   1.824   3.370 -0.8223  0.2704 -0.5143
 7231TIP3    H243109   4.748   1.851   3.279 -0.3027  0.6403  0.2612
 7232TIP3   OH243110   5.184   2.208  15.978  0.2489  0.3425  0.3057
 7232TIP3    H143111   5.191   2.123  15.934  0.7297  0.1160  0.8219
 7232TIP3    H243112   5.093   2.234  15.965  0.4321  0.3653 -1.0011
 7233TIP3   OH243113   1.850   1.180  15.079 -0.9068 -0.6703 -0.0859
 7233TIP3    H143114   1.892   1.094  15.068 -0.9952 -0.6690 -0.4698
 7233TIP3    H243115   1.794   1.188  15.002 -2.2862 -1.0534  0.8620
 7234TIP3   OH243116   1.761   5.664   6.728 -0.1001  0.5563  0.5170
 7234TIP3    H143117   1.789   5.586   6.680 -0.4258 -0.1080  1.3890
 7234TIP3    H243118   1.722   5.720   6.661 -0.6890 -0.4222  0.0273
 7235TIP3   OH243119   2.546   4.190  10.414  0.4064 -0.6084 -0.1193
 7235TIP3    H143120   2.613   4.124  10.399  0.3524 -0.4686 -0.9516
 7235TIP3    H243121   2.464   4.148  10.388  0.2621 -0.5224  0.1949
 7236TIP3   OH243122   5.147   3.776   0.686  0.3137  0.1076  0.3289
 7236TIP3    H143123   5.216   3.782   0.752 -0.1232  1.3451  0.6860
 7236TIP3    H243124   5.070   3.746   0.735  0.2877 -0.0820  0.1687
 7237TIP3   OH243125   2.281   0.600  16.047 -0.8967 -0.3619  0.1637
 7237TIP3    H143126   2.229   0.551  15.983  0.6347 -0.8241 -0.7542
 7237TIP3    H243127   2.342   0.652  15.994 -0.7874  0.5988  1.2003
 7238TIP3   OH243128   5.787   5.221  11.620 -0.0415  0.2436  0.1812
 7238TIP3    H143129   5.718   5.226  11.687 -0.9855  1.1227 -0.8420
 7238TIP3    H243130   5.755   5.156  11.558  0.6778 -0.3257  0.4065
 7239TIP3   OH243131   0.145   6.318  15.650 -0.0446 -0.9138 -0.5713
 7239TIP3    H143132   0.135   6.377  15.574  2.3193  0.8287  0.4224
 7239TIP3    H243133   0.069   6.338  15.705  0.3862  0.7841 -0.5597
 7240TIP3   OH243134   2.519   6.157  14.050  0.4714 -0.0452  0.1378
 7240TIP3    H143135   2.524   6.252  14.056  1.0451  0.0316 -1.3426
 7240TIP3    H243136   2.448   6.140  13.988  1.3837 -0.5340 -0.7981
 7241TIP3   OH243137   3.258   5.011  15.057  0.2029  0.0208 -0.1526
 7241TIP3    H143138   3.233   5.101  15.077 -0.7100 -0.0718 -0.8441
 7241TIP3    H243139   3.307   5.017  14.975  0.5626 -0.0600  0.0533
 7242TIP3   OH243140   4.841   4.792  12.821  0.2018  0.4556 -0.3664
 7242TIP3    H143141   4.886   4.873  12.794 -0.9637  1.2021 -0.0953
 7242TIP3    H243142   4.750   4.805  12.794  0.1302 -1.0548 -0.9128
 7243TIP3   OH243143   0.380   4.621  14.397 -0.1546 -0.3662  0.6988
 7243TIP3    H143144   0.335   4.593  14.317  0.7399  1.5513 -0.5377
 7243TIP3    H243145   0.469   4.585  14.387 -0.3971 -1.1934  1.4573
 7244TIP3   OH243146   3.195   4.649   0.536 -0.2878 -0.4223  0.1847
 7244TIP3    H143147   3.285   4.649   0.501 -0.7344 -2.6386 -1.1099
 7244TIP3    H243148   3.142   4.688   0.467 -0.5057 -0.3063  0.4152
 7245TIP3   OH243149   5.409   2.384  15.940  0.1723 -0.1124  0.0840
 7245TIP3    H143150   5.335   2.330  15.969  0.3748 -0.7917 -0.6472
 7245TIP3    H243151   5.369   2.451  15.885  0.1912 -1.0086 -1.0330
 7246TIP3   OH243152   4.988   5.460  12.032  0.3769  0.0756  0.1262
 7246TIP3    H143153   5.029   5.424  12.111  0.0643 -0.9253 -0.1587
 7246TIP3    H243154   5.026   5.409  11.961  0.2494  0.6105 -0.3223
 7247TIP3   OH243155   0.337   5.524   3.474 -0.3266 -0.0189  0.1243
 7247TIP3    H143156   0.427   5.523   3.440 -0.2316 -0.0943  0.3783
 7247TIP3    H243157   0.296   5.447   3.435  0.4431 -1.3906  1.9637
 7248TIP3   OH243158   5.763   3.191  11.620  0.1777 -0.0087  0.2234
 7248TIP3    H143159   5.692   3.255  11.628 -0.6787 -1.0949  1.5123
 7248TIP3    H243160   5.718   3.107  11.618  1.4526 -0.7372  1.4824
 7249TIP3   OH243161   5.466   2.512  11.892 -0.1049  0.3839  0.2239
 7249TIP3    H143162   5.555   2.503  11.859 -0.7985 -2.2670 -1.1094
 7249TIP3    H243163   5.453   2.606  11.904  2.3085  0.9074 -1.0586
 7250TIP3   OH243164   2.413   3.360   4.480 -0.3738 -0.7125 -0.1138
 7250TIP3    H143165   2.339   3.351   4.540  0.0956 -1.4490  0.3693
 7250TIP3    H243166   2.451   3.272   4.476 -0.9944 -0.8962 -2.2655
 7251TIP3   OH243167   6.329   1.374  14.022  0.3029  0.0312 -0.4464
 7251TIP3    H143168   6.341   1.342  14.111 -0.4633  0.7100 -0.0967
 7251TIP3    H243169   6.283   1.457  14.032 -2.2717 -1.1978 -1.6119
 7252TIP3   OH243170   5.213   0.152  14.871 -0.1757  0.2027  0.3453
 7252TIP3    H143171   5.151   0.223  14.856 -0.5346 -0.4573 -1.3980
 7252TIP3    H243172   5.293   0.196  14.899 -1.4051  1.0572  2.6874
 7253TIP3   OH243173   1.354   4.949  16.194 -0.0642  0.4666  0.2400
 7253TIP3    H143174   1.371   5.002  16.272  1.5315  0.2529  0.0395
 7253TIP3    H243175   1.434   4.955  16.142  0.3361 -2.5398  0.4189
 7254TIP3   OH243176   1.512   1.664   3.631  0.3515 -0.1599 -0.4194
 7254TIP3    H143177   1.482   1.580   3.665  0.7042 -0.7234 -1.4627
 7254TIP3    H243178   1.573   1.696   3.697 -0.4896 -0.2763  0.4302
 7255TIP3   OH243179   0.152   4.537   5.815  0.0749  0.6373 -0.0490
 7255TIP3    H143180   0.124   4.613   5.866 -0.9736  0.9697 -1.0736
 7255TIP3    H243181   0.184   4.475   5.879 -0.3900  1.4002  0.9330
 7256TIP3   OH243182   1.910   4.969   4.325 -0.3231 -1.0777  0.2563
 7256TIP3    H143183   1.878   4.969   4.416 -1.2484 -2.2254 -0.0575
 7256TIP3    H243184   1.831   4.981   4.273  0.3398  0.6876 -0.3704
 7257TIP3   OH243185   4.277   5.430  16.137 -0.2644 -0.3200 -0.3454
 7257TIP3    H143186   4.333   5.492  16.091 -0.4297  0.8502  0.9961
 7257TIP3    H243187   4.313   5.344  16.115  1.3591  0.3631 -0.4034
 7258TIP3   OH243188   2.098   0.827  17.128 -0.2189  0.2711  0.4843
 7258TIP3    H143189   2.032   0.852  17.064  1.5281  3.0364 -0.3326
 7258TIP3    H243190   2.071   0.873  17.208 -0.4697 -0.3551  0.7631
 7259TIP3   OH243191   5.333   2.209   5.041  0.3173 -0.2596  0.1806
 7259TIP3    H143192   5.394   2.282   5.053  0.6826 -0.7688  1.5354
 7259TIP3    H243193   5.247   2.245   5.065 -0.1928  0.8646 -3.0998
 7260TIP3   OH243194   2.976   6.727  14.314  0.1627  0.0515  0.4390
 7260TIP3    H143195   3.032   6.734  14.391 -0.4209  0.4641  0.8364
 7260TIP3    H243196   2.929   6.645  14.324  1.2405 -0.6615 -0.2707
 7261TIP3   OH243197   3.942   4.514  13.074  0.1739 -0.1827  0.2736
 7261TIP3    H143198   3.950   4.429  13.116  0.2074 -0.0896  0.4564
 7261TIP3    H243199   3.979   4.576  13.138  0.9491 -0.1349 -0.2148
 7262TIP3   OH243200   6.380   5.180  16.664 -0.4155 -0.2822 -0.5753
 7262TIP3    H143201   6.349   5.095  16.632  1.5882 -0.8880 -1.0191
 7262TIP3    H243202   6.362   5.241  16.594 -1.0094 -0.5408 -0.6480
 7263TIP3   OH243203   5.008   4.244  17.060 -0.3393  0.0934 -0.5733
 7263TIP3    H143204   5.049   4.231  16.974  1.8523  3.5442 -0.1422
 7263TIP3    H243205   4.930   4.296  17.042  0.8820  2.0320 -0.3644
 7264TIP3   OH243206   6.022   1.097   3.593 -0.0255 -0.2677 -0.1615
 7264TIP3    H143207   5.964   1.088   3.668 -0.6850 -0.6342 -0.7154
 7264TIP3    H243208   6.106   1.061   3.623 -0.6642 -1.6824 -0.0524
 7265TIP3   OH243209   0.993   2.306   3.454  0.1929  0.0816 -0.2440
 7265TIP3    H143210   1.057   2.269   3.515 -0.9528 -1.0105  0.3046
 7265TIP3    H243211   0.979   2.395   3.484  1.8140  0.4922 -0.6520
 7266TIP3   OH243212   0.206   4.353   2.470  0.3261 -0.1158 -0.4202
 7266TIP3    H143213   0.138   4.348   2.402  0.5021 -3.1826 -0.4494
 7266TIP3    H243214   0.163   4.321   2.549  1.2031 -0.2356  0.0080
 7267TIP3   OH243215   4.571   2.528  10.969 -0.1316 -0.2923  0.0264
 7267TIP3    H143216   4.561   2.623  10.962  0.7932 -0.1034  1.2070
 7267TIP3    H243217   4.612   2.514  11.054 -0.3246 -1.7603 -0.1092
 7268TIP3   OH243218   3.285   3.970  12.387  0.1077  0.0526  0.3729
 7268TIP3    H143219   3.313   4.053  12.424 -0.7695 -0.2915  1.8642
 7268TIP3    H243220   3.332   3.904  12.437 -0.7085 -0.4029  0.5575
 7269TIP3   OH243221   2.360   2.331   3.011  0.2262 -0.1451 -0.1459
 7269TIP3    H143222   2.322   2.332   2.924 -1.0053 -0.9461  0.3663
 7269TIP3    H243223   2.316   2.403   3.057  1.6942  1.0131 -0.5087
 7270TIP3   OH243224   0.754   1.246   0.238 -0.5477 -0.5975  0.6629
 7270TIP3    H143225   0.817   1.318   0.235 -1.4826  0.2016 -0.5420
 7270TIP3    H243226   0.753   1.219   0.329  1.2663 -0.3838  0.7667
 7271TIP3   OH243227   2.183   1.242  14.845 -0.4531  0.4456 -0.4119
 7271TIP3    H143228   2.221   1.329  14.835  0.4482  0.2728  1.2652
 7271TIP3    H243229   2.129   1.230  14.767  1.6646  1.3540 -2.0686
 7272TIP3   OH243230   5.872   0.055   5.302 -0.3632 -0.1896 -0.3596
 7272TIP3    H143231   5.839   0.035   5.215  1.0150 -1.8670 -0.5274
 7272TIP3    H243232   5.828  -0.008   5.360 -0.9787  0.6597  0.1141
 7273TIP3   OH243233   2.634   6.099  14.678  0.5949 -0.4692 -0.1777
 7273TIP3    H143234   2.618   6.040  14.751 -0.7312 -0.4105 -0.4172
 7273TIP3    H243235   2.667   6.179  14.719 -0.6661 -0.2392  0.4059
 7274TIP3   OH243236   0.685   1.247  13.428 -0.0711 -0.2413  0.3723
 7274TIP3    H143237   0.766   1.233  13.379 -0.2775 -1.7084  0.4336
 7274TIP3    H243238   0.672   1.342  13.426  0.9983 -0.1054 -0.6780
 7275TIP3   OH243239   6.472   5.957  14.378 -0.0971  0.1506  0.0820
 7275TIP3    H143240   6.460   5.899  14.453 -0.0132 -0.4967 -0.3954
 7275TIP3    H243241   6.530   6.026  14.410 -1.4725  0.8484  1.1060
 7276TIP3   OH243242   1.890   1.335   4.381  0.0393  0.4397 -0.3185
 7276TIP3    H143243   1.953   1.387   4.332 -0.0706  1.0600  0.1880
 7276TIP3    H243244   1.941   1.263   4.417  0.8128  1.8435  1.4733
 7277TIP3   OH243245   0.564   2.414  12.421 -0.7554 -0.7271  0.4337
 7277TIP3    H143246   0.608   2.469  12.356 -2.1170  0.2063  0.2881
 7277TIP3    H243247   0.488   2.379  12.375 -1.4525 -0.4572  1.3710
 7278TIP3   OH243248   4.702   0.029  16.540 -0.0393  0.0790  0.9192
 7278TIP3    H143249   4.748  -0.055  16.542  0.1416  0.1463 -0.1921
 7278TIP3    H243250   4.771   0.094  16.535 -0.2435  0.1828 -0.7266
 7279TIP3   OH243251   4.228   1.156   1.529 -0.1843  0.3634  0.1209
 7279TIP3    H143252   4.258   1.093   1.464 -0.8282  0.8832 -0.6879
 7279TIP3    H243253   4.165   1.108   1.582  0.7502 -0.2181  0.7084
 7280TIP3   OH243254   3.427   3.639  15.504 -0.0999 -0.1674  0.0623
 7280TIP3    H143255   3.462   3.554  15.477  2.7843  0.6464  1.0295
 7280TIP3    H243256   3.501   3.699  15.494 -0.8764  1.4144  3.2360
 7281TIP3   OH243257   6.774   4.322   1.781 -0.2229  0.3728  0.2052
 7281TIP3    H143258   6.739   4.255   1.839 -0.5623  1.6789  1.5474
 7281TIP3    H243259   6.867   4.326   1.803  0.1816 -0.9973 -1.2356
 7282TIP3   OH243260   6.339   3.811   3.586  0.0387  0.4727 -0.5993
 7282TIP3    H143261   6.417   3.774   3.627  1.1357  1.3976 -1.8218
 7282TIP3    H243262   6.311   3.880   3.646  1.5126  1.6778 -1.2480
 7283TIP3   OH243263   6.094   0.063   3.198  0.7147  0.2840  0.1444
 7283TIP3    H143264   6.141   0.146   3.202  0.1572  0.6313 -0.4343
 7283TIP3    H243265   6.002   0.088   3.194  0.5721 -0.3435 -0.5825
 7284TIP3   OH243266   0.413   0.141   3.983 -0.0551 -0.3560  0.0183
 7284TIP3    H143267   0.376   0.228   3.969 -0.4039 -0.9384 -2.9602
 7284TIP3    H243268   0.501   0.158   4.017 -0.8426  1.1070  1.3884
 7285TIP3   OH243269   5.750   5.472  17.228  0.2818 -0.2240 -0.3737
 7285TIP3    H143270   5.672   5.449  17.277  0.8155 -1.4945 -0.0800
 7285TIP3    H243271   5.817   5.488  17.295 -0.2494  2.9569 -0.5533
 7286TIP3   OH243272   3.042   1.943   2.214 -0.2734 -0.5536 -0.4686
 7286TIP3    H143273   3.005   1.927   2.300  0.5295  0.1755  0.0194
 7286TIP3    H243274   3.096   1.866   2.196 -0.1924 -0.5638 -0.1788
 7287TIP3   OH243275   6.622   6.705   5.474 -0.7510 -0.1868  0.7687
 7287TIP3    H143276   6.528   6.720   5.471 -0.6947  0.0981  0.3915
 7287TIP3    H243277   6.637   6.632   5.413 -0.5887  0.4922 -0.0062
 7288TIP3   OH243278   3.603   1.703   0.786  0.3299 -0.3017 -0.5718
 7288TIP3    H143279   3.540   1.632   0.797  0.5004 -1.2220 -4.6412
 7288TIP3    H243280   3.548   1.780   0.770  0.1822 -0.5472 -1.2772
 7289TIP3   OH243281   6.565   4.000  14.451  0.6613 -0.2139 -0.5416
 7289TIP3    H143282   6.531   4.011  14.362  0.8760 -1.0288 -0.7256
 7289TIP3    H243283   6.654   3.967  14.439  0.8084 -0.0136 -0.0216
 7290TIP3   OH243284   1.274   1.382   5.514 -0.2519 -0.1091  0.0267
 7290TIP3    H143285   1.345   1.401   5.453 -2.1925 -0.3041 -2.3779
 7290TIP3    H243286   1.318   1.363   5.597  2.4018  1.3278 -0.9832
 7291TIP3   OH243287   3.986   5.584   2.987 -0.0247  0.5799 -0.0653
 7291TIP3    H143288   3.986   5.494   3.019  3.4948  1.5614  3.1471
 7291TIP3    H243289   4.074   5.597   2.951 -0.2133  2.9320  0.2515
 7292TIP3   OH243290   0.684   3.034   0.081 -0.0566  0.0550 -0.6293
 7292TIP3    H143291   0.687   3.091   0.004 -2.1486  1.1103  0.0042
 7292TIP3    H243292   0.770   3.043   0.122 -0.2322  2.6079 -0.7078
 7293TIP3   OH243293   5.049   0.939   1.427 -0.2234  0.0370 -0.5944
 7293TIP3    H143294   5.057   0.861   1.482  1.9612  0.1193 -0.7277
 7293TIP3    H243295   5.102   1.005   1.471  1.5900  0.1034 -2.7664
 7294TIP3   OH243296   1.421   4.673   1.573 -0.1550 -0.2310 -0.1886
 7294TIP3    H143297   1.400   4.744   1.513  0.3449  0.1222  0.0449
 7294TIP3    H243298   1.434   4.597   1.517 -0.1737 -0.0169 -0.4847
 7295TIP3   OH243299   0.839   6.603   0.490 -0.4069 -0.0498 -0.1807
 7295TIP3    H143300   0.778   6.650   0.548 -0.1047 -0.5005  0.5056
 7295TIP3    H243301   0.918   6.658   0.490 -0.2118 -0.3253  0.2724
 7296TIP3   OH243302   3.134   5.263  12.459  0.1011 -0.2522  0.5855
 7296TIP3    H143303   3.224   5.251  12.489  0.2402 -0.5011  0.0690
 7296TIP3    H243304   3.089   5.183  12.484  0.5671 -1.0686 -1.1528
 7297TIP3   OH243305   0.578   6.475   3.723 -0.4410 -0.2496  0.3717
 7297TIP3    H143306   0.517   6.418   3.770 -0.7079 -0.1648  0.1242
 7297TIP3    H243307   0.624   6.416   3.663  1.2469 -0.7221  2.0532
 7298TIP3   OH243308   2.509   3.239   2.009  0.4098  0.2778 -0.4968
 7298TIP3    H143309   2.530   3.174   2.075  1.0913 -0.8742 -1.8149
 7298TIP3    H243310   2.589   3.245   1.956  0.1442  1.7493 -0.7421
 7299TIP3   OH243311   4.928   4.195  15.605  0.0574  0.4195 -0.0432
 7299TIP3    H143312   4.927   4.290  15.617  1.1043  0.4572 -0.2361
 7299TIP3    H243313   5.020   4.171  15.604 -0.2137 -0.7303  0.9403
 7300TIP3   OH243314   1.011   1.939  16.051 -0.2661  0.4791  0.1580
 7300TIP3    H143315   1.083   1.877  16.044  1.2309  1.9598  1.7953
 7300TIP3    H243316   0.952   1.902  16.116 -0.7246 -0.4787 -0.7946
 7301TIP3   OH243317   6.475   1.885  16.668 -0.0217  0.0469 -0.8568
 7301TIP3    H143318   6.383   1.901  16.689  0.3168 -0.7104  1.2953
 7301TIP3    H243319   6.490   1.793  16.691  1.6150  0.5311  0.1332
 7302TIP3   OH243320   1.181   2.694   3.313  0.3161 -0.2155 -0.4816
 7302TIP3    H143321   1.154   2.723   3.226  0.4805 -0.9047 -0.7704
 7302TIP3    H243322   1.251   2.631   3.296  0.5796 -0.0954  0.1644
 7303TIP3   OH243323   5.515   6.543  11.703 -0.3042  0.2011  0.1468
 7303TIP3    H143324   5.435   6.491  11.693 -0.3709  0.3823 -0.2607
 7303TIP3    H243325   5.574   6.509  11.636 -0.6259  1.1768 -0.6478
 7304TIP3   OH243326   0.255   4.318  16.606  0.2041 -0.1316  0.0901
 7304TIP3    H143327   0.334   4.290  16.651  1.3874  1.1151 -1.1773
 7304TIP3    H243328   0.267   4.411  16.589 -1.5680  0.0994 -0.0501
 7305TIP3   OH243329   5.843   1.903  11.331 -0.2530  0.3497 -0.2864
 7305TIP3    H143330   5.831   1.997  11.345  1.9540  0.6121  0.0776
 7305TIP3    H243331   5.770   1.862  11.378 -0.2850  1.8003  0.9747
 7306TIP3   OH243332   1.167   0.123  13.725  0.1153 -0.3190 -0.5951
 7306TIP3    H143333   1.212   0.206  13.738 -0.2686 -0.3249  0.8250
 7306TIP3    H243334   1.233   0.056  13.742 -0.0545 -0.3179  0.0656
 7307TIP3   OH243335   4.001   0.607  14.309  0.0961  0.3235  0.1737
 7307TIP3    H143336   3.918   0.593  14.355  0.1340  0.5174  0.3040
 7307TIP3    H243337   3.988   0.690  14.262 -0.3343 -0.4313 -1.0506
 7308TIP3   OH243338   0.678   1.526  13.058  0.5562  0.2565  0.1619
 7308TIP3    H143339   0.717   1.441  13.074  0.6566  0.3251  0.2845
 7308TIP3    H243340   0.618   1.512  12.985  0.1978 -0.0286  0.5056
 7309TIP3   OH243341   4.284   3.920  13.006  0.0871  0.1895  0.0449
 7309TIP3    H143342   4.213   3.857  12.992 -0.6714  0.9140  0.6256
 7309TIP3    H243343   4.263   3.993  12.947  0.3700  0.3830  0.1817
 7310TIP3   OH243344   3.836   1.593   2.694  0.8514  0.2132 -0.3242
 7310TIP3    H143345   3.836   1.622   2.785  1.9348  1.1176 -0.5990
 7310TIP3    H243346   3.853   1.672   2.643  0.1190 -0.2587 -1.3247
 7311TIP3   OH243347   3.391   5.457   2.383  0.2098  0.0330 -0.0218
 7311TIP3    H143348   3.480   5.422   2.387  0.2396  0.2718  2.1540
 7311TIP3    H243349   3.396   5.530   2.321  1.3112 -0.5194 -0.5906
 7312TIP3   OH243350   0.911   6.666   0.083 -0.4159  0.2316 -0.1169
 7312TIP3    H143351   0.973   6.636   0.150  0.6632 -0.3610 -1.3665
 7312TIP3    H243352   0.955   6.649  -0.000 -1.8708  0.6887 -1.0003
 7313TIP3   OH243353   4.792   4.794  11.381 -0.2398 -0.1187  0.2798
 7313TIP3    H143354   4.886   4.791  11.395 -0.5850 -1.1956  2.6642
 7313TIP3    H243355   4.764   4.877  11.420 -0.4244 -0.3792  0.7124
 7314TIP3   OH243356   2.759   4.802   3.867  0.2156  0.3437 -0.0625
 7314TIP3    H143357   2.813   4.876   3.894  1.0544 -0.7514  1.2989
 7314TIP3    H243358   2.697   4.790   3.940 -0.0728 -0.1482 -0.3851
 7315TIP3   OH243359   1.549   4.625  16.389 -0.1534 -0.6354 -0.1765
 7315TIP3    H143360   1.617   4.575  16.434  0.2509 -0.1893 -0.2807
 7315TIP3    H243361   1.516   4.566  16.322 -0.5411 -1.1919  0.5008
 7316TIP3   OH243362   4.139   2.659   3.709  0.6142 -0.1181 -0.2719
 7316TIP3    H143363   4.213   2.720   3.713 -0.0698  0.7214 -0.2518
 7316TIP3    H243364   4.140   2.625   3.619  1.1148 -0.2220 -0.2262
 7317TIP3   OH243365   4.934   1.360  13.626  0.2305 -0.2102 -0.6343
 7317TIP3    H143366   4.976   1.298  13.686 -0.7255  0.3188  0.6145
 7317TIP3    H243367   4.954   1.446  13.663  0.7945  0.2051 -1.8628
 7318TIP3   OH243368   4.208   5.141   5.675  0.4067 -0.1248 -0.0629
 7318TIP3    H143369   4.300   5.142   5.703  0.2967  0.0721  0.2785
 7318TIP3    H243370   4.161   5.192   5.741  0.4562  2.0500 -1.6493
 7319TIP3   OH243371   6.447   4.085  14.150 -1.0367  0.8143 -0.3435
 7319TIP3    H143372   6.455   4.035  14.068 -3.1809 -0.7599  0.3608
 7319TIP3    H243373   6.356   4.114  14.152 -1.1757  0.3157  1.7449
 7320TIP3   OH243374   5.774   4.342   2.373  0.8501  0.0156  0.3981
 7320TIP3    H143375   5.779   4.248   2.392  1.6648  0.0980  0.5783
 7320TIP3    H243376   5.853   4.360   2.323  0.4949  0.5292  0.0298
 7321TIP3   OH243377   4.092   0.641   0.121 -0.1838 -0.6315  0.0366
 7321TIP3    H143378   4.161   0.665   0.183 -0.3408  0.4493 -0.2044
 7321TIP3    H243379   4.015   0.688   0.151 -0.5847 -1.0896 -0.2566
 7322TIP3   OH243380   5.451   0.914   0.423 -0.0018 -0.2350 -0.0390
 7322TIP3    H143381   5.451   0.919   0.328  1.9028  2.1820  0.0396
 7322TIP3    H243382   5.362   0.938   0.449  0.5293  2.9709 -1.0814
 7323TIP3   OH243383   4.720   6.787  12.054 -0.4009 -0.1046 -0.8064
 7323TIP3    H143384   4.634   6.746  12.046 -0.0333 -1.0938  0.1578
 7323TIP3    H243385   4.746   6.771  12.145  0.6717  0.4354 -1.0065
 7324TIP3   OH243386   0.660   6.296   4.664 -0.2348 -0.0964 -0.1308
 7324TIP3    H143387   0.744   6.266   4.699  0.1739  0.7360 -0.3691
 7324TIP3    H243388   0.681   6.328   4.576 -0.6218  0.9557  0.1455
 7325TIP3   OH243389   6.578   3.996  11.831 -0.3436  0.2579 -0.4038
 7325TIP3    H143390   6.624   4.045  11.899  0.6626 -0.2535 -0.7081
 7325TIP3    H243391   6.602   3.905  11.847 -0.5911  0.0752 -1.0662
 7326TIP3   OH243392   2.147   3.572   4.992 -0.1837  0.1754  0.2772
 7326TIP3    H143393   2.062   3.553   5.032 -0.7892 -1.5311 -1.7360
 7326TIP3    H243394   2.126   3.625   4.915  0.6215  0.0289 -0.0439
 7327TIP3   OH243395   4.112   3.336   2.462  0.0458 -1.2880 -0.3687
 7327TIP3    H143396   4.149   3.421   2.439  0.0356 -1.2672 -0.3080
 7327TIP3    H243397   4.019   3.352   2.473 -0.3447 -1.7939 -2.7541
 7328TIP3   OH243398   1.240   0.351   3.716  0.2503  0.0613 -0.5995
 7328TIP3    H143399   1.225   0.258   3.701  1.9247 -0.3775  0.3643
 7328TIP3    H243400   1.178   0.374   3.786  0.0519 -0.3848 -0.6283
 7329TIP3   OH243401   5.006   1.952  15.940  0.1449 -0.5041 -0.1940
 7329TIP3    H143402   4.955   1.872  15.938 -2.4088  1.0638  0.6792
 7329TIP3    H243403   5.081   1.932  15.995 -1.0851 -1.9400  0.9736
 7330TIP3   OH243404   3.282   0.571   1.303  0.4228 -0.0826  0.5507
 7330TIP3    H143405   3.304   0.555   1.211  1.4894 -0.9484  0.9514
 7330TIP3    H243406   3.312   0.661   1.319  1.1237 -0.2702  0.3157
 7331TIP3   OH243407   5.054   5.885  16.236 -0.1148  0.3540 -0.0713
 7331TIP3    H143408   4.963   5.886  16.204  0.1105 -0.2847 -0.7483
 7331TIP3    H243409   5.072   5.793  16.253  0.3587  0.4965  0.2002
 7332TIP3   OH243410   6.207   0.928  16.348 -0.2576  0.5423 -0.6664
 7332TIP3    H143411   6.257   0.854  16.382  0.3518  0.8927 -0.8021
 7332TIP3    H243412   6.116   0.899  16.353  0.0533 -0.7949 -2.1051
 7333TIP3   OH243413   0.688   2.112  12.899  0.1918 -0.0511 -0.1261
 7333TIP3    H143414   0.737   2.165  12.962 -0.0720  0.3648 -0.2702
 7333TIP3    H243415   0.674   2.029  12.944  0.1397  0.1905  0.3034
 7334TIP3   OH243416   1.474   3.630  11.665  0.0016  0.2958 -0.6547
 7334TIP3    H143417   1.420   3.649  11.742  0.8203  1.2897 -0.3220
 7334TIP3    H243418   1.504   3.716  11.635 -0.7248 -0.0305 -2.3943
 7335TIP3   OH243419   6.568   3.001  13.265  0.8249 -0.0319 -0.5167
 7335TIP3    H143420   6.612   2.932  13.215  0.6344 -0.2648 -0.3635
 7335TIP3    H243421   6.631   3.074  13.265  1.4350 -0.5462  0.1455
 7336TIP3   OH243422   2.551   0.135  16.015 -0.4462 -0.6843  0.0323
 7336TIP3    H143423   2.626   0.075  16.013 -0.0693 -0.2291  0.2512
 7336TIP3    H243424   2.570   0.193  16.088  0.2690  1.0711 -1.4977
 7337TIP3   OH243425   1.223   3.183   6.423  0.5246 -0.5192 -0.0866
 7337TIP3    H143426   1.181   3.109   6.378  1.3487 -0.9114 -0.2209
 7337TIP3    H243427   1.155   3.250   6.427 -0.3791 -1.4392  0.4187
 7338TIP3   OH243428   2.219   3.337  14.080 -0.1406 -0.2421  0.4219
 7338TIP3    H143429   2.203   3.424  14.044  0.0640  0.5074  2.0899
 7338TIP3    H243430   2.289   3.350  14.144 -0.1616 -1.6248  0.7415
 7339TIP3   OH243431   2.141   5.603  13.922  0.3504  0.9865  0.3632
 7339TIP3    H143432   2.188   5.634  13.999 -0.2930 -2.0957  2.0815
 7339TIP3    H243433   2.210   5.585  13.858  0.9869  2.4317  0.6185
 7340TIP3   OH243434   4.512   4.979   0.040  0.6362 -0.0880  0.3461
 7340TIP3    H143435   4.597   4.936   0.052  1.6911  1.2373 -2.0755
 7340TIP3    H243436   4.496   4.975  -0.054 -1.5750  0.4512  0.6827
 7341TIP3   OH243437   2.791   3.075   0.788  0.4868 -0.4016 -0.1212
 7341TIP3    H143438   2.739   3.010   0.740  0.1665 -0.8220  0.8026
 7341TIP3    H243439   2.811   3.034   0.872  2.5246 -0.3377 -0.5448
 7342TIP3   OH243440   2.112   3.810   2.878  0.4436  0.1965 -0.1195
 7342TIP3    H143441   2.044   3.868   2.843  0.1235 -0.2967 -0.3204
 7342TIP3    H243442   2.075   3.722   2.871  0.5050  0.0620  1.1779
 7343TIP3   OH243443   1.099   6.229  16.690 -0.2329 -0.7899  0.0251
 7343TIP3    H143444   1.076   6.322  16.694 -1.5843 -1.0887 -0.6741
 7343TIP3    H243445   1.040   6.187  16.751  1.8736 -0.9290  2.0457
 7344TIP3   OH243446   0.547   6.756  14.712 -0.1951  0.3613  0.6901
 7344TIP3    H143447   0.580   6.666  14.714 -0.1996  0.3671  1.0185
 7344TIP3    H243448   0.531   6.773  14.619  1.6751  0.7035  0.4079
 7345TIP3   OH243449   3.676   3.150   4.271  0.1460 -0.2074 -0.0389
 7345TIP3    H143450   3.681   3.086   4.343 -1.0971  1.1385  1.2921
 7345TIP3    H243451   3.729   3.112   4.202  0.8524 -1.8667  1.3585
 7346TIP3   OH243452   5.941   0.349   5.240  0.1228 -0.3349  0.2515
 7346TIP3    H143453   5.977   0.290   5.173  0.4134 -0.7175  0.7494
 7346TIP3    H243454   5.865   0.301   5.274  0.0103 -0.1634  0.2417
 7347TIP3   OH243455   1.532   5.321   3.272  0.3073  0.3497  0.4950
 7347TIP3    H143456   1.445   5.327   3.233  0.2250  0.3591  0.6805
 7347TIP3    H243457   1.568   5.409   3.263 -0.2837  0.7274  1.7743
 7348TIP3   OH243458   3.687   2.637  17.004 -0.5452  0.3261  0.1196
 7348TIP3    H143459   3.661   2.694  17.076 -0.1478  1.5175 -0.6484
 7348TIP3    H243460   3.754   2.688  16.957  2.1972 -2.0641  1.2645
 7349TIP3   OH243461   4.347   6.206  11.709  0.1881  0.1422 -0.6600
 7349TIP3    H143462   4.296   6.244  11.781  1.1292 -1.1738  0.7271
 7349TIP3    H243463   4.284   6.157  11.658 -0.7672  2.2949 -1.6016
 7350TIP3   OH243464   3.394   4.657   0.326  0.4555  0.9791  0.2045
 7350TIP3    H143465   3.367   4.658   0.234  1.1953  0.7739 -0.0216
 7350TIP3    H243466   3.438   4.573   0.336  0.2654  0.9517  0.7807
 7351TIP3   OH243467   6.741   5.674   0.143  0.3674 -0.4874 -0.2232
 7351TIP3    H143468   6.706   5.752   0.099  0.8726  0.2890  0.7128
 7351TIP3    H243469   6.816   5.707   0.193  0.1871 -1.4558  0.7163
 7352TIP3   OH243470   5.659   5.735  17.190 -0.4219  0.9055  0.3131
 7352TIP3    H143471   5.667   5.697  17.103  2.0077  1.3000  0.3211
 7352TIP3    H243472   5.637   5.661  17.247 -2.3247  0.7030 -0.6484
 7353TIP3   OH243473   4.535   5.844   4.895 -0.1542  0.0222 -0.1992
 7353TIP3    H143474   4.584   5.768   4.925 -1.5213 -0.6855  0.2200
 7353TIP3    H243475   4.525   5.830   4.800  0.0003 -0.0797 -0.2008
 7354TIP3   OH243476   5.185   5.232  14.618 -0.5222 -0.1515 -0.5009
 7354TIP3    H143477   5.134   5.234  14.699 -0.5227  0.6378 -0.5164
 7354TIP3    H243478   5.120   5.227  14.549 -0.5323 -0.4436 -0.4727
 7355TIP3   OH243479   2.329   4.623   2.053  0.1204  0.1562  0.2089
 7355TIP3    H143480   2.354   4.534   2.079  0.4637  0.9400  2.6987
 7355TIP3    H243481   2.335   4.674   2.134 -1.3946  2.1681 -0.9108
 7356TIP3   OH243482   2.684   1.433  13.956 -0.1067  0.1403  0.0378
 7356TIP3    H143483   2.613   1.454  14.016  1.8037  2.4390  1.6275
 7356TIP3    H243484   2.743   1.377  14.007 -0.1471 -0.7146 -0.8380
 7357TIP3   OH243485   0.609   5.599  16.714 -0.5880 -0.0171  0.0646
 7357TIP3    H143486   0.623   5.530  16.649 -0.7163 -0.4000  0.4426
 7357TIP3    H243487   0.582   5.675  16.663 -0.7374 -0.3324 -0.3272
 7358TIP3   OH243488   4.304   4.064   3.316  0.7720 -0.1938 -0.0255
 7358TIP3    H143489   4.325   4.007   3.390  0.6412  0.6505  0.6739
 7358TIP3    H243490   4.335   4.150   3.343 -2.3403  0.8503  0.5244
 7359TIP3   OH243491   2.684   3.154  15.889  0.1065  0.1076 -0.3079
 7359TIP3    H143492   2.732   3.229  15.923  0.6039 -0.5511  0.4737
 7359TIP3    H243493   2.614   3.192  15.837  0.6622  1.1049 -0.3506
 7360TIP3   OH243494   4.158   0.596  14.820 -0.0791  0.2909  0.4205
 7360TIP3    H143495   4.252   0.613  14.828  0.0633 -0.9705  1.5828
 7360TIP3    H243496   4.129   0.655  14.750  1.5951  0.6045 -0.0319
 7361TIP3   OH243497   1.896   1.862  12.962  0.2665 -0.2147 -0.3685
 7361TIP3    H143498   1.821   1.902  13.006 -0.2876 -0.1846 -1.3401
 7361TIP3    H243499   1.950   1.829  13.034  2.0703  4.5450  0.6263
 7362TIP3   OH243500   2.023   3.228   3.421 -0.0632 -0.4301  0.0730
 7362TIP3    H143501   2.009   3.151   3.366 -0.7095 -0.8182  0.7652
 7362TIP3    H243502   2.001   3.302   3.364  0.1238 -0.7795 -0.4586
 7363TIP3   OH243503   3.783   0.852  16.400  0.1542 -0.0368 -0.5248
 7363TIP3    H143504   3.784   0.790  16.473  0.1910 -0.4853 -0.8989
 7363TIP3    H243505   3.788   0.938  16.441  0.4842 -0.2951 -0.0139
 7364TIP3   OH243506   0.252   1.795   1.731  0.3395 -0.1231 -0.1919
 7364TIP3    H143507   0.211   1.752   1.806 -0.7308 -1.0261 -1.2628
 7364TIP3    H243508   0.281   1.880   1.764 -0.6697 -0.2651  1.0871
 7365TIP3   OH243509   2.251   4.943   2.199 -0.1523 -0.5657 -0.6788
 7365TIP3    H143510   2.280   4.967   2.111 -1.2850  0.8034 -0.7149
 7365TIP3    H243511   2.314   4.878   2.229  0.2584 -1.0357 -2.4962
 7366TIP3   OH243512   1.100   6.740   1.103 -0.4433  0.3776  0.1468
 7366TIP3    H143513   1.144   6.656   1.091 -0.0882  0.4911  0.6538
 7366TIP3    H243514   1.171   6.803   1.116 -0.6571  0.9247 -1.2305
 7367TIP3   OH243515   4.716   6.538   5.490  0.4513  0.2722 -0.1498
 7367TIP3    H143516   4.787   6.544   5.553  1.5259  0.6097 -1.3712
 7367TIP3    H243517   4.667   6.619   5.502  1.1585  0.7339 -0.3365
 7368TIP3   OH243518   6.524   5.720  14.772  0.3597  0.4500 -0.0691
 7368TIP3    H143519   6.472   5.796  14.801 -1.6733 -1.2745  0.9631
 7368TIP3    H243520   6.474   5.644  14.802  2.5733 -1.3162 -0.7114
 7369TIP3   OH243521   4.255   3.529   4.664 -0.4733 -0.2184  0.2533
 7369TIP3    H143522   4.207   3.503   4.743 -0.6055 -0.8715 -0.0417
 7369TIP3    H243523   4.274   3.447   4.619 -0.5526  0.1649 -0.4897
 7370TIP3   OH243524   4.750   4.893   1.214  0.5799 -0.1804  0.5853
 7370TIP3    H143525   4.827   4.892   1.157  1.5099 -2.4420  1.8466
 7370TIP3    H243526   4.683   4.846   1.164 -0.5185  2.9850 -1.1143
 7371TIP3   OH243527   6.118   5.390   0.362  0.2518 -0.0141  0.1708
 7371TIP3    H143528   6.110   5.412   0.454 -0.9708 -1.3742  0.4098
 7371TIP3    H243529   6.210   5.364   0.351  0.5285  0.6543  0.8765
 7372TIP3   OH243530   6.230   5.452  12.273 -0.0927 -0.8425 -0.2930
 7372TIP3    H143531   6.227   5.543  12.245  0.7718 -0.4977  0.7140
 7372TIP3    H243532   6.168   5.407  12.215  0.4519  0.1341 -1.6586
 7373TIP3   OH243533   4.922   3.979   5.190 -0.6485 -0.1934  0.1256
 7373TIP3    H143534   4.981   3.910   5.160 -1.7611 -0.0133 -2.5819
 7373TIP3    H243535   4.979   4.055   5.203 -0.2463  0.0161 -2.5938
 7374TIP3   OH243536   5.804   2.948   2.126  0.3980  0.2680  0.4645
 7374TIP3    H143537   5.783   2.932   2.218  1.9835  2.0282  1.1513
 7374TIP3    H243538   5.824   2.861   2.091  3.3220 -0.0640  2.7110
 7375TIP3   OH243539   1.175   0.034   2.992 -0.0589 -0.8447 -0.1317
 7375TIP3    H143540   1.136   0.100   2.936  0.6045  1.0969  1.6290
 7375TIP3    H243541   1.262   0.019   2.956  0.5547  0.7688  0.6428
 7376TIP3   OH243542   1.202   0.382   5.261 -0.1521  0.1521 -0.0080
 7376TIP3    H143543   1.190   0.425   5.176 -2.1950 -0.2938  0.0280
 7376TIP3    H243544   1.279   0.424   5.299 -1.6744  3.3087 -0.2484
 7377TIP3   OH243545   5.982   4.031   3.511  0.2388 -0.7642 -0.0111
 7377TIP3    H143546   5.939   4.083   3.443 -1.6736 -0.5159  1.3502
 7377TIP3    H243547   5.966   3.940   3.485 -0.3142 -0.6700 -0.0131
 7378TIP3   OH243548   2.088   6.577   0.619  0.3097 -0.1813 -0.2064
 7378TIP3    H143549   2.161   6.627   0.585  0.5175 -0.4522 -0.1667
 7378TIP3    H243550   2.120   6.486   0.621  0.1773 -0.2213  0.3481
 7379TIP3   OH243551   6.094   3.976  11.801  0.1634  0.0355 -0.2656
 7379TIP3    H143552   6.080   3.970  11.707  1.0298  2.0067 -0.5679
 7379TIP3    H243553   6.173   3.924  11.817  1.9046  2.2500 -1.1956
 7380TIP3   OH243554   3.989   6.733   0.522  0.2963 -0.3601 -0.5282
 7380TIP3    H143555   4.085   6.733   0.517  0.2701 -0.2669 -0.9884
 7380TIP3    H243556   3.961   6.785   0.447 -0.0990  0.1108 -0.0651
 7381TIP3   OH243557   6.138   2.651  11.144 -0.1599  0.3804 -0.2334
 7381TIP3    H143558   6.077   2.716  11.109 -3.0668 -2.1848 -0.1275
 7381TIP3    H243559   6.159   2.595  11.069 -1.3490 -1.2837  0.6346
 7382TIP3   OH243560   4.175   2.147   4.270  0.5398  0.3015 -0.3874
 7382TIP3    H143561   4.168   2.056   4.242 -0.7047  0.1615  0.3711
 7382TIP3    H243562   4.262   2.152   4.310  0.4774 -0.6394 -0.1115
 7383TIP3   OH243563   3.116   2.938   3.966 -0.0978 -0.1065 -0.6790
 7383TIP3    H143564   3.166   2.915   3.887 -1.2598 -0.7792 -1.2266
 7383TIP3    H243565   3.070   3.018   3.942  2.3860  1.7383  0.5579
 7384TIP3   OH243566   5.082   3.364   6.122  0.9124 -0.0785 -0.2025
 7384TIP3    H143567   5.043   3.414   6.193  0.7501 -1.6678  0.8660
 7384TIP3    H243568   5.161   3.412   6.098  0.7305  0.6990  0.7492
 7385TIP3   OH243569   5.310   5.640   2.608  0.3302 -0.4592 -0.4264
 7385TIP3    H143570   5.221   5.673   2.593  0.6208  0.4167 -0.2951
 7385TIP3    H243571   5.348   5.634   2.521  0.1288 -0.8712 -0.4861
 7386TIP3   OH243572   1.694   3.666   2.812 -0.4762 -0.4256 -0.0291
 7386TIP3    H143573   1.674   3.614   2.734 -0.4088 -1.0876  0.3932
 7386TIP3    H243574   1.736   3.604   2.872  0.6307  0.3743  0.0372
 7387TIP3   OH243575   0.314   2.269  11.636  0.0419  0.2782  0.5428
 7387TIP3    H143576   0.254   2.300  11.568  0.1396  1.6498  1.0713
 7387TIP3    H243577   0.378   2.340  11.646  0.0829  0.0512  1.9946
 7388TIP3   OH243578   2.988   0.845  15.458 -0.2894 -0.1168  0.2247
 7388TIP3    H143579   2.962   0.918  15.403 -0.2551 -0.6371 -0.4904
 7388TIP3    H243580   3.082   0.853  15.467 -0.4759  0.8198  1.4466
 7389TIP3   OH243581   6.629   2.343   2.021  0.1497  0.5861  0.1885
 7389TIP3    H143582   6.594   2.254   2.027  0.5048  0.4726  0.5857
 7389TIP3    H243583   6.709   2.333   1.968 -0.2283  0.7903 -0.4246
 7390TIP3   OH243584   6.359   3.458   0.821  0.0542 -0.7093 -0.3979
 7390TIP3    H143585   6.402   3.407   0.890  0.6276 -0.7727 -0.8025
 7390TIP3    H243586   6.417   3.533   0.806  0.2054 -0.9828 -1.1989
 7391TIP3   OH243587   6.269   3.970   4.505  0.6432 -0.2186  0.0907
 7391TIP3    H143588   6.322   3.897   4.473 -1.1669 -1.5191 -0.0236
 7391TIP3    H243589   6.196   3.975   4.444 -0.6171  0.0039  1.5867
 7392TIP3   OH243590   6.077   3.443   5.705  0.1592 -0.1391  0.7968
 7392TIP3    H143591   5.991   3.434   5.746  0.4758 -0.7516  1.3308
 7392TIP3    H243592   6.085   3.536   5.687 -1.7385 -0.4044 -1.6834
 7393TIP3   OH243593   0.719   1.573   3.609 -0.4515  0.3430  0.2008
 7393TIP3    H143594   0.755   1.490   3.578 -0.8233 -0.6204  2.2476
 7393TIP3    H243595   0.719   1.629   3.532 -0.0218 -1.4938 -1.1864
 7394TIP3   OH243596   4.772   1.331  11.105 -0.0028  0.2198 -0.0988
 7394TIP3    H143597   4.682   1.345  11.134 -0.5457  1.0633 -2.0969
 7394TIP3    H243598   4.817   1.294  11.182 -2.0548 -0.2967  0.8793
 7395TIP3   OH243599   4.655   1.711  15.721  0.3060  0.3808  0.0591
 7395TIP3    H143600   4.696   1.654  15.787  0.9016 -1.1100 -1.5778
 7395TIP3    H243601   4.568   1.730  15.758  0.8710  0.1200  1.5835
 7396TIP3   OH243602   6.700   5.268   5.979  0.4357  0.5937  0.1630
 7396TIP3    H143603   6.707   5.180   6.015 -0.1249  0.5808  0.2429
 7396TIP3    H243604   6.667   5.321   6.052  0.8367  0.8838  0.1362
 7397TIP3   OH243605   0.189   1.547  12.031  0.2057 -0.0972  0.1825
 7397TIP3    H143606   0.273   1.592  12.031 -0.3902  1.0824 -2.3321
 7397TIP3    H243607   0.139   1.589  11.961 -1.6020 -2.3781  0.0504
 7398TIP3   OH243608   0.856   2.809  12.704  0.2844 -0.2364  0.9042
 7398TIP3    H143609   0.885   2.812  12.613  2.5588 -0.2343  1.6082
 7398TIP3    H243610   0.802   2.730  12.709  1.5274 -1.1733 -0.0710
 7399TIP3   OH243611   3.094   3.509  14.004 -0.3815 -0.2657  0.5767
 7399TIP3    H143612   3.117   3.601  14.021 -1.9029 -0.0168  1.4271
 7399TIP3    H243613   3.030   3.488  14.073 -0.0132 -1.9731  0.3964
 7400TIP3   OH243614   0.636   0.863   3.134 -0.4356  0.6920  0.2400
 7400TIP3    H143615   0.715   0.869   3.187  1.2531  1.5145 -2.2702
 7400TIP3    H243616   0.634   0.771   3.105 -0.7702  0.5136  0.8122
 7401TIP3   OH243617   2.376   2.937   2.892  0.1333  0.1746  0.0047
 7401TIP3    H143618   2.445   2.893   2.844  0.7126  1.2150 -0.1270
 7401TIP3    H243619   2.416   2.962   2.975 -0.2953  0.1160  0.2298
 7402TIP3   OH243620   3.599   1.855   4.951 -0.4603  0.4703 -0.1108
 7402TIP3    H143621   3.622   1.947   4.965 -2.0205  1.1061 -1.5043
 7402TIP3    H243622   3.528   1.838   5.013  2.9844 -1.2234  3.5460
 7403TIP3   OH243623   5.248   2.538  15.779  0.2846  0.2928 -0.2438
 7403TIP3    H143624   5.165   2.582  15.763  0.2627  0.1306 -0.5908
 7403TIP3    H243625   5.298   2.599  15.833  0.2330  0.7195 -0.6726
 7404TIP3   OH243626   6.485   6.229  12.857  0.2111 -0.0137 -0.2731
 7404TIP3    H143627   6.510   6.150  12.905  0.8270  0.1384 -0.3395
 7404TIP3    H243628   6.389   6.230  12.860  0.2498  0.0310  1.0100
 7405TIP3   OH243629   6.624   2.126   4.909 -0.2152  0.5781 -0.2725
 7405TIP3    H143630   6.706   2.175   4.917  0.0928 -0.1253  1.3497
 7405TIP3    H243631   6.610   2.090   4.997 -0.9870 -1.3159 -1.1383
 7406TIP3   OH243632   3.550   2.122   3.871 -0.3393  0.8482 -0.1354
 7406TIP3    H143633   3.578   2.190   3.932 -0.7282 -0.6014  1.6935
 7406TIP3    H243634   3.518   2.051   3.926 -0.8463 -0.4494 -2.0284
 7407TIP3   OH243635   4.491   4.856   5.928 -0.2730  0.4379  0.2216
 7407TIP3    H143636   4.425   4.923   5.942 -0.1341  0.6998 -0.3769
 7407TIP3    H243637   4.447   4.773   5.947 -0.3839  0.7126  1.1673
 7408TIP3   OH243638   0.603   0.771   4.530 -0.6207 -0.3344  0.0860
 7408TIP3    H143639   0.594   0.738   4.440 -1.1659  0.1735 -0.0461
 7408TIP3    H243640   0.517   0.807   4.551 -0.3728 -0.0792  0.6658
 7409TIP3   OH243641   2.339   6.096   2.521  0.3602 -0.5690 -0.3349
 7409TIP3    H143642   2.341   6.191   2.531 -1.1965 -0.2707 -2.4313
 7409TIP3    H243643   2.423   6.066   2.554  0.9128  1.5472  0.2307
 7410TIP3   OH243644   0.866   6.311   1.308  0.7765 -0.0064  0.0830
 7410TIP3    H143645   0.786   6.259   1.315  0.3046  0.7726  0.6651
 7410TIP3    H243646   0.850   6.369   1.233  2.6817 -3.0025 -2.7544
 7411TIP3   OH243647   3.263   1.564  16.214  0.2278 -0.3878 -0.0779
 7411TIP3    H143648   3.290   1.653  16.236  2.2397 -0.6603 -1.3762
 7411TIP3    H243649   3.269   1.517  16.297  0.1304  0.4469  0.4124
 7412TIP3   OH243650   4.802   5.593  14.893 -0.9412  0.0201  0.1676
 7412TIP3    H143651   4.763   5.514  14.930 -2.1271  1.1863  1.4415
 7412TIP3    H243652   4.894   5.590  14.922 -1.3600 -0.1103  1.5215
 7413TIP3   OH243653   0.598   1.881   0.877 -0.0254 -0.5650 -0.1884
 7413TIP3    H143654   0.515   1.840   0.899 -0.3556 -0.3583 -1.0094
 7413TIP3    H243655   0.576   1.943   0.807  0.6144  0.3591  0.4258
 7414TIP3   OH243656   1.164   4.215   3.633  0.1232 -0.3508 -0.4156
 7414TIP3    H143657   1.194   4.242   3.719 -0.4711 -0.4148 -0.1830
 7414TIP3    H243658   1.177   4.291   3.577  1.3452 -0.5956 -0.4783
 7415TIP3   OH243659   4.695   4.350   1.645  0.2501 -0.7554 -0.2113
 7415TIP3    H143660   4.733   4.431   1.611 -0.9535  0.2332  0.7248
 7415TIP3    H243661   4.763   4.284   1.632  1.3819  0.4798 -0.6803
 7416TIP3   OH243662   0.921   0.002  13.670  0.6682  0.8050  0.1691
 7416TIP3    H143663   0.998   0.057  13.683  1.3605 -0.6938  2.7419
 7416TIP3    H243664   0.956  -0.087  13.660 -0.6723  0.1768  0.8228
 7417TIP3   OH243665   6.034   1.363  12.873 -0.0922 -0.6895 -0.1955
 7417TIP3    H143666   5.987   1.354  12.956 -0.3301 -0.7830 -0.3397
 7417TIP3    H243667   6.123   1.334  12.892  0.1553  0.3680  0.3069
 7418TIP3   OH243668   6.719   3.698  12.134 -0.2601 -0.0060  0.0663
 7418TIP3    H143669   6.709   3.671  12.225 -2.6352 -1.2435 -0.5277
 7418TIP3    H243670   6.729   3.793  12.138  1.6455 -0.2431  1.7320
 7419TIP3   OH243671   1.630   0.573  11.118 -0.0471  0.2719 -0.2835
 7419TIP3    H143672   1.586   0.656  11.098 -0.3805  0.3361  0.6865
 7419TIP3    H243673   1.575   0.507  11.076 -1.3446  0.3146  1.2913
 7420TIP3   OH243674   2.859   2.910   0.257 -0.5313  0.4290 -0.4775
 7420TIP3    H143675   2.821   2.945   0.177 -0.9434 -0.7787 -0.8174
 7420TIP3    H243676   2.824   2.822   0.264  0.2929  0.1655  0.5008
 7421TIP3   OH243677   4.834   3.998  15.275 -0.9744  0.5230  0.1462
 7421TIP3    H143678   4.796   4.075  15.316  1.4087  1.1989  1.1557
 7421TIP3    H243679   4.810   3.926  15.334 -2.5909  0.5666 -0.4268
 7422TIP3   OH243680   6.402   1.430   5.745 -0.2682 -0.0316  0.4874
 7422TIP3    H143681   6.462   1.400   5.677 -0.5376  1.5940 -0.4858
 7422TIP3    H243682   6.457   1.477   5.807 -0.4677  1.1922 -0.2455
 7423TIP3   OH243683   2.557   5.401  14.642  0.1050  0.0449  0.0381
 7423TIP3    H143684   2.517   5.319  14.614  1.5185 -0.6326 -0.0534
 7423TIP3    H243685   2.601   5.434  14.564  1.0895 -0.0624  0.5387
 7424TIP3   OH243686   1.535   3.742   4.423  0.2219 -0.0990  0.0520
 7424TIP3    H143687   1.519   3.834   4.400  0.5942 -0.2508 -0.8544
 7424TIP3    H243688   1.454   3.713   4.464  0.2536  0.7570  0.7414
 7425TIP3   OH243689   6.179   1.400   0.313 -0.6331  0.7672  0.3284
 7425TIP3    H143690   6.242   1.369   0.378  0.1627 -2.6186 -1.9320
 7425TIP3    H243691   6.226   1.467   0.263  0.0755  0.5249  0.6733
 7426TIP3   OH243692   3.864   2.974   3.612 -0.4013  0.3348  0.2437
 7426TIP3    H143693   3.804   2.979   3.686  0.8614 -0.9343  1.3612
 7426TIP3    H243694   3.806   2.961   3.536 -1.6110  0.3014  1.1558
 7427TIP3   OH243695   3.091   6.046   1.276  0.2232 -0.1443 -0.3566
 7427TIP3    H143696   3.121   6.064   1.365 -0.6002 -1.9295  0.3030
 7427TIP3    H243697   3.103   6.129   1.230 -0.8338  1.2824  1.8320
 7428TIP3   OH243698   6.230   1.557   3.170  0.6830 -0.1188 -0.1495
 7428TIP3    H143699   6.312   1.592   3.206  0.7432 -1.0993  0.6927
 7428TIP3    H243700   6.161   1.605   3.216  0.7760 -0.1236 -0.0025
 7429TIP3   OH243701   1.417   0.643  14.785 -0.5689 -0.6784  0.3361
 7429TIP3    H143702   1.329   0.606  14.795 -1.0133  0.8156  2.1767
 7429TIP3    H243703   1.475   0.581  14.829 -1.1768  0.1702  2.3978
 7430TIP3   OH243704   3.729   2.989   1.881 -0.2780  0.0976 -0.5159
 7430TIP3    H143705   3.796   3.036   1.832  0.8934 -2.3470 -1.3298
 7430TIP3    H243706   3.661   2.970   1.816 -0.2959 -0.1548 -0.4251
 7431TIP3   OH243707   3.435   2.924   2.053 -0.2786 -0.4284 -0.3967
 7431TIP3    H143708   3.414   3.014   2.079 -1.1287 -0.5544 -0.6305
 7431TIP3    H243709   3.518   2.905   2.097 -0.9806 -0.1377  1.1191
 7432TIP3   OH243710   1.874   6.522   0.391  0.0336 -0.0033  0.0059
 7432TIP3    H143711   1.949   6.536   0.449 -0.8706  0.3137  1.0990
 7432TIP3    H243712   1.840   6.436   0.417  1.4451 -1.2677 -2.1095
 7433TIP3   OH243713   0.250   1.697  14.570  0.0067 -0.4644  0.1798
 7433TIP3    H143714   0.288   1.785  14.567 -1.3044  0.1446  1.2617
 7433TIP3    H243715   0.284   1.654  14.491  1.4384  0.6783  0.1533
 7434TIP3   OH243716   6.092   2.092   0.847 -0.2441  0.4863 -0.2258
 7434TIP3    H143717   6.083   2.009   0.894 -1.6308  2.7012  3.6123
 7434TIP3    H243718   6.028   2.086   0.776 -1.6471 -1.0047  1.1012
 7435TIP3   OH243719   5.503   6.384  16.350 -0.0742  0.3101 -0.5201
 7435TIP3    H143720   5.419   6.409  16.390 -0.7041  0.3202 -1.8194
 7435TIP3    H243721   5.497   6.289  16.339  0.5429  0.1642  0.4124
 7436TIP3   OH243722   6.149   3.384   2.837  0.0293 -0.1118  0.0275
 7436TIP3    H143723   6.198   3.384   2.919 -0.2844  0.1184  0.2146
 7436TIP3    H243724   6.112   3.296   2.830  1.0200 -0.4971 -0.4417
 7437TIP3   OH243725   5.645   6.597   5.700 -0.4696 -0.6134  0.1318
 7437TIP3    H143726   5.694   6.515   5.705 -0.9662 -0.9063  0.1995
 7437TIP3    H243727   5.600   6.603   5.785  0.0465  0.0299  0.3652
 7438TIP3   OH243728   3.544   1.045  16.322 -0.0645 -0.6475 -0.2183
 7438TIP3    H143729   3.506   1.029  16.408  0.3476  0.1622  0.1258
 7438TIP3    H243730   3.632   1.008  16.326 -0.3922 -1.4788 -0.6193
 7439TIP3   OH243731   4.709   1.294  16.156 -0.2654  0.3547 -0.6248
 7439TIP3    H143732   4.689   1.207  16.190 -2.0288  0.0361 -2.3812
 7439TIP3    H243733   4.797   1.286  16.118 -1.2085 -1.2500 -2.5851
 7440TIP3   OH243734   6.765   1.164   4.497 -0.1807 -0.1190  0.2775
 7440TIP3    H143735   6.757   1.194   4.406 -0.0328  1.0506  0.6476
 7440TIP3    H243736   6.859   1.164   4.514 -0.2357  0.0546  0.5678
 7441TIP3   OH243737   4.959   4.760  15.140  0.0843  0.2329 -0.0390
 7441TIP3    H143738   4.948   4.665  15.134 -0.3736  0.1739  1.5189
 7441TIP3    H243739   4.871   4.795  15.133  0.2508  0.5454 -0.5754
 7442TIP3   OH243740   1.833   3.328  13.657  0.1223 -0.2218  0.2119
 7442TIP3    H143741   1.927   3.317  13.645 -0.0892 -0.1562 -1.6246
 7442TIP3    H243742   1.818   3.308  13.749  1.7419 -1.5295  0.2036
 7443TIP3   OH243743   3.851   0.057  13.569  0.5081  0.0706 -0.0933
 7443TIP3    H143744   3.765   0.021  13.551  1.5495 -2.1047 -0.9373
 7443TIP3    H243745   3.869   0.116  13.497 -0.4072  0.7869  0.2604
 7444TIP3   OH243746   0.525   1.290   3.557 -0.0664 -0.5382 -0.5016
 7444TIP3    H143747   0.609   1.286   3.511  0.2655  0.3820  0.0062
 7444TIP3    H243748   0.476   1.215   3.524  1.5597 -2.0185  0.3940
 7445TIP3   OH243749   1.825   5.853  10.813  0.1580 -0.1370  0.5243
 7445TIP3    H143750   1.743   5.839  10.861  0.0165  1.0223  0.6446
 7445TIP3    H243751   1.882   5.897  10.877 -0.2076  1.8989 -0.5054
 7446TIP3   OH243752   2.449   5.357  16.490 -0.1881  0.1568 -0.5539
 7446TIP3    H143753   2.499   5.339  16.569 -2.5640 -1.0942  0.7008
 7446TIP3    H243754   2.365   5.391  16.521 -0.8954  0.2876 -2.5372
 7447TIP3   OH243755   0.687   1.867  13.144 -0.7658 -0.0388 -0.2427
 7447TIP3    H143756   0.610   1.810  13.140 -1.2810  0.6661 -0.4811
 7447TIP3    H243757   0.761   1.809  13.125 -1.3543 -0.4892 -1.2131
 7448TIP3   OH243758   5.051   1.690   5.704 -0.0507  0.5402  0.0139
 7448TIP3    H143759   5.029   1.616   5.761 -0.8957  0.0517 -0.9255
 7448TIP3    H243760   5.048   1.766   5.762  1.0765 -0.1791  1.0478
 7449TIP3   OH243761   0.813   1.024   0.814 -0.3265 -0.0164 -0.0581
 7449TIP3    H143762   0.817   1.117   0.792 -0.9631 -0.2381 -1.1541
 7449TIP3    H243763   0.734   0.993   0.772  0.7930 -1.4290 -1.1753
 7450TIP3   OH243764   0.633   3.112   2.547  0.0416  0.6574 -0.6899
 7450TIP3    H143765   0.551   3.101   2.594 -0.6420  1.7513 -1.5867
 7450TIP3    H243766   0.656   3.024   2.517 -0.7018  0.3177 -0.2706
 7451TIP3   OH243767   0.959   3.894  16.173  0.0124  0.4110 -0.1733
 7451TIP3    H143768   0.910   3.829  16.122  0.2614  1.0201 -1.2017
 7451TIP3    H243769   0.937   3.978  16.133  0.1897  0.9123  0.7473
 7452TIP3   OH243770   1.822   1.771  16.110  0.5326  0.4521 -0.1452
 7452TIP3    H143771   1.856   1.850  16.069 -0.4289  0.7135 -0.4534
 7452TIP3    H243772   1.751   1.802  16.167  0.6318 -0.1029  0.2797
 7453TIP3   OH243773   1.975   0.211   5.188 -0.1873  0.3475  0.2247
 7453TIP3    H143774   2.062   0.193   5.153 -0.4501  1.0348 -0.8073
 7453TIP3    H243775   1.930   0.258   5.117 -1.7060 -0.8179  0.3834
 7454TIP3   OH243776   3.672   5.814   3.712  0.1509 -1.0941 -0.3393
 7454TIP3    H143777   3.751   5.811   3.658  0.9904 -0.9383  0.8593
 7454TIP3    H243778   3.696   5.767   3.793 -0.3538  0.6206  0.8299
 7455TIP3   OH243779   6.229   0.922   1.753 -0.2312  0.1310  0.3389
 7455TIP3    H143780   6.222   1.016   1.737 -0.0961  0.2383  0.8932
 7455TIP3    H243781   6.313   0.912   1.798 -0.6107 -0.1535  0.9941
 7456TIP3   OH243782   3.003   6.310  14.811 -0.1055  0.5172  0.1082
 7456TIP3    H143783   3.066   6.382  14.808  0.5173 -0.0794 -2.1155
 7456TIP3    H243784   3.056   6.233  14.829 -0.0219 -0.1306 -2.7177
 7457TIP3   OH243785   6.370   4.123   1.880 -0.4321  0.3861 -0.3084
 7457TIP3    H143786   6.404   4.081   1.801 -1.1641 -1.3529  0.2963
 7457TIP3    H243787   6.285   4.159   1.854 -0.3400  0.4527 -0.5132
 7458TIP3   OH243788   0.224   3.831  12.476 -0.3729 -1.0896 -0.3521
 7458TIP3    H143789   0.137   3.790  12.475  0.6236 -3.2819 -1.1736
 7458TIP3    H243790   0.229   3.881  12.395 -1.0051 -0.6398 -0.1157
 7459TIP3   OH243791   3.771   2.230  12.915  0.3518 -0.2522  0.7372
 7459TIP3    H143792   3.849   2.282  12.932 -0.0737  0.4540  0.5660
 7459TIP3    H243793   3.782   2.151  12.968  2.1392 -1.1150 -0.8798
 7460TIP3   OH243794   3.391   3.499  13.603  0.1526 -0.0554  0.2014
 7460TIP3    H143795   3.381   3.520  13.511  1.1729 -1.7324 -0.3177
 7460TIP3    H243796   3.379   3.582  13.649  0.5081  0.9340 -1.4927
 7461TIP3   OH243797   4.061   6.012  11.209  0.1584 -0.2805  0.0794
 7461TIP3    H143798   4.092   6.079  11.269 -1.5313  0.1895  0.4492
 7461TIP3    H243799   4.065   6.053  11.122 -0.7135  0.2505  0.2854
 7462TIP3   OH243800   4.832   1.582   0.614 -0.6153 -0.7760  0.1314
 7462TIP3    H143801   4.823   1.559   0.707 -2.2055 -0.2200  0.1301
 7462TIP3    H243802   4.829   1.677   0.613 -1.8493 -0.8098 -0.5932
 7463TIP3   OH243803   0.565   0.765   0.053  0.4087  0.2510 -0.1474
 7463TIP3    H143804   0.486   0.712   0.063  0.9940 -0.7643 -0.8396
 7463TIP3    H243805   0.593   0.783   0.142  0.3879 -0.8880  0.0934
 7464TIP3   OH243806   2.953   3.225  14.704 -0.3335  0.0707  0.5983
 7464TIP3    H143807   3.016   3.273  14.757  0.6550  0.6549 -1.0750
 7464TIP3    H243808   2.933   3.147  14.756  1.0510  0.3286  1.5497
 7465TIP3   OH243809   1.278   6.308  15.774 -0.4447  0.2001 -0.0469
 7465TIP3    H143810   1.358   6.257  15.786 -0.2647 -0.0715 -2.1780
 7465TIP3    H243811   1.215   6.269  15.835  0.1553 -1.5687 -0.5312
 7466TIP3   OH243812   1.728   5.116  16.771 -0.0302  0.0447 -0.0096
 7466TIP3    H143813   1.708   5.123  16.865  1.4366  0.7054  0.2709
 7466TIP3    H243814   1.766   5.029  16.760  1.2290  0.5528  0.2918
 7467TIP3   OH243815   4.161   5.493  11.747 -0.5991  0.2533  0.4035
 7467TIP3    H143816   4.244   5.511  11.703 -0.4243 -0.7908  0.2871
 7467TIP3    H243817   4.176   5.516  11.838 -0.3260  0.4838  0.2993
 7468TIP3   OH243818   0.626   3.912   3.924  0.5081  0.1550  0.3802
 7468TIP3    H143819   0.703   3.863   3.894 -0.8014 -1.1526 -0.9672
 7468TIP3    H243820   0.655   4.003   3.927  1.9887 -0.2635 -0.5183
 7469TIP3   OH243821   3.162   0.229  16.278  0.7705  0.2210 -0.3897
 7469TIP3    H143822   3.254   0.211  16.300 -0.1694 -3.3950  1.0402
 7469TIP3    H243823   3.163   0.246  16.184  2.8510 -0.2438 -0.4841
 7470TIP3   OH243824   0.098   6.435   3.145 -0.1836 -0.0105 -0.4826
 7470TIP3    H143825   0.014   6.479   3.136 -1.3929 -2.1451  0.0663
 7470TIP3    H243826   0.112   6.427   3.239 -0.1639 -1.0908 -0.5657
 7471TIP3   OH243827   6.228   1.647  15.422  0.3367  0.2799 -0.2514
 7471TIP3    H143828   6.248   1.635  15.330 -1.0369 -0.8634 -0.4276
 7471TIP3    H243829   6.155   1.709  15.423  0.4314  0.3888  0.0771
 7472TIP3   OH243830   0.292   0.005   2.202 -0.2512 -0.2387  0.1831
 7472TIP3    H143831   0.322   0.087   2.241  1.4250 -0.2022 -1.1167
 7472TIP3    H243832   0.304   0.018   2.108  2.5948 -2.9553  0.1038
 7473TIP3   OH243833   3.882   6.100   6.402 -0.2294 -0.2253  0.3522
 7473TIP3    H143834   3.967   6.113   6.362  0.4860  0.9075  2.1806
 7473TIP3    H243835   3.839   6.185   6.398 -1.4685 -0.8951 -0.9662
 7474TIP3   OH243836   6.432   5.837  12.981  0.3078  0.2148 -0.1883
 7474TIP3    H143837   6.470   5.882  13.057 -1.1168 -0.5066  0.9603
 7474TIP3    H243838   6.399   5.754  13.015 -0.6540  0.0264 -1.5273
 7475TIP3   OH243839   3.980   2.012  10.367 -0.2982  0.0374 -0.0875
 7475TIP3    H143840   3.893   2.025  10.406 -1.2335 -3.3120 -0.9575
 7475TIP3    H243841   4.014   2.101  10.357 -1.2450  1.2280  5.5143
 7476TIP3   OH243842   1.897   2.967   3.475  0.0713 -0.1742 -0.0953
 7476TIP3    H143843   1.908   2.976   3.569 -0.1280 -0.7191 -0.0217
 7476TIP3    H243844   1.863   3.053   3.447  1.5874  0.4955  0.0965
 7477TIP3   OH243845   5.073   5.948   5.970 -0.1127 -0.2675  0.4947
 7477TIP3    H143846   5.110   5.968   5.884 -0.6295  3.0010  0.9408
 7477TIP3    H243847   5.115   6.011   6.029 -2.0766 -0.3659  2.0580
 7478TIP3   OH243848   3.357   2.809  13.065  0.1954  0.0015  0.6601
 7478TIP3    H143849   3.391   2.837  12.981  0.6077 -1.5402  0.2979
 7478TIP3    H243850   3.432   2.772  13.111 -0.2105 -0.0028  1.3425
 7479TIP3   OH243851   0.314   5.852  12.680 -0.2511 -0.5462 -0.0015
 7479TIP3    H143852   0.229   5.825  12.714  0.1853 -1.3082  0.4886
 7479TIP3    H243853   0.304   5.848  12.585 -1.5736  1.8943  0.0060
 7480TIP3   OH243854   0.380   0.274   2.246 -0.2857 -0.3794 -0.2356
 7480TIP3    H143855   0.366   0.306   2.157 -0.3490 -0.6189 -0.3135
 7480TIP3    H243856   0.414   0.349   2.294 -1.3930  0.0904 -0.1692
 7481TIP3   OH243857   4.652   4.128  11.260 -0.3903 -0.3539 -0.0807
 7481TIP3    H143858   4.737   4.157  11.228 -0.7084  1.1801  0.4137
 7481TIP3    H243859   4.596   4.126  11.183 -0.4332  0.5981 -0.0699
 7482TIP3   OH243860   3.970   2.140   4.664 -0.1196  0.1933  0.5210
 7482TIP3    H143861   3.902   2.073   4.666 -0.1313  0.1274 -1.1971
 7482TIP3    H243862   4.033   2.113   4.731 -1.2579 -0.2980  1.4090
 7483TIP3   OH243863   3.236   3.208   1.444  0.4878 -0.0947  0.8144
 7483TIP3    H143864   3.200   3.292   1.417  0.9188 -0.6821 -1.7247
 7483TIP3    H243865   3.316   3.198   1.393 -0.3083 -2.6703 -0.0365
 7484TIP3   OH243866   4.648   0.711   3.525 -0.2895 -0.0495  0.6845
 7484TIP3    H143867   4.717   0.762   3.568 -0.6235  1.4684 -0.5677
 7484TIP3    H243868   4.604   0.773   3.467 -1.1198 -1.6022 -0.3815
 7485TIP3   OH243869   5.529   6.545   1.412 -0.4351 -0.9403  0.3566
 7485TIP3    H143870   5.594   6.517   1.477  0.9112 -1.3087 -1.1082
 7485TIP3    H243871   5.499   6.463   1.372 -0.2343 -0.6311 -0.4312
 7486TIP3   OH243872   1.311   4.829  13.794  0.0177 -0.0372 -0.0333
 7486TIP3    H143873   1.288   4.772  13.721 -0.2959  0.7351 -0.5471
 7486TIP3    H243874   1.292   4.777  13.872  0.0439 -0.7495 -0.4974
 7487TIP3   OH243875   0.692   3.253   4.856  0.0242  0.4220 -0.3728
 7487TIP3    H143876   0.630   3.256   4.784 -0.2025  0.4922 -0.1780
 7487TIP3    H243877   0.649   3.200   4.923 -0.0790  0.9715 -0.0027
 7488TIP3   OH243878   2.143   3.593  11.411  0.0396 -0.0076  0.0459
 7488TIP3    H143879   2.205   3.666  11.416  0.5533 -0.4974  0.8678
 7488TIP3    H243880   2.059   3.634  11.389  0.5195  0.7303 -0.3939
 7489TIP3   OH243881   2.407   0.385   1.031 -0.0274  0.1612  0.3676
 7489TIP3    H143882   2.360   0.436   0.965  1.8427  0.6519 -0.6069
 7489TIP3    H243883   2.380   0.294   1.015 -0.5985  0.4271 -0.2037
 7490TIP3   OH243884   6.288   0.336   0.039 -0.3321 -0.1282 -0.0631
 7490TIP3    H143885   6.244   0.411   0.079  1.7603  0.1280  1.8538
 7490TIP3    H243886   6.365   0.374  -0.004 -1.1792 -0.7440 -2.2063
 7491TIP3   OH243887   1.804   2.538  12.747  0.3781  0.4121 -0.2164
 7491TIP3    H143888   1.731   2.579  12.795  0.2532  2.0318 -1.7548
 7491TIP3    H243889   1.761   2.489  12.677  0.6658 -0.6278  0.3116
 7492TIP3   OH243890   2.034   6.201   3.521  0.2498  0.1394  0.1896
 7492TIP3    H143891   1.982   6.144   3.464 -0.9568  0.6152  0.8043
 7492TIP3    H243892   2.038   6.284   3.473  0.7461 -0.0041 -0.0193
 7493TIP3   OH243893   6.411   6.638  16.058  0.5451  0.0954 -0.0426
 7493TIP3    H143894   6.458   6.720  16.071  0.1226  0.1592  1.2037
 7493TIP3    H243895   6.440   6.606  15.973  0.5560  1.6463 -0.6445
 7494TIP3   OH243896   1.165   0.979  14.342 -0.0061  0.0153 -0.0810
 7494TIP3    H143897   1.218   0.955  14.266 -2.1086 -0.5646 -1.3853
 7494TIP3    H243898   1.085   1.016  14.305 -1.3796 -0.9516  1.8527
 7495TIP3   OH243899   3.349   1.432   4.802  0.3576  0.1486 -0.1731
 7495TIP3    H143900   3.341   1.452   4.895 -0.4070  0.5959 -0.3274
 7495TIP3    H243901   3.349   1.336   4.798 -0.3937  0.1312  0.2290
 7496TIP3   OH243902   5.040   6.360   4.361  0.5262 -0.0134  0.2484
 7496TIP3    H143903   5.051   6.455   4.357  0.6048 -0.0061  0.5595
 7496TIP3    H243904   5.010   6.335   4.274  0.8571  0.2545  0.0568
 7497TIP3   OH243905   0.949   3.730  13.955  0.0513  0.0325  0.0981
 7497TIP3    H143906   0.961   3.653  14.010  1.1095 -0.3350 -0.6369
 7497TIP3    H243907   1.022   3.788  13.978  0.4334 -0.0713 -0.8154
 7498TIP3   OH243908   3.456   2.630  14.893  0.1589  0.5492 -0.4013
 7498TIP3    H143909   3.542   2.589  14.891  1.1815  2.6459 -1.3118
 7498TIP3    H243910   3.458   2.694  14.822 -1.7022  1.5132  0.3646
 7499TIP3   OH243911   0.774   1.782  13.794 -0.5654 -0.1774 -0.2035
 7499TIP3    H143912   0.816   1.858  13.753  1.1688 -0.2448  1.3266
 7499TIP3    H243913   0.823   1.707  13.760 -0.8521 -0.4322 -0.0476
 7500TIP3   OH243914   2.516   2.785   4.746  0.6517  0.3961 -0.0125
 7500TIP3    H143915   2.555   2.837   4.676 -1.5996  1.7832 -0.2832
 7500TIP3    H243916   2.483   2.850   4.808  0.4717 -0.7756  1.1489
 7501TIP3   OH243917   0.931   3.071  13.219 -0.2474  0.4508  0.0994
 7501TIP3    H143918   0.926   2.977  13.234  1.3035  0.9479  4.1413
 7501TIP3    H243919   1.023   3.094  13.234 -0.4802  2.5667 -1.3594
 7502TIP3   OH243920   0.643   5.309   5.298  0.9052 -0.4702 -0.0337
 7502TIP3    H143921   0.619   5.382   5.353  0.5070  0.0019 -0.8254
 7502TIP3    H243922   0.594   5.235   5.333  0.1292 -0.0264 -0.1861
 7503TIP3   OH243923   3.011   2.570   5.949  0.3546  0.5956 -0.9172
 7503TIP3    H143924   3.101   2.577   5.981  0.4047  0.7442 -1.0887
 7503TIP3    H243925   2.968   2.510   6.010  0.9758 -0.6903 -1.7314
 7504TIP3   OH243926   0.652   3.983  16.695 -0.3974  0.3750 -0.4331
 7504TIP3    H143927   0.633   3.958  16.785  0.6396 -1.8402 -0.7793
 7504TIP3    H243928   0.724   4.046  16.701 -0.3754  0.2787  0.2942
 7505TIP3   OH243929   2.036   2.429   2.092  0.2500 -0.7996  0.4190
 7505TIP3    H143930   1.978   2.370   2.139 -0.9451  0.2113  0.2401
 7505TIP3    H243931   2.119   2.381   2.084 -1.0001 -2.8193 -0.5931
 7506TIP3   OH243932   6.702   5.463   1.204  0.1340  0.1205  0.5801
 7506TIP3    H143933   6.689   5.375   1.168 -1.2451 -0.0217  1.3923
 7506TIP3    H243934   6.669   5.522   1.137  0.4008 -0.0098  0.3340
 7507TIP3   OH243935   5.574   3.045   2.314  0.0435  0.0032 -0.5480
 7507TIP3    H143936   5.539   3.108   2.251  0.5741  0.9648  0.1083
 7507TIP3    H243937   5.513   2.972   2.310 -0.7470  0.6777 -1.1134
 7508TIP3   OH243938   3.595   6.270  11.336 -0.8433 -0.1238  0.3479
 7508TIP3    H143939   3.545   6.220  11.400  0.3997 -0.4319  1.1030
 7508TIP3    H243940   3.553   6.251  11.252  0.0784 -3.0609  0.5160
 7509TIP3   OH243941   1.913   0.969   5.151 -0.0061 -0.1990  0.0015
 7509TIP3    H143942   1.817   0.969   5.145  0.0414  2.2685 -1.3735
 7509TIP3    H243943   1.937   0.877   5.140 -2.2675 -1.0516  1.6899
 7510TIP3   OH243944   4.314   5.802   5.047 -0.1339  0.1742  0.6264
 7510TIP3    H143945   4.400   5.818   5.007 -0.8069  1.7041 -0.2378
 7510TIP3    H243946   4.252   5.815   4.975 -0.9941 -3.0422  0.6945
 7511TIP3   OH243947   5.364   4.998  12.360  0.2053  0.3656 -0.0922
 7511TIP3    H143948   5.332   4.921  12.314  1.4006  0.2338 -0.7189
 7511TIP3    H243949   5.455   4.977  12.382  0.1139  1.0295  0.9914
 7512TIP3   OH243950   4.974   3.229  11.492 -0.5055 -0.0748  0.4264
 7512TIP3    H143951   5.005   3.139  11.491 -0.3937 -0.0342  0.0978
 7512TIP3    H243952   4.999   3.264  11.406 -2.2450 -0.3011 -0.1753
 7513TIP3   OH243953   6.263   6.100   5.357 -0.5378 -0.3366  0.6664
 7513TIP3    H143954   6.174   6.081   5.385 -1.2293  0.2134 -1.1189
 7513TIP3    H243955   6.291   6.021   5.311 -0.0512 -0.5500  1.3152
 7514TIP3   OH243956   5.665   4.660  16.021 -0.2858  0.3940 -0.6679
 7514TIP3    H143957   5.611   4.736  15.998 -1.7619  0.4709  2.6492
 7514TIP3    H243958   5.716   4.690  16.097  0.7468 -1.2698 -0.6807
 7515TIP3   OH243959   1.530   3.434  13.837 -0.0743 -0.6308  0.7117
 7515TIP3    H143960   1.579   3.496  13.782 -2.1147 -0.6894 -1.2278
 7515TIP3    H243961   1.502   3.365  13.777 -1.1335 -1.4571  2.1149
 7516TIP3   OH243962   5.124   2.589   4.102  0.2091 -0.1895  0.2097
 7516TIP3    H143963   5.207   2.636   4.110 -0.3031  0.6192  0.8718
 7516TIP3    H243964   5.091   2.614   4.016  1.2413 -1.4873 -0.5649
 7517TIP3   OH243965   0.385   6.399   5.432  0.1658  0.3502  0.2286
 7517TIP3    H143966   0.406   6.486   5.467 -2.1934  0.7895  0.6704
 7517TIP3    H243967   0.441   6.391   5.354  1.5210  1.6225  1.0326
 7518TIP3   OH243968   4.662   4.937   6.232 -0.3302  0.1446 -0.8566
 7518TIP3    H143969   4.610   4.985   6.167  0.6867  0.5290 -1.3944
 7518TIP3    H243970   4.620   4.958   6.316 -1.5810 -0.2652 -1.3675
 7519TIP3   OH243971   3.385   0.139   1.638 -0.1789  0.0295 -0.0743
 7519TIP3    H143972   3.303   0.186   1.652  0.1873  0.9081 -0.8221
 7519TIP3    H243973   3.453   0.205   1.652  0.4797 -1.0865  2.2285
 7520TIP3   OH243974   0.378   2.111   6.123 -0.0279 -0.1720  0.0488
 7520TIP3    H143975   0.440   2.046   6.090 -0.4573  0.4521 -2.0778
 7520TIP3    H243976   0.433   2.182   6.157  0.4395 -0.7783  0.5535
 7521TIP3   OH243977   5.069   2.478   3.103  0.3000 -0.2523  0.4091
 7521TIP3    H143978   5.141   2.435   3.149  0.9914  0.3707 -0.0868
 7521TIP3    H243979   5.046   2.551   3.160  1.1597  0.5224 -0.2300
 7522TIP3   OH243980   1.351   4.168  11.618  0.4130 -0.1442 -0.4614
 7522TIP3    H143981   1.352   4.140  11.710  2.0172 -0.1328 -0.4769
 7522TIP3    H243982   1.257   4.176  11.597  0.0254 -0.7900  0.9688
 7523TIP3   OH243983   3.009   3.935  15.532 -0.5915 -0.4949 -0.3378
 7523TIP3    H143984   3.056   3.864  15.489  0.7616  0.0109  0.2586
 7523TIP3    H243985   2.917   3.908  15.531 -0.3339 -1.3876 -1.7670
 7524TIP3   OH243986   6.429   5.372   2.434 -0.0598  0.1678  0.5938
 7524TIP3    H143987   6.491   5.358   2.362  0.5670  0.5083  1.0582
 7524TIP3    H243988   6.466   5.321   2.507 -0.9227 -0.5307  0.5512
 7525TIP3   OH243989   4.715   6.698   0.126 -0.4174 -0.0861  0.4341
 7525TIP3    H143990   4.686   6.763   0.062 -0.9639 -0.1925  0.5683
 7525TIP3    H243991   4.730   6.748   0.206  0.3480  0.0601  0.2042
 7526TIP3   OH243992   0.206   4.118   3.985 -0.1806  0.2455 -0.5287
 7526TIP3    H143993   0.294   4.093   4.015 -0.0594  0.2616 -0.8678
 7526TIP3    H243994   0.189   4.061   3.911 -0.2997  0.5137 -0.7085
 7527TIP3   OH243995   1.778   1.119  12.676 -0.2552 -0.1358  0.4400
 7527TIP3    H143996   1.766   1.213  12.690 -0.8173 -0.2101  0.4814
 7527TIP3    H243997   1.811   1.112  12.586 -0.6698  0.0686  0.2714
 7528TIP3   OH243998   0.765   2.153  17.174  0.0501 -0.2622 -0.3306
 7528TIP3    H143999   0.840   2.208  17.198 -0.6022  0.3238  0.3640
 7528TIP3    H244000   0.705   2.212  17.129 -0.2688 -0.6018 -0.3469
 7529TIP3   OH244001   1.788   4.037  11.210 -0.0870 -0.2376 -0.4045
 7529TIP3    H144002   1.803   4.067  11.299  4.5427 -3.0971 -0.0299
 7529TIP3    H244003   1.805   4.114  11.155  1.2746  0.4834  0.9951
 7530TIP3   OH244004   1.871   6.672  16.996  0.1941 -0.2639  0.0919
 7530TIP3    H144005   1.916   6.608  17.051 -0.9489 -2.1403 -1.1202
 7530TIP3    H244006   1.779   6.667  17.024 -0.0610  0.1645 -0.6615
 7531TIP3   OH244007   1.746   1.963   2.425  0.0138 -0.4221  0.0707
 7531TIP3    H144008   1.690   1.988   2.352  1.7154  2.2953 -0.3523
 7531TIP3    H244009   1.834   1.959   2.388  0.6843 -0.5810  1.6323
 7532TIP3   OH244010   0.033   0.938   3.537  0.7991  0.0530  0.1407
 7532TIP3    H144011   0.057   1.010   3.595 -0.0508  0.6951 -0.2984
 7532TIP3    H244012   0.024   0.862   3.596  1.6917  0.2937  0.5990
 7533TIP3   OH244013   4.744   4.719  14.936  0.2172  0.0696 -0.2092
 7533TIP3    H144014   4.821   4.669  14.964  1.1005  0.6396 -1.5863
 7533TIP3    H244015   4.769   4.757  14.852 -1.9514 -0.6075 -1.2019
 7534TIP3   OH244016   5.720   0.101  15.689  0.0407 -0.1905 -0.4014
 7534TIP3    H144017   5.808   0.083  15.656  0.9725 -0.6939  2.1932
 7534TIP3    H244018   5.662   0.065  15.623  1.7799  0.2474 -2.2179
 7535TIP3   OH244019   0.424   1.885   4.322 -0.4030  0.5637  0.0994
 7535TIP3    H144020   0.335   1.862   4.298 -0.4655  0.4745  0.4065
 7535TIP3    H244021   0.436   1.975   4.291 -0.0687  0.0260 -1.3381
 7536TIP3   OH244022   0.356   2.571  14.786 -0.4341 -0.2292 -0.0796
 7536TIP3    H144023   0.300   2.507  14.830 -0.1052  0.4007  1.2843
 7536TIP3    H244024   0.300   2.647  14.774  0.1158  0.3993  1.2783
 7537TIP3   OH244025   4.671   2.091   5.712 -0.2610  0.4542  0.1029
 7537TIP3    H144026   4.597   2.039   5.680 -1.2069  1.3744  0.7265
 7537TIP3    H244027   4.630   2.171   5.745  1.0574  1.0855  0.2080
 7538TIP3   OH244028   0.195   3.379  14.323 -0.0254 -0.0759  0.0928
 7538TIP3    H144029   0.221   3.384  14.414 -0.7808  1.7706  0.2348
 7538TIP3    H244030   0.119   3.321  14.323 -0.3364  0.3174  0.7333
 7539TIP3   OH244031   0.703   4.283   5.021 -0.0064  0.1967  0.5919
 7539TIP3    H144032   0.796   4.303   5.006 -0.0272  0.4029  0.7342
 7539TIP3    H244033   0.683   4.213   4.959 -0.2006  1.3112 -0.6395
 7540TIP3   OH244034   4.394   1.684  12.007  0.3338 -0.5474 -0.6224
 7540TIP3    H144035   4.326   1.639  11.957  0.1883  2.0141 -2.8258
 7540TIP3    H244036   4.355   1.768  12.031  1.6106 -0.3515  0.8446
 7541TIP3   OH244037   4.180   1.955   0.303 -0.2112 -0.2947  0.5116
 7541TIP3    H144038   4.249   1.980   0.242  0.0104 -0.2074  0.7982
 7541TIP3    H244039   4.199   1.863   0.324  0.0740 -0.1431  0.9298
 7542TIP3   OH244040   0.215   3.755   1.648 -0.5883  0.1604  0.2764
 7542TIP3    H144041   0.287   3.693   1.636 -2.1364 -1.5521 -0.4646
 7542TIP3    H244042   0.248   3.838   1.614  1.2754 -0.4175  0.6222
 7543TIP3   OH244043   1.962   4.853  15.915  0.7908  0.6557  0.9424
 7543TIP3    H144044   1.983   4.786  15.850  3.0128  0.9533  1.3128
 7543TIP3    H244045   1.957   4.934  15.865  2.9400  0.9566  1.1524
 7544TIP3   OH244046   2.628   5.323  15.267  0.1750  0.4916  0.2981
 7544TIP3    H144047   2.634   5.418  15.275  3.1400  0.3113  0.7179
 7544TIP3    H244048   2.625   5.291  15.357  0.0055  0.1471  0.1712
 7545TIP3   OH244049   1.618   3.372   1.695  0.2804  0.2676 -0.1326
 7545TIP3    H144050   1.543   3.314   1.699 -0.3348  1.0442 -0.2032
 7545TIP3    H244051   1.694   3.314   1.702 -0.3169 -0.5359 -0.2378
 7546TIP3   OH244052   0.451   2.252  12.847 -0.0380 -0.6712 -0.4893
 7546TIP3    H144053   0.519   2.249  12.915 -1.9980  0.4124  1.6194
 7546TIP3    H244054   0.391   2.182  12.872 -1.3931  0.5085 -0.3997
 7547TIP3   OH244055   1.395   1.513  12.761  0.1340 -0.2297 -0.2315
 7547TIP3    H144056   1.350   1.563  12.692 -0.0713  0.4586  0.3937
 7547TIP3    H244057   1.477   1.559  12.774 -0.1366  0.0573  0.4769
 7548TIP3   OH244058   0.740   0.718   5.272 -0.5739 -0.0554  0.0427
 7548TIP3    H144059   0.815   0.694   5.326 -0.5869 -1.6303 -0.5961
 7548TIP3    H244060   0.778   0.742   5.187 -0.4757  3.3342  0.9854
 7549TIP3   OH244061   3.174   4.461   0.825  0.9151 -0.5212 -0.1204
 7549TIP3    H144062   3.090   4.430   0.860 -0.1655  2.6655  0.2437
 7549TIP3    H244063   3.151   4.502   0.742  2.0589  0.6624  0.1386
 7550TIP3   OH244064   4.088   0.376   5.823  0.3445  0.3409 -0.0452
 7550TIP3    H144065   4.082   0.435   5.747  2.6951  0.2253 -0.3769
 7550TIP3    H244066   4.004   0.386   5.868 -0.4237  1.7314 -1.7115
 7551TIP3   OH244067   5.546   3.317   5.511 -0.1377 -0.2957  0.3311
 7551TIP3    H144068   5.627   3.283   5.472 -0.5302 -0.4626 -0.3574
 7551TIP3    H244069   5.483   3.245   5.501 -0.4522 -0.0588  0.5953
 7552TIP3   OH244070   1.446   1.281   4.710  0.1020 -0.3264 -0.1890
 7552TIP3    H144071   1.395   1.330   4.645 -1.6159  2.5003  3.0855
 7552TIP3    H244072   1.386   1.215   4.743  0.9955 -1.8084 -1.4800
 7553TIP3   OH244073   6.336   0.636  14.524  0.1391  0.1311  0.5028
 7553TIP3    H144074   6.306   0.606  14.438 -0.2920  0.4742  0.5313
 7553TIP3    H244075   6.337   0.731  14.518 -1.9077  0.2379  1.5419
 7554TIP3   OH244076   5.205   5.838  15.114 -0.3133  0.3739  0.2654
 7554TIP3    H144077   5.119   5.872  15.089 -0.0814  0.8608  0.1276
 7554TIP3    H244078   5.242   5.806  15.031  0.1993  1.4185  0.0808
 7555TIP3   OH244079   1.337   1.422   4.115 -0.4636 -0.1002  0.9127
 7555TIP3    H144080   1.369   1.417   4.205 -2.0359 -2.8054  1.3693
 7555TIP3    H244081   1.291   1.506   4.111 -0.0024  0.2426  2.4981
 7556TIP3   OH244082   3.416   3.616  12.782 -0.3376 -0.7224 -0.3060
 7556TIP3    H144083   3.458   3.595  12.866  0.5291 -0.5800 -0.6960
 7556TIP3    H244084   3.330   3.650  12.807  0.0149 -0.4187  0.5480
 7557TIP3   OH244085   0.415   5.415  12.587 -0.4153 -0.2322  0.3816
 7557TIP3    H144086   0.461   5.367  12.518  0.2684  1.0701 -0.0894
 7557TIP3    H244087   0.363   5.481  12.540 -1.1965 -0.3810  1.0304
 7558TIP3   OH244088   0.231   2.253  16.920  0.4598 -0.0835  0.1044
 7558TIP3    H144089   0.168   2.257  16.992  0.6140  0.5591  0.2035
 7558TIP3    H244090   0.178   2.267  16.841  0.6456  1.7247  0.2776
 7559TIP3   OH244091   5.650   3.289  14.476 -0.3462  0.0413  0.8007
 7559TIP3    H144092   5.682   3.200  14.485  0.8978  0.3634 -0.3250
 7559TIP3    H244093   5.728   3.342  14.466 -1.1778  0.8997 -1.4472
 7560TIP3   OH244094   1.763   0.769   4.093  0.1912  0.4251 -0.0574
 7560TIP3    H144095   1.733   0.759   4.002 -0.5871 -3.8466  0.5705
 7560TIP3    H244096   1.683   0.789   4.142  0.1917  0.1379  0.0588
 7561TIP3   OH244097   2.822   5.026   0.048  0.1103  0.4660  0.3558
 7561TIP3    H144098   2.770   5.030  -0.033  0.8322  1.2796 -0.0717
 7561TIP3    H244099   2.779   5.088   0.107 -1.1154 -0.9909  1.0124
 7562TIP3   OH244100   1.402   0.933   0.058  0.2006 -0.0760  0.2310
 7562TIP3    H144101   1.344   0.879   0.004 -0.1864 -0.7601  1.3050
 7562TIP3    H244102   1.345   0.969   0.126  1.0584 -0.9956  1.4745
 7563TIP3   OH244103   0.167   1.377  10.745 -0.1579 -0.0549 -0.1133
 7563TIP3    H144104   0.254   1.356  10.779 -0.3205 -0.4111  0.0851
 7563TIP3    H244105   0.161   1.473  10.750  1.2905  0.2287 -2.6792
 7564TIP3   OH244106   1.856   0.077   3.403 -0.1944  0.4720 -0.4484
 7564TIP3    H144107   1.766   0.094   3.433 -0.4609  0.6574 -1.3287
 7564TIP3    H244108   1.857   0.111   3.313  0.8999  0.9163 -0.2700
 7565TIP3   OH244109   2.441   0.084   4.776 -0.5402 -0.3451  0.2966
 7565TIP3    H144110   2.450   0.056   4.685  1.7965  0.3721  0.2942
 7565TIP3    H244111   2.347   0.100   4.786 -0.8110 -0.2513 -2.0320
 7566TIP3   OH244112   4.147   4.810  14.409  0.5777  0.6859  0.0409
 7566TIP3    H144113   4.222   4.868  14.419  1.2234 -0.3688  1.4202
 7566TIP3    H244114   4.180   4.723  14.432 -1.2790  0.3579  1.5694
 7567TIP3   OH244115   3.006   3.758   1.655 -0.1303  0.3111 -0.0182
 7567TIP3    H144116   3.100   3.738   1.658 -0.2000  0.2376  2.2627
 7567TIP3    H244117   3.002   3.852   1.639  0.2390 -0.2983 -4.6119
 7568TIP3   OH244118   5.076   3.529   3.852  0.5157 -0.1995  0.4351
 7568TIP3    H144119   5.025   3.603   3.820 -0.4742 -1.3549 -0.7436
 7568TIP3    H244120   5.122   3.562   3.929 -3.4073  0.3859  2.6302
 7569TIP3   OH244121   1.715   4.949   4.890 -0.1651  0.0768  0.3333
 7569TIP3    H144122   1.687   4.926   4.801  0.3153  1.6685 -0.2504
 7569TIP3    H244123   1.728   5.044   4.887  2.4743 -0.2195  1.3690
 7570TIP3   OH244124   4.347   2.713   4.569 -0.4730 -0.7987 -0.1017
 7570TIP3    H144125   4.305   2.762   4.640 -0.2840 -0.0675 -0.4930
 7570TIP3    H244126   4.432   2.688   4.604 -0.8060 -1.3648  0.3116
 7571TIP3   OH244127   6.778   3.859   6.173 -0.1092  0.0380  0.4774
 7571TIP3    H144128   6.686   3.872   6.152 -0.0202  0.3841  0.2932
 7571TIP3    H244129   6.786   3.766   6.194 -0.3150 -0.1893 -0.4331
 7572TIP3   OH244130   2.259   6.378  11.619  0.0053 -0.7620  0.6571
 7572TIP3    H144131   2.163   6.377  11.612  0.1205 -0.0305 -1.3172
 7572TIP3    H244132   2.277   6.450  11.679 -0.6664 -0.2889  0.3069
 7573TIP3   OH244133   3.371   1.726   5.186 -0.3772 -0.1001 -0.3919
 7573TIP3    H144134   3.325   1.791   5.133 -0.9219 -0.9873 -1.0137
 7573TIP3    H244135   3.409   1.776   5.258  0.4986  1.1543 -1.6954
 7574TIP3   OH244136   6.534   5.403  13.591  0.3916  0.6773  0.2223
 7574TIP3    H144137   6.619   5.437  13.564  1.8745 -0.8046  2.7691
 7574TIP3    H244138   6.508   5.460  13.663 -0.2711  0.4880  0.1320
 7575TIP3   OH244139   3.208   4.258   2.164 -0.5054  0.1152 -0.0766
 7575TIP3    H144140   3.285   4.313   2.182 -0.3890  0.0390 -0.3298
 7575TIP3    H244141   3.197   4.265   2.069 -1.3470  0.8304  0.0687
 7576TIP3   OH244142   4.850   4.451  15.612  0.5140 -0.4003  0.2691
 7576TIP3    H144143   4.791   4.448  15.687 -0.1694  0.1354 -0.2338
 7576TIP3    H244144   4.792   4.453  15.536  1.1884 -0.4075 -0.2530
 7577TIP3   OH244145   6.029   1.414   4.218  0.3485  0.5746 -0.0504
 7577TIP3    H144146   6.015   1.345   4.153 -0.3651 -0.0898  0.7964
 7577TIP3    H244147   5.957   1.404   4.279  1.6006  0.4847  1.4491
 7578TIP3   OH244148   4.197   3.523   1.317 -0.2508  0.4558  0.1353
 7578TIP3    H144149   4.208   3.433   1.348  0.4647  0.6120  0.3385
 7578TIP3    H244150   4.286   3.554   1.300 -0.3666  1.7102  1.7268
 7579TIP3   OH244151   2.589   3.284   0.406 -0.3555  0.8679 -0.5305
 7579TIP3    H144152   2.511   3.267   0.460  1.0907 -0.1510  1.2994
 7579TIP3    H244153   2.647   3.211   0.425  1.3594  2.0096 -1.2802
 7580TIP3   OH244154   6.028   3.257  12.631 -0.0599 -0.1294  0.1919
 7580TIP3    H144155   5.950   3.312  12.619 -0.6063 -0.6247  1.3607
 7580TIP3    H244156   6.033   3.243  12.725  0.8702 -0.9508  0.0285
 7581TIP3   OH244157   3.038   2.882   4.783 -0.0315  0.1823 -0.4695
 7581TIP3    H144158   3.082   2.954   4.737 -0.0292 -1.2111 -2.7422
 7581TIP3    H244159   2.955   2.872   4.737 -0.0675 -1.2111 -0.1085
 7582TIP3   OH244160   6.157   3.027   2.862  0.1547 -0.1236 -0.6959
 7582TIP3    H144161   6.176   3.057   2.951  0.9974 -0.5591 -0.7192
 7582TIP3    H244162   6.234   3.052   2.812  0.4642 -1.4705 -0.9149
 7583TIP3   OH244163   5.853   6.106  15.965 -0.0841  0.0549  0.2464
 7583TIP3    H144164   5.817   6.082  15.880 -0.3252  1.6736 -0.1291
 7583TIP3    H244165   5.805   6.185  15.990 -1.4907 -1.5589  2.8630
 7584TIP3   OH244166   1.667   3.556  10.642  0.4770  0.8653  0.3944
 7584TIP3    H144167   1.628   3.596  10.720  2.7654  1.2547  1.3639
 7584TIP3    H244168   1.672   3.628  10.579  1.8004  1.3883  1.0906
 7585TIP3   OH244169   6.513   1.151  12.493  0.0920 -0.1603  0.0740
 7585TIP3    H144170   6.578   1.175  12.559  0.4599  2.3289 -1.1559
 7585TIP3    H244171   6.429   1.166  12.536  0.3296  1.4320  0.0216
 7586TIP3   OH244172   2.553   0.531  14.724  0.1791 -0.1411  0.0249
 7586TIP3    H144173   2.466   0.526  14.684 -0.4146  0.9206  1.1203
 7586TIP3    H244174   2.548   0.607  14.782  1.5831 -0.5679  0.7331
 7587TIP3   OH244175   3.078   4.016   5.691  0.0118 -0.2569 -0.2525
 7587TIP3    H144176   3.025   3.939   5.673  0.9925 -0.9717 -0.1448
 7587TIP3    H244177   3.114   4.042   5.606  0.3431 -0.4220 -0.1662
 7588TIP3   OH244178   3.274   5.991   4.708  0.1017 -1.1304  0.2593
 7588TIP3    H144179   3.313   6.053   4.771 -1.1068 -0.5703  0.4712
 7588TIP3    H244180   3.184   5.979   4.739  0.0041 -2.1735 -0.4018
 7589TIP3   OH244181   0.150   4.226   0.023 -0.2105  0.3253  0.0608
 7589TIP3    H144182   0.223   4.279   0.053  0.0548  0.0545 -0.1088
 7589TIP3    H244183   0.120   4.179   0.102  1.1625 -1.2015 -0.3053
 7590TIP3   OH244184   6.482   4.630  16.341 -0.0014 -0.8054 -0.0265
 7590TIP3    H144185   6.466   4.671  16.426 -0.6308 -0.0237 -0.5156
 7590TIP3    H244186   6.436   4.686  16.279  1.5449 -0.6420 -1.0390
 7591TIP3   OH244187   2.405   0.816  16.852 -0.0277 -0.1622 -0.0500
 7591TIP3    H144188   2.384   0.903  16.819  0.0763 -0.5745 -1.2034
 7591TIP3    H244189   2.329   0.763  16.830  0.7376 -0.8247 -1.1046
 7592TIP3   OH244190   0.737   5.800   4.184  0.6178 -0.3057  0.0655
 7592TIP3    H144191   0.658   5.753   4.211 -0.1512  0.0270 -1.5547
 7592TIP3    H244192   0.776   5.830   4.266 -0.4317 -1.2782  0.9432
 7593TIP3   OH244193   0.371   6.148   2.475 -0.6158 -0.4364  0.8240
 7593TIP3    H144194   0.408   6.071   2.518  0.6146  0.0198  0.6029
 7593TIP3    H244195   0.361   6.122   2.383  1.1271  0.1242  0.4639
 7594TIP3   OH244196   3.597   6.648  16.390  0.3202  0.0065  0.1924
 7594TIP3    H144197   3.671   6.588  16.380  0.8142  0.5249  0.7007
 7594TIP3    H244198   3.622   6.725  16.339 -0.0372  0.0355  0.0566
 7595TIP3   OH244199   0.498   5.264   6.500 -0.5276  0.4945 -0.4355
 7595TIP3    H144200   0.410   5.279   6.535 -0.5150 -2.0355  0.8080
 7595TIP3    H244201   0.484   5.239   6.409 -1.1142  0.2931 -0.2947
 7596TIP3   OH244202   5.038   2.681  15.106  0.0430 -0.4974 -0.1484
 7596TIP3    H144203   4.994   2.609  15.060  0.6416  0.6191 -2.5866
 7596TIP3    H244204   5.116   2.640  15.144 -0.1183 -1.3338 -0.7017
 7597TIP3   OH244205   6.680   3.667   2.133  0.4930 -0.7397 -0.1118
 7597TIP3    H144206   6.711   3.578   2.150  2.1932 -0.6777 -2.5901
 7597TIP3    H244207   6.759   3.722   2.140 -0.4967  0.5630  1.1658
 7598TIP3   OH244208   6.419   3.070   4.956  0.5515 -0.1201  0.3808
 7598TIP3    H144209   6.414   2.996   4.896 -0.0063  1.1674 -1.2204
 7598TIP3    H244210   6.328   3.091   4.977  0.6881  0.2849  0.5866
 7599TIP3   OH244211   4.689   1.038  16.248 -0.1160 -0.0081 -0.2030
 7599TIP3    H144212   4.738   0.973  16.297  0.5937 -0.6257 -1.7048
 7599TIP3    H244213   4.622   0.988  16.202 -0.4085  0.4894 -0.3257
 7600TIP3   OH244214   5.643   1.704  15.540  0.2354 -0.6648 -0.0909
 7600TIP3    H144215   5.708   1.634  15.531  1.9223  0.6353  1.5691
 7600TIP3    H244216   5.596   1.683  15.621 -0.1978 -0.6344 -0.3350
 7601TIP3   OH244217   6.369   3.125   2.677  0.0056  0.1437 -0.2335
 7601TIP3    H144218   6.455   3.165   2.688  1.0174 -2.2191  0.8005
 7601TIP3    H244219   6.369   3.091   2.587  0.5693 -0.7504  0.0948
 7602TIP3   OH244220   3.406   2.176   6.244  0.9348 -0.2407  0.1074
 7602TIP3    H144221   3.475   2.236   6.272  0.5481 -0.9494  2.6970
 7602TIP3    H244222   3.350   2.230   6.188  2.3041  0.9543 -0.1637
 7603TIP3   OH244223   1.083   4.052  12.355  0.4643  0.5827 -0.0055
 7603TIP3    H144224   1.027   4.071  12.430  0.5037  0.3651  0.0785
 7603TIP3    H244225   1.148   3.989  12.388  0.8543  0.9513 -0.0594
 7604TIP3   OH244226   1.843   4.308   1.403  0.0388 -0.2173 -0.0629
 7604TIP3    H144227   1.873   4.389   1.362 -0.5787  0.6935  1.2457
 7604TIP3    H244228   1.779   4.272   1.341  0.3418  0.2714 -0.6621
 7605TIP3   OH244229   0.231   0.625  16.147  0.6196 -0.0769 -0.3510
 7605TIP3    H144230   0.290   0.643  16.220 -2.3721  1.8759  1.6848
 7605TIP3    H244231   0.229   0.529  16.142  1.1638 -0.2331  1.8845
 7606TIP3   OH244232   6.664   6.771   2.694  0.5535 -0.0456 -0.3836
 7606TIP3    H144233   6.707   6.743   2.775 -1.6100 -2.4427  0.0096
 7606TIP3    H244234   6.705   6.718   2.626 -1.7833 -2.4859  0.0187
 7607TIP3   OH244235   4.131   4.050   0.624  0.3906 -0.4031  0.0255
 7607TIP3    H144236   4.070   4.115   0.590 -0.6424 -0.0465  2.4573
 7607TIP3    H244237   4.170   4.092   0.701  1.2290 -1.8927  0.4302
 7608TIP3   OH244238   5.812   6.370  15.741 -0.7889  0.4025 -0.1654
 7608TIP3    H144239   5.864   6.378  15.821 -1.2995  0.1069  0.2007
 7608TIP3    H244240   5.852   6.431  15.679 -0.7658  1.0757  0.5153
 7609TIP3   OH244241   1.818   5.924   1.966  0.3272  0.1473 -0.6115
 7609TIP3    H144242   1.877   5.855   1.998 -0.2642 -0.6177 -1.1627
 7609TIP3    H244243   1.856   5.951   1.883  0.8376  0.8430 -0.1561
 7610TIP3   OH244244   1.514   6.171  15.776 -0.4266 -0.3860  0.3879
 7610TIP3    H144245   1.527   6.159  15.682 -0.4132 -0.0882  0.3517
 7610TIP3    H244246   1.487   6.084  15.807  0.1140 -0.6238  0.2076
 7611TIP3   OH244247   6.521   6.686   2.323  0.1615 -0.1303  0.0168
 7611TIP3    H144248   6.479   6.761   2.282  0.3930 -0.4944 -0.9107
 7611TIP3    H244249   6.608   6.717   2.347  0.9598 -0.6084 -2.0988
 7612TIP3   OH244250   5.469   5.992   5.124 -0.3575  0.4444  0.0311
 7612TIP3    H144251   5.533   6.055   5.158  0.0779  0.5174 -0.9053
 7612TIP3    H244252   5.465   6.009   5.030 -0.9762 -0.2652 -0.0843
 7613TIP3   OH244253   5.937   6.430   5.871  0.3256  0.0625  0.0635
 7613TIP3    H144254   5.926   6.518   5.909  0.6644  0.3312 -0.4535
 7613TIP3    H244255   5.970   6.446   5.782 -0.7506 -0.5536 -0.4589
 7614TIP3   OH244256   5.167   6.663   5.456 -0.8349  0.4113  0.2479
 7614TIP3    H144257   5.212   6.601   5.514  1.0950  0.3238 -1.2878
 7614TIP3    H244258   5.134   6.609   5.384 -1.9081  0.7385  0.4835
 7615TIP3   OH244259   0.908   4.045   1.159 -0.5249 -0.0192  0.0775
 7615TIP3    H144260   0.997   4.058   1.126 -0.6329 -1.0866 -0.6450
 7615TIP3    H244261   0.871   3.977   1.103 -2.0624  0.9505 -0.1145
 7616TIP3   OH244262   3.625   0.479  16.116  0.2708 -0.3029 -0.2352
 7616TIP3    H144263   3.616   0.551  16.054 -3.0827  1.4086  2.1188
 7616TIP3    H244264   3.611   0.400  16.064  1.5124  0.8308 -2.3575
 7617TIP3   OH244265   5.690   2.742  14.755 -0.5219  0.2528 -0.2564
 7617TIP3    H144266   5.675   2.804  14.827 -2.7649  0.2938 -0.7161
 7617TIP3    H244267   5.694   2.797  14.677  3.1365  0.3352 -0.1080
 7618TIP3   OH244268   2.910   3.137  13.050  0.2084  0.3703 -0.0014
 7618TIP3    H144269   2.927   3.139  13.144  0.6188 -0.7689 -0.0391
 7618TIP3    H244270   2.959   3.060  13.019 -0.7957  0.1104 -0.9581
 7619TIP3   OH244271   4.248   1.906  14.268  0.2117  0.3828  0.3220
 7619TIP3    H144272   4.171   1.958  14.243 -1.0779 -1.5364  0.2423
 7619TIP3    H244273   4.258   1.923  14.362 -0.0094  1.0100  0.2400
 7620TIP3   OH244274   6.279   1.430   4.317  0.4629  0.0316 -0.1071
 7620TIP3    H144275   6.203   1.443   4.260  0.5160 -0.4987 -0.3079
 7620TIP3    H244276   6.337   1.373   4.267  0.7785  0.0476  0.2370
 7621TIP3   OH244277   1.607   0.857  11.409  0.2557 -0.0579  0.4193
 7621TIP3    H144278   1.564   0.790  11.356 -0.2752 -0.1679  0.9858
 7621TIP3    H244279   1.581   0.837  11.499 -2.2274  2.5672  0.3637
 7622TIP3   OH244280   1.434   5.703   4.989 -0.2499 -0.3535  0.8059
 7622TIP3    H144281   1.409   5.622   4.945  0.5971 -0.5961  0.7651
 7622TIP3    H244282   1.529   5.702   4.989 -0.2211  1.2905 -0.3704
 7623TIP3   OH244283   2.498   3.073  16.342  0.1439 -0.0774  0.4674
 7623TIP3    H144284   2.530   3.018  16.413  0.6679 -0.6258 -0.1873
 7623TIP3    H244285   2.479   3.012  16.271  2.0893  0.6924 -0.7693
 7624TIP3   OH244286   0.093   1.078   2.629  0.0040  0.3174  0.3529
 7624TIP3    H144287   0.163   1.104   2.690  1.2151 -1.9402 -0.0048
 7624TIP3    H244288   0.068   0.990   2.658 -1.6582  0.5057 -0.4640
 7625TIP3   OH244289   6.546   5.146  15.556 -0.2602 -0.1491  0.1440
 7625TIP3    H144290   6.608   5.190  15.498 -0.2934 -0.8699 -0.4486
 7625TIP3    H244291   6.549   5.196  15.637 -0.8881  1.4450 -0.7863
 7626TIP3   OH244292   5.395   3.437   0.670 -0.2665 -0.0491  0.1958
 7626TIP3    H144293   5.446   3.396   0.600  1.1594  0.5040  0.8762
 7626TIP3    H244294   5.442   3.414   0.750 -1.3686  0.0826  0.8871
 7627TIP3   OH244295   5.870   1.627  16.508 -0.3562  0.5962  0.3358
 7627TIP3    H144296   5.961   1.596  16.504 -0.1934  1.2143 -0.7808
 7627TIP3    H244297   5.876   1.711  16.554 -0.1483  1.4396 -1.2180
 7628TIP3   OH244298   6.347   5.401  15.235 -0.2353  0.1971 -0.4601
 7628TIP3    H144299   6.293   5.450  15.296  0.4857  0.5500 -0.0984
 7628TIP3    H244300   6.298   5.403  15.153  0.1087  2.1219 -0.6440
 7629TIP3   OH244301   1.986   1.673  13.447  0.4384  0.1486  0.2684
 7629TIP3    H144302   2.015   1.725  13.522 -0.0749  0.2633  0.3865
 7629TIP3    H244303   1.891   1.668  13.457  0.2915  0.8326 -0.8093
 7630TIP3   OH244304   2.429   3.557  15.600 -0.1461  0.2748  0.4692
 7630TIP3    H144305   2.347   3.575  15.646 -0.1547  1.2468  0.0763
 7630TIP3    H244306   2.497   3.568  15.667 -0.2454  0.5404  0.5252
 7631TIP3   OH244307   0.891   1.984   0.651  0.7328  0.2946  0.1984
 7631TIP3    H144308   0.870   2.057   0.709  0.0388  0.9162 -0.8156
 7631TIP3    H244309   0.853   1.908   0.694  0.5190  0.6962  0.7346
 7632TIP3   OH244310   0.925   4.766  12.961 -0.6160 -0.7278 -0.5751
 7632TIP3    H144311   0.840   4.804  12.985 -0.2433  0.1250 -0.5990
 7632TIP3    H244312   0.976   4.768  13.041 -0.3349 -0.4831 -0.7611
 7633TIP3   OH244313   1.436   3.741   4.009 -0.4464  0.0417 -0.5010
 7633TIP3    H144314   1.501   3.671   4.008  0.6255  1.0433 -1.2860
 7633TIP3    H244315   1.384   3.723   4.088 -0.6429 -2.0352 -1.0657
 7634TIP3   OH244316   6.658   5.347  11.846 -0.9194  0.3947  0.0385
 7634TIP3    H144317   6.662   5.276  11.911  0.2399  0.2641 -0.1595
 7634TIP3    H244318   6.733   5.331  11.789 -0.1250  2.3046  0.5329
 7635TIP3   OH244319   1.632   6.443  11.998  0.7448 -0.2722  0.3280
 7635TIP3    H144320   1.583   6.507  12.049  1.8806  0.6016  0.3504
 7635TIP3    H244321   1.635   6.365  12.053 -2.6535 -1.1728 -0.6570
 7636TIP3   OH244322   3.302   0.927   1.943 -0.2782 -0.2720  0.0552
 7636TIP3    H144323   3.302   0.953   1.851  1.3333  3.1697  0.9227
 7636TIP3    H244324   3.212   0.942   1.972 -0.6915 -0.9770 -0.8429
 7637TIP3   OH244325   6.730   1.004   1.974 -0.1863 -0.3512 -0.5501
 7637TIP3    H144326   6.817   1.007   2.013 -0.5763 -1.0130  0.3857
 7637TIP3    H244327   6.744   0.968   1.886  0.4234 -0.9514 -0.2116
 7638TIP3   OH244328   5.206   4.755   1.755 -0.3311  0.0378  0.5287
 7638TIP3    H144329   5.225   4.836   1.707  0.5132 -0.3039  0.2734
 7638TIP3    H244330   5.287   4.736   1.803  1.2753 -3.3132 -3.2568
 7639TIP3   OH244331   2.597   6.161  15.406 -0.4825  0.8420  0.4216
 7639TIP3    H144332   2.607   6.189  15.315 -1.9318  2.0037  0.6052
 7639TIP3    H244333   2.681   6.182  15.447 -0.4244  1.9023 -0.2346
 7640TIP3   OH244334   6.026   4.491   5.634 -0.6813  0.8106 -0.1021
 7640TIP3    H144335   6.090   4.520   5.699 -0.8981  0.5143  0.2399
 7640TIP3    H244336   6.057   4.529   5.552  0.5549 -0.2309 -0.1328
 7641TIP3   OH244337   6.295   0.134  11.919  0.0645 -0.1404 -0.0211
 7641TIP3    H144338   6.320   0.116  11.829  2.3170  2.6113 -0.0156
 7641TIP3    H244339   6.218   0.190  11.913 -0.1849 -0.5058 -0.2170
 7642TIP3   OH244340   3.026   2.302  13.333  0.0104 -0.2191  0.7589
 7642TIP3    H144341   3.061   2.242  13.399 -5.4759 -4.4784  0.1451
 7642TIP3    H244342   2.967   2.360  13.381  0.9422  0.9632  0.4993
 7643TIP3   OH244343   6.128   6.692   6.234 -0.1907 -0.1449  0.3374
 7643TIP3    H144344   6.134   6.780   6.197  0.0400 -0.5151 -0.5233
 7643TIP3    H244345   6.047   6.693   6.286 -0.5512  0.3646 -0.2300
 7644TIP3   OH244346   4.306   0.372  13.060  0.0507  0.0643 -0.5885
 7644TIP3    H144347   4.400   0.377  13.044 -0.3155  1.4442 -2.4872
 7644TIP3    H244348   4.278   0.463  13.064 -1.4479 -0.3326 -1.6197
 7645TIP3   OH244349   5.263   3.212  14.124  0.0496 -0.3677 -0.3932
 7645TIP3    H144350   5.323   3.258  14.066  0.9337 -0.8375  0.1295
 7645TIP3    H244351   5.303   3.219  14.210 -1.3352  0.4615  0.1939
 7646TIP3   OH244352   0.944   4.027   4.656  0.6233 -0.3104 -0.8122
 7646TIP3    H144353   1.019   4.083   4.674  1.8010 -1.7206 -1.3103
 7646TIP3    H244354   0.970   3.940   4.685 -1.7552 -0.3876  1.3841
 7647TIP3   OH244355   0.959   1.225   4.574  0.2363 -0.1227  1.3065
 7647TIP3    H144356   0.932   1.274   4.652  0.1929 -0.1606  1.3151
 7647TIP3    H244357   0.883   1.172   4.551  0.8304 -1.4290  2.2762
 7648TIP3   OH244358   6.074   2.336   4.312 -0.5239 -0.0995  0.4142
 7648TIP3    H144359   6.029   2.253   4.326 -1.0305  0.0818 -0.1385
 7648TIP3    H244360   6.026   2.378   4.240 -1.1153  1.2713  1.5670
 7649TIP3   OH244361   1.107   2.300   1.507  0.4033  0.2906 -0.2208
 7649TIP3    H144362   1.062   2.287   1.591  1.5871  2.5085  0.7894
 7649TIP3    H244363   1.145   2.215   1.487 -0.1197 -0.3339  1.3514
 7650TIP3   OH244364   1.703   6.674   4.917 -0.1214  0.4260  0.8846
 7650TIP3    H144365   1.769   6.605   4.910 -1.4488 -0.8779  1.1232
 7650TIP3    H244366   1.672   6.687   4.827 -0.2344  0.3773  0.9179
 7651TIP3   OH244367   0.533   5.625   2.366  0.4009 -0.0446 -0.0896
 7651TIP3    H144368   0.609   5.574   2.337  0.6205 -0.1019  0.5911
 7651TIP3    H244369   0.459   5.566   2.352  0.6314 -0.4786  0.5100
 7652TIP3   OH244370   3.172   0.420  15.340 -0.0854 -0.5096 -0.2838
 7652TIP3    H144371   3.123   0.493  15.380 -0.6888 -0.8776 -0.3364
 7652TIP3    H244372   3.247   0.407  15.398  0.4139  0.6228 -0.6621
 7653TIP3   OH244373   0.318   4.855  16.450  0.2530 -0.1651 -0.8174
 7653TIP3    H144374   0.326   4.762  16.472  2.1264 -0.1920 -1.5354
 7653TIP3    H244375   0.326   4.859  16.355 -1.4428  0.5991 -0.9592
 7654TIP3   OH244376   0.934   2.299  14.470 -0.0074 -0.0922 -0.0979
 7654TIP3    H144377   0.966   2.288  14.380 -3.7448 -0.9581 -1.4458
 7654TIP3    H244378   0.924   2.210  14.503 -0.7574  0.1511  0.3507
 7655TIP3   OH244379   2.489   6.531  14.063 -0.1663 -0.0776  0.5780
 7655TIP3    H144380   2.531   6.547  13.978  0.8261  0.9424  1.2497
 7655TIP3    H244381   2.560   6.536  14.126 -1.0281 -0.0540  1.5587
 7656TIP3   OH244382   1.518   1.967  11.308  0.5290  0.4419  0.2237
 7656TIP3    H144383   1.559   1.918  11.237 -0.6564  1.4478 -1.1985
 7656TIP3    H244384   1.518   2.058  11.278 -1.5097  0.6567  0.7467
 7657TIP3   OH244385   1.504   0.500  15.703  0.0796  0.0013  0.2889
 7657TIP3    H144386   1.534   0.584  15.738  2.0139 -0.3632 -0.4030
 7657TIP3    H244387   1.414   0.491  15.735  0.4786  1.4570  1.9071
 7658TIP3   OH244388   0.533   4.399   0.124  0.0298 -0.2660  0.1992
 7658TIP3    H144389   0.618   4.403   0.168  0.0035 -0.6877  0.2851
 7658TIP3    H244390   0.480   4.465   0.168  0.8691  1.2790 -1.0309
 7659TIP3   OH244391   4.353   1.329   3.330 -0.2619  0.0392 -0.2548
 7659TIP3    H144392   4.272   1.322   3.380  0.0939 -0.0247  0.3159
 7659TIP3    H244393   4.419   1.354   3.394  0.2009 -0.0604 -0.6872
 7660TIP3   OH244394   0.555   1.253  15.449 -0.2287  0.4938 -0.1682
 7660TIP3    H144395   0.511   1.283  15.528  3.1133  0.4237  1.8057
 7660TIP3    H244396   0.635   1.307  15.444  1.3750 -1.9066 -1.5382
 7661TIP3   OH244397   5.991   2.039  14.131  0.2851  0.8117  0.2312
 7661TIP3    H144398   6.005   2.030  14.037  0.5980 -1.1788  0.4539
 7661TIP3    H244399   5.916   1.983  14.150  1.2153 -0.0577  1.4249
 7662TIP3   OH244400   5.831   0.951   2.883 -0.4003  0.4819  0.4015
 7662TIP3    H144401   5.858   1.031   2.839 -0.9133  1.0186  1.0550
 7662TIP3    H244402   5.913   0.903   2.898  0.0797  1.6024  1.3967
 7663TIP3   OH244403   2.900   4.817  16.715 -0.3336  0.4733  0.4081
 7663TIP3    H144404   2.906   4.906  16.750  1.7859  0.7237 -0.5434
 7663TIP3    H244405   2.990   4.792  16.696 -1.0899 -1.1075 -1.2583
 7664TIP3   OH244406   5.975   2.289  13.094 -0.0450  0.0969 -0.2353
 7664TIP3    H144407   5.961   2.338  13.175 -0.3024  0.4522 -0.4891
 7664TIP3    H244408   5.889   2.253  13.073  0.5436 -2.0808  0.9683
 7665TIP3   OH244409   3.789   4.980  13.907 -0.0244  0.1200  0.4088
 7665TIP3    H144410   3.822   5.058  13.862 -2.9997  1.1813 -0.0687
 7665TIP3    H244411   3.850   4.967  13.980  2.4775  0.8218 -1.4993
 7666TIP3   OH244412   5.907   4.220  12.933  0.5908  0.4427  0.1257
 7666TIP3    H144413   5.904   4.315  12.942  0.5409  0.3489  1.2300
 7666TIP3    H244414   5.891   4.203  12.840 -0.6889  1.4459  0.1543
 7667TIP3   OH244415   4.720   2.082  14.826  0.8130 -0.0771 -0.6444
 7667TIP3    H144416   4.775   2.071  14.903  1.7878  0.2523 -1.2819
 7667TIP3    H244417   4.670   2.000  14.820  0.9066 -0.1949  0.1974
 7668TIP3   OH244418   6.262   3.427  12.709 -0.4055 -0.3493 -0.1202
 7668TIP3    H144419   6.286   3.371  12.635 -0.7325  0.4774 -0.8605
 7668TIP3    H244420   6.170   3.409  12.724  0.0737 -1.7837  1.2060
 7669TIP3   OH244421   4.656   5.446  15.347 -0.0151  0.1695  0.0658
 7669TIP3    H144422   4.571   5.427  15.385 -0.3366  1.8808  0.1917
 7669TIP3    H244423   4.650   5.536  15.317  1.1137 -0.2930 -1.6501
 7670TIP3   OH244424   5.464   1.429  15.824 -0.2342 -0.3106 -0.1834
 7670TIP3    H144425   5.406   1.394  15.756  1.5351 -2.3937 -0.6665
 7670TIP3    H244426   5.459   1.366  15.895  1.8137 -0.8189 -0.4529
 7671TIP3   OH244427   5.173   3.695  15.031  0.3298  0.2823  0.0530
 7671TIP3    H144428   5.219   3.674  14.949  1.5037  1.1090  0.4798
 7671TIP3    H244429   5.213   3.637  15.096 -0.1576  0.0783  0.1723
 7672TIP3   OH244430   2.128   3.785  11.725  0.2000 -0.1229  0.8062
 7672TIP3    H144431   2.205   3.825  11.685 -0.2128 -0.9140 -0.8655
 7672TIP3    H244432   2.147   3.691  11.724 -0.3222 -0.2372  1.3957
 7673TIP3   OH244433   6.784   0.141   5.513  1.0583 -0.1514 -0.2988
 7673TIP3    H144434   6.743   0.055   5.509  0.2119  0.2337 -0.1467
 7673TIP3    H244435   6.715   0.201   5.484  1.7795  0.4296 -0.8374
 7674TIP3   OH244436   0.567   3.180  13.525 -0.1099  0.0331  0.4074
 7674TIP3    H144437   0.562   3.184  13.620 -0.8727  2.0582  0.2992
 7674TIP3    H244438   0.489   3.225  13.495  1.3388  1.5572 -1.1914
 7675TIP3   OH244439   3.619   0.463   2.346  0.0994  0.3263  0.4601
 7675TIP3    H144440   3.593   0.542   2.393  2.8941  1.0641  0.8060
 7675TIP3    H244441   3.705   0.483   2.310  0.3286 -2.1486 -0.4741
 7676TIP3   OH244442   6.500   6.020   1.001  0.2547  0.3573  0.2544
 7676TIP3    H144443   6.536   6.102   0.966  1.5417 -0.4696 -0.3935
 7676TIP3    H244444   6.556   6.000   1.076  2.0147 -1.6261 -1.5410
 7677TIP3   OH244445   5.865   3.071   5.848 -0.2507 -0.2016 -0.0021
 7677TIP3    H144446   5.812   3.126   5.906 -0.7831  0.9234 -1.5293
 7677TIP3    H244447   5.940   3.125   5.827 -0.1475 -0.5476 -0.5076
 7678TIP3   OH244448   3.334   3.033   2.862 -0.1624  0.2061 -0.4067
 7678TIP3    H144449   3.385   3.113   2.853  0.2681 -0.0336 -0.1164
 7678TIP3    H244450   3.352   2.983   2.783  1.7485 -0.8358  0.6434
 7679TIP3   OH244451   2.991   3.615  12.543  0.7355  0.2730 -0.6739
 7679TIP3    H144452   3.017   3.705  12.524 -2.0115  1.4298  0.8198
 7679TIP3    H244453   2.968   3.578  12.458  1.5302  1.0629 -1.2500
 7680TIP3   OH244454   0.702   6.355  16.700 -0.8402 -0.3060  0.1129
 7680TIP3    H144455   0.686   6.448  16.713  2.5427  0.1140  2.0004
 7680TIP3    H244456   0.682   6.315  16.785  0.1120 -0.8861  0.0771
 7681TIP3   OH244457   6.699   1.258   4.746 -0.3164 -0.5242 -0.4714
 7681TIP3    H144458   6.719   1.254   4.653 -0.5263 -1.2738 -0.4852
 7681TIP3    H244459   6.770   1.311   4.783 -1.4945  1.7858 -1.3963
 7682TIP3   OH244460   0.649   3.152   1.832 -0.0227  0.1061 -0.1906
 7682TIP3    H144461   0.693   3.091   1.892 -1.2997 -1.0527 -0.4135
 7682TIP3    H244462   0.661   3.113   1.745 -1.5708 -0.3032 -0.2440
 7683TIP3   OH244463   2.601   5.347  17.029  0.5481  0.2159 -0.9951
 7683TIP3    H144464   2.631   5.272  16.979 -1.8767  0.1593 -2.4647
 7683TIP3    H244465   2.543   5.310  17.096  0.0944  0.6920 -1.1224
 7684TIP3   OH244466   6.200   6.550  13.598 -0.0811  0.6640  0.0026
 7684TIP3    H144467   6.121   6.575  13.550 -0.4706  1.2361  0.9264
 7684TIP3    H244468   6.219   6.461  13.568 -0.9527  0.6016 -0.3791
 7685TIP3   OH244469   4.466   5.349   5.473 -0.2236 -0.1732  0.4706
 7685TIP3    H144470   4.488   5.256   5.478  0.2439 -0.1126 -0.2896
 7685TIP3    H244471   4.455   5.376   5.564  0.9432 -0.6693  0.7692
 7686TIP3   OH244472   3.881   2.452  11.117 -0.2446 -0.1114 -0.1591
 7686TIP3    H144473   3.953   2.506  11.149 -0.3670 -0.6016  0.9744
 7686TIP3    H244474   3.920   2.398  11.048  0.9763 -1.7450  1.7366
 7687TIP3   OH244475   3.842   2.658  15.464 -0.1072 -0.2706 -0.2097
 7687TIP3    H144476   3.795   2.584  15.425 -1.1189 -0.0365  0.5660
 7687TIP3    H244477   3.929   2.654  15.424  0.2930 -2.6863  0.8181
 7688TIP3   OH244478   5.441   4.193  13.783 -0.2435 -0.3123 -0.0543
 7688TIP3    H144479   5.352   4.165  13.759 -0.4222 -0.1650  0.4353
 7688TIP3    H244480   5.489   4.193  13.700 -0.6210 -0.6862 -0.2756
 7689TIP3   OH244481   4.486   2.474  15.968  0.0982  0.7404  0.5177
 7689TIP3    H144482   4.456   2.403  15.911  2.3392  1.1624 -1.2231
 7689TIP3    H244483   4.470   2.441  16.057 -1.7624 -0.6563 -0.2899
 7690TIP3   OH244484   3.238   1.943   6.159 -0.1145  0.9516 -0.5066
 7690TIP3    H144485   3.291   2.022   6.154  0.2716  0.8276  1.2125
 7690TIP3    H244486   3.302   1.871   6.156 -0.1773  0.7947  1.3353
 7691TIP3   OH244487   3.444   0.703   2.693  0.1028  0.2031  0.1996
 7691TIP3    H144488   3.492   0.733   2.770 -2.8697  1.9285  1.4616
 7691TIP3    H244489   3.383   0.637   2.727 -1.4872  1.2459 -0.5990
 7692TIP3   OH244490   1.409   4.508  12.609  0.4748 -0.0852 -0.7644
 7692TIP3    H144491   1.468   4.539  12.678  0.5423  0.5796 -1.1157
 7692TIP3    H244492   1.339   4.463  12.656 -1.1352  3.0256  0.0003
 7693TIP3   OH244493   4.135   2.041   5.577 -0.5618 -0.0343 -0.4792
 7693TIP3    H144494   4.079   2.018   5.503 -0.2348  0.2421 -0.8134
 7693TIP3    H244495   4.124   2.136   5.587  1.1336  0.3029 -1.6104
 7694TIP3   OH244496   1.988   0.019  12.081  0.2693 -0.0415 -0.1829
 7694TIP3    H144497   1.956   0.094  12.130 -1.0409 -0.4901 -0.3237
 7694TIP3    H244498   1.983   0.046  11.989 -1.5380 -0.7594 -0.3300
 7695TIP3   OH244499   4.426   0.252  16.490 -0.2377 -0.7925 -0.2687
 7695TIP3    H144500   4.441   0.166  16.530  2.3912 -1.3238 -2.2960
 7695TIP3    H244501   4.375   0.234  16.412  0.2127 -0.5041 -0.6312
 7696TIP3   OH244502   0.958   3.713   4.625 -0.0851 -0.1327 -0.3832
 7696TIP3    H144503   0.977   3.637   4.679  0.4126  0.3134  0.0756
 7696TIP3    H244504   0.867   3.735   4.645 -1.3418 -2.6077 -2.9854
 7697TIP3   OH244505   2.193   5.391   4.892 -0.7127 -0.7310  0.3258
 7697TIP3    H144506   2.203   5.449   4.968 -3.1631 -1.8854  1.6024
 7697TIP3    H244507   2.188   5.450   4.817 -0.0652  0.5297  1.2644
 7698TIP3   OH244508   5.828   6.785  10.500 -0.0041  0.7140 -0.2013
 7698TIP3    H144509   5.874   6.847  10.444  0.8885 -0.0994 -0.3827
 7698TIP3    H244510   5.735   6.805  10.488  0.1608  0.2498 -2.3014
 7699TIP3   OH244511   0.419   3.994  13.744  0.2459 -0.4381 -0.1307
 7699TIP3    H144512   0.475   4.022  13.817  0.4235 -0.5210 -0.2356
 7699TIP3    H244513   0.372   3.918  13.778 -0.5817  0.2568  0.3097
 7700TIP3   OH244514   0.614   3.570   4.459  0.2903 -0.5471  0.3876
 7700TIP3    H144515   0.685   3.520   4.417 -0.3976  1.1732 -2.9223
 7700TIP3    H244516   0.535   3.520   4.439 -0.1601  0.8039 -1.2646
 7701TIP3   OH244517   1.740   2.272  13.723 -0.0788  0.4718 -0.9893
 7701TIP3    H144518   1.824   2.315  13.735 -0.2585  0.8541 -1.0860
 7701TIP3    H244519   1.677   2.344  13.718 -0.2384  0.2577 -2.2793
 7702TIP3   OH244520   4.764   5.907   5.069 -0.1267 -0.2836  0.3249
 7702TIP3    H144521   4.684   5.860   5.090 -0.2888 -0.4564 -0.6515
 7702TIP3    H244522   4.825   5.883   5.139 -0.5959 -0.9694  0.5059
 7703TIP3   OH244523   3.085   0.958   5.061 -0.0480 -0.0831 -0.2645
 7703TIP3    H144524   2.992   0.973   5.046  0.0122 -0.2947 -0.8490
 7703TIP3    H244525   3.112   1.028   5.121 -0.4227  0.3810 -0.6431
 7704TIP3   OH244526   0.404   1.742   0.619  0.2737 -0.0499  0.0681
 7704TIP3    H144527   0.403   1.756   0.713 -0.5518 -0.5544  0.1414
 7704TIP3    H244528   0.342   1.670   0.605 -0.9457  1.1962 -1.0418
 7705TIP3   OH244529   3.776   3.580  12.402 -0.0582 -0.5749 -0.3473
 7705TIP3    H144530   3.785   3.546  12.313 -1.8281 -0.2448 -0.6750
 7705TIP3    H244531   3.696   3.539  12.435  1.1595 -1.5427  1.4905
 7706TIP3   OH244532   0.968   1.024   2.170 -0.4573 -0.7069  0.1682
 7706TIP3    H144533   0.875   1.042   2.158  0.0323  0.3553 -2.4788
 7706TIP3    H244534   1.001   1.096   2.223 -0.8880 -0.2852 -0.1351
 7707TIP3   OH244535   2.852   3.703  13.875  0.2749 -0.2214 -0.1128
 7707TIP3    H144536   2.853   3.755  13.956  1.7461 -0.5489  0.0942
 7707TIP3    H244537   2.783   3.743  13.822 -0.2138  0.4507  1.0179
 7708TIP3   OH244538   5.594   3.628   1.852 -0.1359  0.2092  0.5960
 7708TIP3    H144539   5.546   3.557   1.810  0.9341  0.5422 -1.2205
 7708TIP3    H244540   5.556   3.633   1.940 -0.0446 -2.7599  0.8426
 7709TIP3   OH244541   1.526   0.156  13.540 -0.3577 -0.3836  0.0953
 7709TIP3    H144542   1.510   0.175  13.447  4.6386  2.1291 -0.4210
 7709TIP3    H244543   1.467   0.214  13.587 -0.7821  0.5343 -1.5263
 7710TIP3   OH244544   0.770   3.541  15.812 -0.7456  0.0308  0.3672
 7710TIP3    H144545   0.743   3.597  15.885  0.8690  0.0643  0.9506
 7710TIP3    H244546   0.724   3.459  15.828 -2.7329  0.9908 -0.2179
 7711TIP3   OH244547   0.804   2.336  16.594 -0.1600  0.4026  0.5340
 7711TIP3    H144548   0.744   2.383  16.651  1.2010  0.5946  1.8432
 7711TIP3    H244549   0.810   2.248  16.632 -1.0201 -0.1846 -0.6525
 7712TIP3   OH244550   0.685   1.806   5.556 -0.3179  0.0510  0.3901
 7712TIP3    H144551   0.690   1.714   5.582 -0.7702 -0.4920 -1.3340
 7712TIP3    H244552   0.626   1.846   5.620  0.2257 -0.7564  1.4060
 7713TIP3   OH244553   6.422   2.113  16.851  0.3767  0.3455 -0.0210
 7713TIP3    H144554   6.388   2.096  16.938  0.0506 -0.4369 -0.2996
 7713TIP3    H244555   6.388   2.042  16.797 -0.0799  1.2656 -0.9564
 7714TIP3   OH244556   6.587   6.207  14.875 -0.3422 -0.1257  0.0673
 7714TIP3    H144557   6.494   6.184  14.877 -0.2971 -0.3003  0.1775
 7714TIP3    H244558   6.632   6.123  14.873 -0.2098 -0.0298 -1.4569
 7715TIP3   OH244559   0.084   3.218   3.772  0.1800  0.5792  0.0266
 7715TIP3    H144560   0.065   3.282   3.840  1.1659 -0.8782  1.7050
 7715TIP3    H244561   0.002   3.171   3.760 -0.2196  1.3749 -0.3739
 7716TIP3   OH244562   4.072   2.420  10.705 -0.0563  0.1723  0.1992
 7716TIP3    H144563   4.126   2.499  10.694 -0.6803  0.5567 -0.1371
 7716TIP3    H244564   4.094   2.365  10.630  0.2238  0.1187  0.3214
 7717TIP3   OH244565   6.289   3.161   1.700  0.0599  0.0597  0.0111
 7717TIP3    H144566   6.306   3.245   1.657 -0.9319 -0.7118 -1.9327
 7717TIP3    H244567   6.375   3.132   1.731  0.3645  1.9374  0.9916
 7718TIP3   OH244568   4.791   1.483  15.134 -0.0070  0.6296  0.2421
 7718TIP3    H144569   4.814   1.528  15.215  2.8661 -2.1944  1.1029
 7718TIP3    H244570   4.864   1.500  15.075  0.5047 -1.6423  0.1390
 7719TIP3   OH244571   5.462   4.437   1.618 -0.0014  0.3102  0.2620
 7719TIP3    H144572   5.465   4.345   1.591  1.4342  0.5825 -0.5556
 7719TIP3    H244573   5.471   4.434   1.713 -0.5463 -0.4154  0.3042
 7720TIP3   OH244574   4.999   3.489   1.705 -0.3050  0.2234 -0.1173
 7720TIP3    H144575   5.079   3.455   1.664 -0.6329  0.3861 -0.8955
 7720TIP3    H244576   4.992   3.578   1.672 -0.3723  0.4903  0.5977
 7721TIP3   OH244577   0.727   0.996  15.842  0.1245 -0.2565 -0.3767
 7721TIP3    H144578   0.704   1.089  15.837 -0.3729 -0.3747 -0.3921
 7721TIP3    H244579   0.771   0.977  15.759  1.4859  0.2905  0.2042
 7722TIP3   OH244580   0.470   2.341  14.166  0.4073  0.5566 -0.4199
 7722TIP3    H144581   0.500   2.250  14.170  0.1179  0.4813 -0.0046
 7722TIP3    H244582   0.390   2.343  14.219 -0.1875  0.8140 -1.3101
 7723TIP3   OH244583   4.344   6.227  13.774 -0.3291 -0.2728 -0.7145
 7723TIP3    H144584   4.303   6.307  13.808  0.2781 -0.2565 -0.0115
 7723TIP3    H244585   4.272   6.165  13.764 -0.6734  0.0825 -0.4367
 7724TIP3   OH244586   4.331   5.913  11.675  0.1191 -0.1029 -0.0576
 7724TIP3    H144587   4.385   5.986  11.646 -1.9163  1.3366 -0.4069
 7724TIP3    H244588   4.363   5.892  11.763  0.9979  0.9382 -0.1240
 7725TIP3   OH244589   5.424   4.755   0.607  0.5482 -0.4970  0.5281
 7725TIP3    H144590   5.494   4.740   0.670  0.9246 -3.1138 -0.4485
 7725TIP3    H244591   5.345   4.765   0.661  1.1038 -1.1018  1.4697
 7726TIP3   OH244592   4.760   2.179  11.622  0.2124 -0.0275 -0.8219
 7726TIP3    H144593   4.835   2.172  11.562 -0.6659  0.1974 -1.9589
 7726TIP3    H244594   4.684   2.191  11.564 -0.8240 -1.1592  0.2919
 7727TIP3   OH244595   4.697   1.827  13.734  0.1394  0.1262 -0.3081
 7727TIP3    H144596   4.742   1.898  13.688 -0.2721 -0.1599 -1.1662
 7727TIP3    H244597   4.742   1.821  13.819  0.7571  0.8116 -0.5772
 7728TIP3   OH244598   2.808   3.535  12.715  0.4868 -0.1953 -0.3250
 7728TIP3    H144599   2.877   3.567  12.657  1.0836 -1.2375 -0.1959
 7728TIP3    H244600   2.854   3.488  12.784 -0.1604  1.7658  1.4992
 7729TIP3   OH244601   3.794   3.897   6.199 -0.0251  0.0548 -0.5825
 7729TIP3    H144602   3.762   3.985   6.218 -0.3736 -0.3140  0.6195
 7729TIP3    H244603   3.881   3.894   6.238  2.0290  1.4374 -4.8643
 7730TIP3   OH244604   3.228   2.121  13.657  0.0161 -0.5588 -0.4770
 7730TIP3    H144605   3.198   2.208  13.634  1.7456 -0.0509 -0.9039
 7730TIP3    H244606   3.150   2.076  13.690 -1.0547  0.8717 -1.0188
 7731TIP3   OH244607   4.391   4.847  16.230 -0.6401 -0.1151  0.2784
 7731TIP3    H144608   4.338   4.797  16.291  1.9471 -0.2745  2.4820
 7731TIP3    H244609   4.457   4.785  16.198  0.5306  0.9922  0.4685
 7732TIP3   OH244610   0.633   6.752  16.564 -0.1667  0.1271  0.3098
 7732TIP3    H144611   0.657   6.843  16.583  2.1534 -0.4321  0.1015
 7732TIP3    H244612   0.622   6.712  16.650 -0.6515  0.4569  0.4029
 7733TIP3   OH244613   6.690   2.616  11.678  0.3377 -0.1202  0.5453
 7733TIP3    H144614   6.779   2.598  11.708  0.7218  0.8544 -0.0205
 7733TIP3    H244615   6.685   2.711  11.672  0.2904 -0.2760 -2.5574
 7734TIP3   OH244616   5.587   4.146   4.530  0.0974 -0.0426  0.5008
 7734TIP3    H144617   5.523   4.097   4.581 -0.3465  0.0928  0.0807
 7734TIP3    H244618   5.662   4.156   4.588  0.2194 -1.2769  0.5713
 7735TIP3   OH244619   0.204   5.605  14.765  0.3933 -0.2289  0.5435
 7735TIP3    H144620   0.281   5.662  14.766  0.2038  0.1798 -3.0111
 7735TIP3    H244621   0.133   5.663  14.738 -0.0685 -1.8314 -1.7763
 7736TIP3   OH244622   3.326   5.024   4.805 -0.3896  0.0722  0.0296
 7736TIP3    H144623   3.344   4.999   4.895  1.5471 -0.6472 -0.5180
 7736TIP3    H244624   3.405   5.071   4.777 -0.3031 -1.0274 -1.7244
 7737TIP3   OH244625   1.247   3.027  14.683  0.5949 -0.0677  0.3165
 7737TIP3    H144626   1.250   2.945  14.634 -2.1326  0.1559 -0.3298
 7737TIP3    H244627   1.315   3.082  14.643  0.2948 -0.8941 -1.3667
 7738TIP3   OH244628   2.688   5.903  14.500 -0.3677  0.1452 -0.2904
 7738TIP3    H144629   2.637   5.975  14.537 -0.9175 -0.0466 -0.6666
 7738TIP3    H244630   2.768   5.900  14.552 -2.6340 -2.4124  3.2951
 7739TIP3   OH244631   1.767   1.198  11.412 -0.1223 -0.3124  0.4251
 7739TIP3    H144632   1.845   1.143  11.416 -0.9040 -1.4533  0.4076
 7739TIP3    H244633   1.706   1.156  11.473 -1.0006  0.0931 -0.1678
 7740TIP3   OH244634   3.800   5.141  13.379 -0.4343 -0.4489 -0.2002
 7740TIP3    H144635   3.777   5.068  13.437 -1.6162 -0.5283 -0.7547
 7740TIP3    H244636   3.717   5.185  13.362 -0.0039 -0.0812 -1.3744
 7741TIP3   OH244637   3.545   3.525  12.543  0.1135 -0.4201 -0.0408
 7741TIP3    H144638   3.462   3.534  12.497 -0.4164 -1.2728  0.7289
 7741TIP3    H244639   3.521   3.513  12.635  1.0998 -0.3062  0.2407
 7742TIP3   OH244640   6.532   2.776  16.470 -0.1559  0.0444  0.4527
 7742TIP3    H144641   6.459   2.837  16.481  1.3211  1.7818  0.7812
 7742TIP3    H244642   6.569   2.766  16.557 -0.2666 -1.1971  0.3664
 7743TIP3   OH244643   0.967   1.847  11.429  0.3479 -0.1462  0.4712
 7743TIP3    H144644   1.030   1.882  11.492  1.3731 -1.3232  0.1336
 7743TIP3    H244645   1.001   1.874  11.343  0.1060 -0.3204  0.3200
 7744TIP3   OH244646   0.580   4.457  15.689 -0.2513  0.4964  0.1760
 7744TIP3    H144647   0.576   4.528  15.753 -1.1331  0.7135 -0.1079
 7744TIP3    H244648   0.491   4.422  15.687  0.0768 -0.3352 -0.0047
 7745TIP3   OH244649   5.205   6.476   4.131  0.1786  0.1184 -0.3839
 7745TIP3    H144650   5.282   6.433   4.169  0.1671 -1.1898 -1.8126
 7745TIP3    H244651   5.241   6.542   4.072  0.2190 -0.0738 -0.5772
 7746TIP3   OH244652   5.456   3.568  13.578  0.2286  1.0554  0.2583
 7746TIP3    H144653   5.516   3.620  13.525  2.0320 -0.5445  0.6723
 7746TIP3    H244654   5.456   3.482  13.536 -1.2528  0.8527  0.6684
 7747TIP3   OH244655   2.822   3.764  10.943  0.4977  0.1521  0.1173
 7747TIP3    H144656   2.820   3.721  11.028 -0.9715 -0.5330 -0.2304
 7747TIP3    H244657   2.909   3.802  10.936  0.9456 -0.5984  1.5240
 7748TIP3   OH244658   4.083   4.928  16.361 -0.0876 -0.6227 -0.1151
 7748TIP3    H144659   4.074   4.916  16.266  2.1413 -0.3318 -0.3906
 7748TIP3    H244660   4.138   5.006  16.370  0.4537 -1.1637  1.3858
 7749TIP3   OH244661   1.354   4.022  16.370 -0.3267 -0.5322  0.2918
 7749TIP3    H144662   1.348   4.097  16.428  1.1623 -0.2993  0.1545
 7749TIP3    H244663   1.320   3.949  16.422  0.1771 -0.1616  1.1547
 7750TIP3   OH244664   6.070   0.644   2.234 -0.3197 -0.2119  0.2383
 7750TIP3    H144665   6.103   0.624   2.147 -0.9593 -1.9904  0.3975
 7750TIP3    H244666   6.036   0.733   2.227 -2.3677 -1.1114 -1.9113
 7751TIP3   OH244667   5.114   0.134  15.520  0.4528  0.0457  0.4725
 7751TIP3    H144668   5.034   0.088  15.493 -0.5848  1.3134  1.2818
 7751TIP3    H244669   5.127   0.107  15.611  1.0951 -0.3522  0.2638
 7752TIP3   OH244670   0.547   2.946   0.628  0.1384  0.0739 -0.4080
 7752TIP3    H144671   0.469   2.965   0.681 -0.7156  0.9707 -1.9529
 7752TIP3    H244672   0.619   2.988   0.675 -0.5850  0.7397  0.1111
 7753TIP3   OH244673   0.353   0.829   1.781  0.0698 -0.3544  0.2039
 7753TIP3    H144674   0.409   0.904   1.760  0.6759 -0.9535 -0.3341
 7753TIP3    H244675   0.277   0.868   1.825  0.2767  0.5936 -0.2571
 7754TIP3   OH244676   4.039   3.140   3.072 -0.8697 -0.3297  0.0548
 7754TIP3    H144677   4.011   3.154   2.982 -1.7990 -0.1872  0.3545
 7754TIP3    H244678   4.018   3.049   3.091  0.2786 -0.6553 -0.1958
 7755TIP3   OH244679   0.368   0.146  11.658  0.6106  0.3506 -0.1535
 7755TIP3    H144680   0.350   0.078  11.594  0.7759  1.3651 -1.2844
 7755TIP3    H244681   0.424   0.103  11.723  0.2954 -0.7285 -0.5806
 7756TIP3   OH244682   0.684   6.224  13.895  0.0320  0.5882  0.0575
 7756TIP3    H144683   0.603   6.274  13.905 -1.0648 -0.6638 -2.1347
 7756TIP3    H244684   0.667   6.141  13.939 -0.5472 -0.3508 -1.8749
 7757TIP3   OH244685   1.190   1.759  15.653 -0.0499  0.1332  0.0889
 7757TIP3    H144686   1.260   1.701  15.683 -0.4765 -0.5415 -0.2132
 7757TIP3    H244687   1.132   1.768  15.730  1.0784  1.8008  0.7807
 7758TIP3   OH244688   1.241   2.967   3.429  0.2931  0.0671  0.3573
 7758TIP3    H144689   1.224   2.876   3.404 -3.0485  0.4924  0.8692
 7758TIP3    H244690   1.273   2.961   3.520  1.0631 -0.6311  0.0515
 7759TIP3   OH244691   2.122   6.784  17.011 -1.1878  0.8647  0.1748
 7759TIP3    H144692   2.118   6.880  17.002 -0.6771  0.8889  0.1395
 7759TIP3    H244693   2.031   6.755  17.005 -1.3464  1.3496  0.1885
 7760TIP3   OH244694   0.769   5.829   4.744 -0.1861  0.3875  0.1291
 7760TIP3    H144695   0.796   5.737   4.737  1.1727  0.9511 -2.5283
 7760TIP3    H244696   0.696   5.836   4.683  1.5950  1.7283 -1.9083
 7761TIP3   OH244697   0.221   0.480   4.769  0.3073  0.0990 -0.1956
 7761TIP3    H144698   0.198   0.417   4.701 -1.1604  2.6074 -2.0938
 7761TIP3    H244699   0.289   0.535   4.730 -0.8834  1.8638  0.1463
 7762TIP3   OH244700   5.769   1.904  12.884  0.0454  1.0447 -0.7512
 7762TIP3    H144701   5.694   1.957  12.912 -0.5215 -0.0426 -0.1443
 7762TIP3    H244702   5.741   1.814  12.901  1.2048  0.5910 -1.2386
 7763TIP3   OH244703   2.845   5.544  15.240 -0.3902 -0.3967  0.0041
 7763TIP3    H144704   2.880   5.585  15.319  0.3949  0.8242 -0.9618
 7763TIP3    H244705   2.788   5.610  15.201 -0.2402 -0.7406 -0.8028
 7764TIP3   OH244706   0.861   4.157   2.634 -0.7883 -0.4606 -0.2559
 7764TIP3    H144707   0.789   4.172   2.572  0.5478  1.2380 -1.4507
 7764TIP3    H244708   0.826   4.186   2.718 -1.2206  1.2975 -1.0015
 7765TIP3   OH244709   0.459   6.601   3.213  0.9809 -0.4514  0.3624
 7765TIP3    H144710   0.451   6.521   3.265  1.9140 -0.9153 -0.1947
 7765TIP3    H244711   0.525   6.653   3.258  0.7913 -0.2467  0.4059
 7766TIP3   OH244712   1.716   0.455  12.327  0.5472 -0.3197 -0.6412
 7766TIP3    H144713   1.720   0.421  12.417  0.1391  0.8960 -0.1564
 7766TIP3    H244714   1.781   0.525  12.325 -0.2323  0.3928 -0.9848
 7767TIP3   OH244715   1.919   4.890   3.992  0.3432 -0.1640  0.3088
 7767TIP3    H144716   1.921   4.796   4.009  1.1628  0.1944  2.4095
 7767TIP3    H244717   1.831   4.917   4.019 -0.3413 -0.5010 -1.4923
 7768TIP3   OH244718   4.821   2.898  12.465 -0.1576  0.1419  0.3891
 7768TIP3    H144719   4.873   2.946  12.400 -1.0409  2.5035  1.3375
 7768TIP3    H244720   4.813   2.810  12.430  3.6708 -0.0381 -0.2249
 7769TIP3   OH244721   3.677   1.947   5.565  0.0579  0.6224  0.6420
 7769TIP3    H144722   3.719   1.976   5.484 -1.4958 -0.2557 -0.5009
 7769TIP3    H244723   3.746   1.903   5.614  0.1032 -2.3009 -1.9591
 7770TIP3   OH244724   1.498   4.498   2.076  0.0629  0.3290  0.0557
 7770TIP3    H144725   1.508   4.529   1.986 -0.4087  0.9319  0.2108
 7770TIP3    H244726   1.547   4.561   2.128  1.5880 -0.8440  0.0866
 7771TIP3   OH244727   2.512   6.701   5.590  0.1141 -0.1886  0.5247
 7771TIP3    H144728   2.577   6.697   5.660  0.8107  0.9000 -0.0376
 7771TIP3    H244729   2.563   6.707   5.509 -0.6827 -0.7861 -0.0403
 7772TIP3   OH244730   3.723   1.403  15.636  0.6867  0.8453 -0.2883
 7772TIP3    H144731   3.785   1.376  15.704  0.0763  1.0037  0.3345
 7772TIP3    H244732   3.638   1.401  15.679  0.1736 -0.0060 -1.3278
 7773TIP3   OH244733   3.711   0.859   4.439  0.2584 -0.0178  0.0233
 7773TIP3    H144734   3.708   0.917   4.363 -0.2849  0.7718  0.6405
 7773TIP3    H244735   3.727   0.917   4.513 -3.2174 -0.2625  1.0420
 7774TIP3   OH244736   1.972   2.866  11.200 -0.4414 -0.1167  0.1314
 7774TIP3    H144737   1.967   2.780  11.241  0.1156 -0.3156 -0.2091
 7774TIP3    H244738   1.995   2.848  11.109  0.7319  0.4385  0.3086
 7775TIP3   OH244739   0.009   6.732  16.001 -0.2825  0.1201  0.2384
 7775TIP3    H144740   0.021   6.822  15.971 -0.0310  0.0705  0.1881
 7775TIP3    H244741   0.092   6.689  15.979  0.2722  0.3309  1.9002
 7776TIP3   OH244742   1.824   1.796   0.821  0.1891 -0.5790  0.0290
 7776TIP3    H144743   1.865   1.775   0.905 -1.4374 -0.8263  0.8002
 7776TIP3    H244744   1.818   1.892   0.821  1.2797 -0.5072 -0.3509
 7777TIP3   OH244745   4.750   4.440  15.879 -0.5388 -0.0421 -0.0688
 7777TIP3    H144746   4.835   4.429  15.922  0.4838  1.7714 -1.5534
 7777TIP3    H244747   4.699   4.362  15.905  0.6132  0.1839  3.0081
 7778TIP3   OH244748   6.515   6.147   0.639 -0.4008  0.1302 -0.0694
 7778TIP3    H144749   6.512   6.165   0.546 -1.9822 -3.3965 -0.8052
 7778TIP3    H244750   6.427   6.115   0.660  0.2359 -0.1614  2.3858
 7779TIP3   OH244751   0.160   5.628   5.057  0.5198  0.0785  0.3862
 7779TIP3    H144752   0.077   5.676   5.066  1.0620  1.2283 -0.5488
 7779TIP3    H244753   0.168   5.578   5.138 -0.2621  1.2698  1.2160
 7780TIP3   OH244754   6.677   4.911   4.284  0.3111 -0.0519  0.1222
 7780TIP3    H144755   6.695   4.981   4.221  1.7043  1.5822  2.2764
 7780TIP3    H244756   6.763   4.888   4.319 -0.4795 -0.7879  1.5949
 7781TIP3   OH244757   5.992   2.662   4.779 -0.2924  0.1731  0.3314
 7781TIP3    H144758   5.930   2.592   4.794 -1.6656  1.1095 -0.8678
 7781TIP3    H244759   5.941   2.732   4.739  1.0738  1.8043  1.3346
 7782TIP3   OH244760   1.847   4.690   0.722 -0.2948  0.0813  0.3841
 7782TIP3    H144761   1.763   4.650   0.743 -0.8060  1.3157  0.6809
 7782TIP3    H244762   1.911   4.620   0.738 -1.2386 -0.8380  0.2235
 7783TIP3   OH244763   1.787   4.419   3.436  0.1204  0.1202  0.0397
 7783TIP3    H144764   1.709   4.472   3.420  0.8358  0.3252 -3.0927
 7783TIP3    H244765   1.860   4.475   3.412  1.0812 -1.1111  0.0112
 7784TIP3   OH244766   6.025   6.482   1.091  0.3499 -0.7547  1.0801
 7784TIP3    H144767   5.950   6.510   1.039  0.9849  0.6351  0.8931
 7784TIP3    H244768   5.994   6.483   1.181  0.3785  0.6720  1.0890
 7785TIP3   OH244769   6.217   2.680  14.653  0.0009  0.1746 -0.0472
 7785TIP3    H144770   6.176   2.767  14.648 -0.1354  0.1350  0.4002
 7785TIP3    H244771   6.144   2.621  14.672  0.0996 -0.0349 -0.3189
 7786TIP3   OH244772   3.832   5.051   1.940  0.6808 -0.4914  0.5221
 7786TIP3    H144773   3.795   5.045   2.028 -1.0161  1.4083 -0.0072
 7786TIP3    H244774   3.926   5.036   1.953  0.2730 -1.6162  2.4516
 7787TIP3   OH244775   4.940   6.102  12.034  0.3914  0.6395  0.3570
 7787TIP3    H144776   4.865   6.043  12.040  0.0826  0.8222 -1.4301
 7787TIP3    H244777   4.978   6.084  11.948  2.4329  0.5174  1.2608
 7788TIP3   OH244778   0.566   3.207  14.228 -0.1640  0.4489 -0.4985
 7788TIP3    H144779   0.492   3.168  14.181 -1.5904  0.0181  2.0133
 7788TIP3    H244780   0.537   3.210  14.319  2.2833  1.8443  0.2680
 7789TIP3   OH244781   2.693   6.026   5.128 -0.6121  0.6303  0.0306
 7789TIP3    H144782   2.690   6.114   5.166  1.3610  0.6968  0.0715
 7789TIP3    H244783   2.786   6.003   5.127 -0.9945 -0.9707 -1.1145
 7790TIP3   OH244784   3.865   3.312   5.174  0.5446 -0.0743  0.5702
 7790TIP3    H144785   3.829   3.288   5.260  0.9471 -0.3153  0.6738
 7790TIP3    H244786   3.957   3.288   5.180  0.6441  0.2157  0.1817
 7791TIP3   OH244787   4.819   2.247   5.517  0.2267 -0.0947  0.6725
 7791TIP3    H144788   4.792   2.164   5.556 -1.6154 -0.2976 -0.9880
 7791TIP3    H244789   4.751   2.310   5.545  0.5051  0.4071  0.2270
 7792TIP3   OH244790   2.035   4.118   1.097  0.0607  0.5012 -0.1355
 7792TIP3    H144791   2.009   4.137   1.007  1.2880  2.3351 -0.1367
 7792TIP3    H244792   2.112   4.172   1.112  0.2556 -0.2549  1.8254
 7793TIP3   OH244793   6.270   6.544   2.160  0.1983 -0.5037 -0.1782
 7793TIP3    H144794   6.194   6.509   2.206 -0.2789 -0.1799 -0.7078
 7793TIP3    H244795   6.343   6.489   2.189 -0.2405 -0.8336  0.3169
 7794TIP3   OH244796   3.774   3.805  16.978 -0.3534  0.2336 -0.3505
 7794TIP3    H144797   3.742   3.836  17.062 -2.3130 -0.1798 -0.9193
 7794TIP3    H244798   3.736   3.718  16.968  0.3196  0.0463 -1.4017
 7795TIP3   OH244799   1.581   6.026   2.076  0.9355  0.1711  0.4240
 7795TIP3    H144800   1.627   5.989   2.151  3.2816  2.8744  0.4189
 7795TIP3    H244801   1.646   6.026   2.006 -0.2848  0.4945 -0.7343
 7796TIP3   OH244802   1.016   0.879   1.156 -0.4048  0.1964 -0.0941
 7796TIP3    H144803   1.100   0.852   1.194  0.3363 -1.0989 -2.5575
 7796TIP3    H244804   0.950   0.832   1.207  0.4170  0.3307  1.1168
 7797TIP3   OH244805   5.150   5.372  12.258 -0.4437 -0.1565  0.5555
 7797TIP3    H144806   5.222   5.323  12.218 -0.1528 -0.1946  1.1228
 7797TIP3    H244807   5.188   5.412  12.336 -0.8904  0.2949  0.5447
 7798TIP3   OH244808   1.680   0.998   3.047  0.4204  0.6960 -0.2160
 7798TIP3    H144809   1.768   1.019   3.080  1.0393 -1.9553 -0.0353
 7798TIP3    H244810   1.686   1.011   2.952  2.1021 -2.7214 -0.6812
 7799TIP3   OH244811   5.609   6.244   0.056 -0.3361 -0.0343  0.7218
 7799TIP3    H144812   5.620   6.281   0.143 -2.7458 -1.0539  1.4920
 7799TIP3    H244813   5.515   6.255   0.037 -0.1175 -1.1345 -1.1251
 7800TIP3   OH244814   1.490   3.029  12.934 -0.8921 -0.2129 -0.1077
 7800TIP3    H144815   1.451   3.045  13.019 -0.1491  1.8218 -0.1335
 7800TIP3    H244816   1.511   3.116  12.899  0.2469 -1.0725 -1.6831
 7801TIP3   OH244817   3.902   5.400   1.296 -0.2040  0.3468  0.4254
 7801TIP3    H144818   3.847   5.332   1.336 -1.1231  0.7777 -0.0837
 7801TIP3    H244819   3.962   5.426   1.366 -1.2171  0.4595  1.2707
 7802TIP3   OH244820   6.595   6.068   5.161  0.0166 -0.5787 -0.7555
 7802TIP3    H144821   6.671   6.026   5.200  0.0819 -0.5594 -0.8601
 7802TIP3    H244822   6.572   6.138   5.222  0.4543 -0.1991 -1.0260
 7803TIP3   OH244823   3.366   4.379  13.199  0.3090 -0.2095  0.1607
 7803TIP3    H144824   3.309   4.312  13.161  0.9118 -0.2745 -0.6167
 7803TIP3    H244825   3.305   4.444  13.235 -0.2473  0.3335 -1.7395
 7804TIP3   OH244826   4.727   5.039   2.911 -0.1092  0.1568 -0.3005
 7804TIP3    H144827   4.731   5.119   2.963 -2.8738  0.7480 -0.9433
 7804TIP3    H244828   4.788   4.979   2.955  2.2084  2.6738  0.0119
 7805TIP3   OH244829   6.556   6.206   5.757  0.5655 -0.1228  0.8174
 7805TIP3    H144830   6.564   6.265   5.682  3.4184 -2.0652 -0.4947
 7805TIP3    H244831   6.495   6.138   5.728 -0.1782  0.3936  1.1487
 7806TIP3   OH244832   0.791   1.912  12.216  0.4183 -0.2430 -0.5305
 7806TIP3    H144833   0.735   1.867  12.279  0.9225  0.6269  0.5699
 7806TIP3    H244834   0.879   1.881  12.237  0.6151  0.2482 -0.6248
 7807TIP3   OH244835   3.208   2.461   4.239 -0.2457 -0.4649 -0.5432
 7807TIP3    H144836   3.299   2.493   4.241  0.0324 -1.2643 -0.4645
 7807TIP3    H244837   3.193   2.436   4.148  0.4832 -2.8299 -0.0303
 7808TIP3   OH244838   3.129   4.004   2.955 -0.6716  0.1967  0.9951
 7808TIP3    H144839   3.082   4.040   3.030  1.4056  0.4542  2.2201
 7808TIP3    H244840   3.207   4.058   2.947 -0.3216 -0.5157 -0.6906
 7809TIP3   OH244841   3.307   1.989   3.483  0.4170 -0.6369 -0.0911
 7809TIP3    H144842   3.291   1.905   3.441 -1.1244 -0.6057  0.4034
 7809TIP3    H244843   3.328   2.049   3.411 -3.8185 -0.1828 -1.0601
 7810TIP3   OH244844   0.510   2.344   2.230 -0.3944 -0.1332  0.1779
 7810TIP3    H144845   0.501   2.249   2.217  0.2319 -0.0960 -0.5421
 7810TIP3    H244846   0.435   2.367   2.285 -0.0556 -1.1948  1.1151
 7811TIP3   OH244847   6.344   3.986  16.723  0.3291 -0.6204 -0.4141
 7811TIP3    H144848   6.250   4.004  16.716  0.1546 -0.6501  1.4059
 7811TIP3    H244849   6.377   3.992  16.634 -1.0676  1.2618 -0.8282
 7812TIP3   OH244850   2.308   6.716   3.798  0.0418 -0.1454  0.0603
 7812TIP3    H144851   2.369   6.648   3.827 -0.1772  0.4491  1.9858
 7812TIP3    H244852   2.357   6.798   3.808 -0.4374  0.1675 -0.1280
 7813TIP3   OH244853   1.610   1.090  13.493  0.6772 -0.0871 -0.0704
 7813TIP3    H144854   1.543   1.036  13.451  1.5515 -1.3684  0.1546
 7813TIP3    H244855   1.667   1.118  13.421 -0.0235  0.9044 -0.2470
 7814TIP3   OH244856   0.159   5.694  16.341  0.4651  0.1029 -0.2543
 7814TIP3    H144857   0.122   5.679  16.428 -0.5574  0.1127 -0.6842
 7814TIP3    H244858   0.173   5.789  16.336 -0.0214  0.1722 -0.3159
 7815TIP3   OH244859   1.374   6.078   0.582  0.2146 -0.1335 -0.1356
 7815TIP3    H144860   1.427   6.027   0.520  2.4281  0.6694  1.0410
 7815TIP3    H244861   1.284   6.055   0.561  1.0176 -1.4874 -2.2572
 7816TIP3   OH244862   4.763   0.061  13.775  0.5214  0.2107  0.3554
 7816TIP3    H144863   4.710   0.079  13.853 -0.3080  0.7129 -0.3135
 7816TIP3    H244864   4.721   0.111  13.705  1.3064 -0.1668 -0.4031
 7817TIP3   OH244865   0.427   3.438  11.697 -0.8879 -0.2966 -0.9429
 7817TIP3    H144866   0.449   3.408  11.786 -0.3470 -0.8328 -1.2486
 7817TIP3    H244867   0.361   3.506  11.710  0.4128  0.8068 -0.0345
 7818TIP3   OH244868   5.379   5.544   3.468  0.1152  0.2955 -0.1549
 7818TIP3    H144869   5.455   5.551   3.411 -0.7650 -2.5416 -1.7460
 7818TIP3    H244870   5.415   5.544   3.557  1.9589 -0.6655 -0.8853
 7819TIP3   OH244871   0.630   5.644   0.321  0.0009  0.2361  0.2743
 7819TIP3    H144872   0.672   5.574   0.270 -0.0014  2.1857 -2.5267
 7819TIP3    H244873   0.552   5.603   0.358  0.5938 -1.5471 -0.3786
 7820TIP3   OH244874   4.131   5.013  16.810 -0.2382  0.1858 -0.2504
 7820TIP3    H144875   4.185   5.061  16.747 -0.7270  1.5526  0.3491
 7820TIP3    H244876   4.175   5.025  16.893 -0.6425  0.0153 -0.0092
 7821TIP3   OH244877   5.323   3.125   1.240  0.3702 -0.4654  0.1483
 7821TIP3    H144878   5.272   3.207   1.239 -0.4059 -0.9405  0.3616
 7821TIP3    H244879   5.320   3.094   1.150  1.2643  0.1058 -0.0811
 7822TIP3   OH244880   1.859   1.064   0.931 -0.1223 -0.2743  0.3391
 7822TIP3    H144881   1.945   1.101   0.913 -0.1559 -0.3184  0.0846
 7822TIP3    H244882   1.821   1.047   0.845  0.0097 -1.1692  0.4551
 7823TIP3   OH244883   1.337   5.789   2.277 -0.0409  0.5050  0.0596
 7823TIP3    H144884   1.413   5.741   2.309 -0.2256 -1.0969 -1.8410
 7823TIP3    H244885   1.288   5.811   2.356  1.5119  0.0973  1.1684
 7824TIP3   OH244886   2.993   4.520   0.243 -0.0676  0.1126 -0.4906
 7824TIP3    H144887   2.987   4.615   0.233 -0.7228 -0.0939 -2.2815
 7824TIP3    H244888   3.077   4.498   0.204  0.9017  0.1475  1.5517
 7825TIP3   OH244889   2.235   3.949   0.860 -0.5367  0.1014 -0.0626
 7825TIP3    H144890   2.264   4.028   0.814 -0.1174 -0.9168 -1.5606
 7825TIP3    H244891   2.295   3.943   0.935 -0.7683  1.3657  0.2372
 7826TIP3   OH244892   1.467   4.147  13.953 -0.3852 -0.7605  0.3154
 7826TIP3    H144893   1.463   4.084  14.025 -1.7405  2.6415  3.3876
 7826TIP3    H244894   1.560   4.167  13.944  0.0280 -2.9292 -0.5049
 7827TIP3   OH244895   2.169   0.211  11.062 -0.4001  0.1378 -0.4150
 7827TIP3    H144896   2.178   0.214  11.157  0.3194  1.7542 -0.5194
 7827TIP3    H244897   2.257   0.226  11.028 -0.9516  1.3540 -1.3448
 7828TIP3   OH244898   6.651   5.703   2.777  0.3634 -0.4277  0.4752
 7828TIP3    H144899   6.643   5.775   2.714 -2.3259 -0.9838  0.1312
 7828TIP3    H244900   6.673   5.626   2.724  0.3275 -0.4505  0.4945
 7829TIP3   OH244901   2.988   3.145  17.186 -0.5739 -0.2130 -0.1239
 7829TIP3    H144902   2.999   3.106  17.099 -1.0655 -2.1852  0.6752
 7829TIP3    H244903   3.072   3.188  17.204  0.0569 -1.1068 -0.9319
 7830TIP3   OH244904   6.138   4.219  11.597  0.6656  0.2747  0.4599
 7830TIP3    H144905   6.103   4.198  11.683  2.7710 -1.2346  1.0059
 7830TIP3    H244906   6.091   4.162  11.537 -0.0118  0.5188  0.7576
 7831TIP3   OH244907   0.851   2.217  14.753 -0.2496  0.1091  0.3819
 7831TIP3    H144908   0.777   2.181  14.704 -1.0702  2.5465 -0.2308
 7831TIP3    H244909   0.849   2.310  14.734  2.7145  0.2867  0.7404
 7832TIP3   OH244910   3.638   0.057  15.385 -0.4742 -0.5999  0.1879
 7832TIP3    H144911   3.674   0.024  15.302  1.0760 -0.3852  0.7545
 7832TIP3    H244912   3.564   0.111  15.359  1.3592  1.3063 -1.2560
 7833TIP3   OH244913   3.921   4.703   2.991 -0.1749 -0.3641 -0.1743
 7833TIP3    H144914   3.826   4.707   3.007 -0.0842 -0.2400  0.3181
 7833TIP3    H244915   3.944   4.792   2.966 -0.0485 -0.2120  0.4772
 7834TIP3   OH244916   3.124   5.650  14.634  0.3824 -0.5331 -0.1793
 7834TIP3    H144917   3.087   5.602  14.708  1.7292 -0.4951  0.5241
 7834TIP3    H244918   3.048   5.695  14.595 -0.2837 -0.2700  1.3696
 7835TIP3   OH244919   0.256   5.516   2.288 -0.0689  0.2558  0.1196
 7835TIP3    H144920   0.182   5.455   2.296  0.1710 -0.0594 -0.0548
 7835TIP3    H244921   0.244   5.577   2.361  0.5791 -0.9755  1.2849
 7836TIP3   OH244922   0.576   0.471   3.726 -0.7867 -0.2762 -0.2752
 7836TIP3    H144923   0.591   0.527   3.650 -0.7422 -1.0097 -0.8066
 7836TIP3    H244924   0.634   0.396   3.712 -0.0117  0.0681  0.9894
 7837TIP3   OH244925   1.384   6.303  14.792 -0.5363  0.1862  0.4453
 7837TIP3    H144926   1.401   6.209  14.790  0.3767  0.3760 -1.8805
 7837TIP3    H244927   1.429   6.338  14.715 -2.0743  2.3234  0.4598
 7838TIP3   OH244928   2.887   3.952  13.101  0.2113  0.2103 -0.1725
 7838TIP3    H144929   2.887   3.904  13.018 -0.9571  1.2091 -0.7641
 7838TIP3    H244930   2.796   3.949  13.130  0.3997  0.8902  0.4764
 7839TIP3   OH244931   2.820   5.713   4.009  0.2076  0.2431  0.1538
 7839TIP3    H144932   2.803   5.765   4.088  0.8613 -0.5842  0.8451
 7839TIP3    H244933   2.819   5.622   4.039 -1.4402 -0.1887 -1.1442
 7840TIP3   OH244934   5.265   5.467   4.524  0.3281  0.6524  0.1793
 7840TIP3    H144935   5.182   5.428   4.551  1.5433 -1.0045  1.6420
 7840TIP3    H244936   5.306   5.495   4.607  2.3045 -0.7840 -0.2798
 7841TIP3   OH244937   4.712   4.643  16.180  0.0802 -0.4213 -0.1385
 7841TIP3    H144938   4.632   4.591  16.187 -0.8741  1.1806  1.1426
 7841TIP3    H244939   4.683   4.729  16.152  1.3240  0.2787  0.6590
 7842TIP3   OH244940   1.346   3.294   4.196 -0.1456  0.1760  0.2290
 7842TIP3    H144941   1.389   3.364   4.244 -1.0962  0.9409 -0.0017
 7842TIP3    H244942   1.326   3.228   4.263  0.8987  0.0555  0.4196
 7843TIP3   OH244943   6.007   3.921  11.515 -0.2441 -0.4220  0.5726
 7843TIP3    H144944   5.927   3.874  11.536  0.2034 -2.1596 -1.3965
 7843TIP3    H244945   5.978   4.005  11.481 -1.2767 -1.1028 -0.2644
 7844TIP3   OH244946   3.158   6.299   1.140 -0.0270 -0.5470 -0.4578
 7844TIP3    H144947   3.131   6.381   1.099 -0.0983 -0.7770 -0.8675
 7844TIP3    H244948   3.200   6.326   1.222 -3.5813 -0.2820  1.3467
 7845TIP3   OH244949   1.568   2.519   0.861  0.2182 -0.9638  0.4951
 7845TIP3    H144950   1.536   2.598   0.905 -0.1034 -1.7451  1.6732
 7845TIP3    H244951   1.579   2.546   0.770  0.7180  0.6210  1.0028
 7846TIP3   OH244952   3.843   5.739  13.397 -0.6519 -0.1235  0.3019
 7846TIP3    H144953   3.768   5.790  13.366 -1.0113 -1.3901 -0.9940
 7846TIP3    H244954   3.804   5.675  13.457 -0.9132 -2.0632 -1.8871
 7847TIP3   OH244955   5.099   0.407  15.501 -0.6137 -0.3472 -0.0709
 7847TIP3    H144956   5.106   0.312  15.501  0.2482 -0.3154  1.5749
 7847TIP3    H244957   5.047   0.427  15.579 -0.0380  0.5535  0.1009
 7848TIP3   OH244958   5.038   5.672   1.734  1.1478  0.3608  0.0404
 7848TIP3    H144959   4.989   5.591   1.747 -0.3165  1.1569 -0.4198
 7848TIP3    H244960   4.973   5.741   1.744  2.7088  1.5864  2.1256
 7849TIP3   OH244961   1.498   3.564   5.284 -0.8098  0.2114 -0.8056
 7849TIP3    H144962   1.499   3.618   5.363 -0.9567 -0.4084 -0.3778
 7849TIP3    H244963   1.538   3.620   5.217  1.5314 -0.1253  0.2648
 7850TIP3   OH244964   1.723   3.888  15.155 -0.1326 -0.2555 -0.3548
 7850TIP3    H144965   1.667   3.829  15.206  1.1244 -0.4097  0.8816
 7850TIP3    H244966   1.676   3.972  15.156  0.0820 -0.1227  1.4834
 7851TIP3   OH244967   3.067   4.549   4.309  0.3813  0.2189 -0.6105
 7851TIP3    H144968   3.065   4.494   4.387 -1.3734  1.1854  0.0575
 7851TIP3    H244969   2.994   4.518   4.256  1.9859 -0.8877 -2.2113
 7852TIP3   OH244970   1.451   2.175   0.815 -0.0651  0.4847  0.2379
 7852TIP3    H144971   1.534   2.152   0.773 -1.0792 -0.9008 -1.0899
 7852TIP3    H244972   1.416   2.246   0.761 -0.6464 -0.2547 -0.3704
 7853TIP3   OH244973   5.720   3.298   4.067 -0.3021 -0.1413  0.2299
 7853TIP3    H144974   5.808   3.322   4.038 -0.3985  0.3616  0.3528
 7853TIP3    H244975   5.703   3.214   4.025 -0.5338  0.6961 -1.3533
 7854TIP3   OH244976   0.480   2.136  11.914  0.2610  0.0373  0.1902
 7854TIP3    H144977   0.524   2.215  11.882  0.6610 -0.1971  0.1639
 7854TIP3    H244978   0.446   2.161  12.001  1.6618 -0.2097  0.8208
 7855TIP3   OH244979   2.014   2.752   1.375  0.6906  0.1024 -0.2410
 7855TIP3    H144980   1.976   2.820   1.431 -0.2103 -0.4163 -0.2182
 7855TIP3    H244981   2.104   2.743   1.407 -0.0566 -0.7706  1.6802
 7856TIP3   OH244982   4.136   6.215   2.040  0.1729 -0.5864  0.2621
 7856TIP3    H144983   4.073   6.255   1.980  1.5842  2.2273  0.5678
 7856TIP3    H244984   4.100   6.229   2.127 -0.5369 -2.2594  0.2639
 7857TIP3   OH244985   0.668   6.565  14.072 -0.0649  0.6287  0.4400
 7857TIP3    H144986   0.709   6.491  14.116 -0.8385  0.6200  1.1613
 7857TIP3    H244987   0.709   6.642  14.111  1.5810  0.5777 -1.1365
 7858TIP3   OH244988   5.737   0.397  16.229 -0.8708 -0.0941 -1.0146
 7858TIP3    H144989   5.660   0.360  16.271  1.0462  0.3573  3.1564
 7858TIP3    H244990   5.805   0.330  16.239  0.8914  1.8987  0.8613
 7859TIP3   OH244991   2.359   3.521  16.685 -0.6399  0.1572 -0.0998
 7859TIP3    H144992   2.452   3.525  16.663 -0.9358 -0.0241 -1.4704
 7859TIP3    H244993   2.338   3.608  16.718 -0.2069  0.5043 -0.7412
 7860TIP3   OH244994   2.267   1.470   1.678  0.5534 -0.3980 -0.0057
 7860TIP3    H144995   2.309   1.461   1.593 -0.6897  1.2884 -0.8313
 7860TIP3    H244996   2.229   1.384   1.696 -2.4097  0.1790 -2.9401
 7861TIP3   OH244997   4.492   0.860  16.912 -0.6127  0.2362  0.1186
 7861TIP3    H144998   4.552   0.926  16.947  0.9380 -0.6129 -0.8331
 7861TIP3    H244999   4.464   0.810  16.988 -0.4219  0.9080  0.6283
 7862TIP3   OH245000   1.675   1.430  11.502 -0.3434  0.9106  0.2615
 7862TIP3    H145001   1.705   1.348  11.465  0.7823 -0.0592  3.2104
 7862TIP3    H245002   1.745   1.492  11.483  0.4870  0.2846  1.2643
 7863TIP3   OH245003   4.478   3.706  15.513  0.1341 -0.1840  0.5596
 7863TIP3    H145004   4.574   3.710  15.516  0.1701 -0.0417 -0.4249
 7863TIP3    H245005   4.449   3.765  15.582  0.7533  1.5016 -0.5982
 7864TIP3   OH245006   6.378   0.093  10.198  0.9870 -0.2598 -0.1586
 7864TIP3    H145007   6.383   0.189  10.195  1.2034 -0.2218  1.0878
 7864TIP3    H245008   6.453   0.067  10.251  0.3773 -1.0601  0.3218
 7865TIP3   OH245009   1.196   4.752  13.107  0.1228  0.0687 -0.4544
 7865TIP3    H145010   1.237   4.692  13.045 -0.6807  0.3242 -1.2387
 7865TIP3    H245011   1.268   4.805  13.139  0.4870  0.2164 -1.4930
 7866TIP3   OH245012   5.932   5.193  13.907  0.0268  0.3574 -0.1731
 7866TIP3    H145013   5.984   5.114  13.922  0.8868  0.7162 -1.2419
 7866TIP3    H245014   5.878   5.172  13.831 -1.0477  0.1592  0.6438
 7867TIP3   OH245015   3.123   0.178   1.120  0.0272  0.0791  0.3073
 7867TIP3    H145016   3.185   0.211   1.185  1.3647  0.2361 -1.0295
 7867TIP3    H245017   3.049   0.239   1.125  1.0164  1.3098  0.2323
 7868TIP3   OH245018   6.155   3.485  14.288 -0.2980 -0.3355  0.1111
 7868TIP3    H145019   6.079   3.540  14.270 -0.9204 -1.1197  0.2786
 7868TIP3    H245020   6.151   3.470  14.383 -0.5843 -1.2949 -0.0433
 7869TIP3   OH245021   3.508   1.549   3.123 -0.8161  0.0224  0.3774
 7869TIP3    H145022   3.536   1.533   3.213  0.3302 -0.4665 -0.0620
 7869TIP3    H245023   3.552   1.630   3.098 -0.9180  0.0099  0.1562
 7870TIP3   OH245024   6.149   4.920   5.362 -0.1579 -0.0646  0.4798
 7870TIP3    H145025   6.165   4.834   5.401  0.8489 -1.0029 -1.9159
 7870TIP3    H245026   6.234   4.963   5.362 -0.0879 -0.1885 -0.9341
 7871TIP3   OH245027   0.626   3.204  15.300  0.4949  0.3205  0.7363
 7871TIP3    H145028   0.573   3.130  15.331  0.4317 -0.8122 -1.9527
 7871TIP3    H245029   0.709   3.195  15.348 -0.3419 -0.1143  2.1476
 7872TIP3   OH245030   3.084   3.767  14.338  0.0024  0.4878 -0.2801
 7872TIP3    H145031   3.167   3.744  14.296 -1.1589 -3.0296 -0.8313
 7872TIP3    H245032   3.094   3.736  14.428 -1.1971 -1.3263 -0.7382
 7873TIP3   OH245033   1.539   2.800   2.385 -0.1127 -0.2324 -0.5856
 7873TIP3    H145034   1.487   2.874   2.415 -0.6653  0.0065 -2.0852
 7873TIP3    H245035   1.626   2.815   2.422 -0.8005 -0.0401  0.9896
 7874TIP3   OH245036   4.860   0.897  16.448  0.0531  0.3251 -0.1409
 7874TIP3    H145037   4.805   0.926  16.520 -1.2634  0.9419 -1.3630
 7874TIP3    H245038   4.873   0.804  16.462 -0.0020  0.4915  1.0066
 7875TIP3   OH245039   0.549   4.445  11.352  0.0985 -0.5276  0.4520
 7875TIP3    H145040   0.564   4.505  11.425 -1.8762  0.5916 -0.0258
 7875TIP3    H245041   0.626   4.388  11.352  1.0571  0.7069  2.1738
 7876TIP3   OH245042   6.505   3.839  16.542 -0.4568  0.8033  0.3045
 7876TIP3    H145043   6.455   3.764  16.510  1.1335 -0.5861  0.9978
 7876TIP3    H245044   6.579   3.846  16.482  0.5433  0.4911  1.4870
 7877TIP3   OH245045   1.241   3.654   4.208 -0.0330  0.3391  0.2973
 7877TIP3    H145046   1.225   3.663   4.302  0.5935  1.5350  0.2889
 7877TIP3    H245047   1.182   3.717   4.167 -1.0272 -0.8709 -0.1850
 7878TIP3   OH245048   0.242   1.265   1.229 -0.0267 -0.1331  0.0771
 7878TIP3    H145049   0.254   1.232   1.318  0.0738  1.5793  0.7284
 7878TIP3    H245050   0.307   1.335   1.221 -0.8879  0.5717 -0.8869
 7879TIP3   OH245051   4.012   0.320   0.648 -0.2820  0.1953 -0.1405
 7879TIP3    H145052   4.043   0.287   0.733 -2.1659 -4.0131 -0.9440
 7879TIP3    H245053   3.950   0.389   0.670  0.2225  0.0470  1.8532
 7880TIP3   OH245054   3.509   6.210  11.994 -0.3723 -0.0100  0.9882
 7880TIP3    H145055   3.548   6.186  12.078 -0.9106  1.1884  1.5882
 7880TIP3    H245056   3.512   6.129  11.942 -0.1203 -0.7769  2.1878
 7881TIP3   OH245057   0.480   0.546   5.833 -0.6761  0.2672 -0.1722
 7881TIP3    H145058   0.398   0.528   5.786 -0.8820  0.4642  0.1152
 7881TIP3    H245059   0.452   0.572   5.921 -0.3382  1.2576 -0.3572
 7882TIP3   OH245060   2.882   5.396   0.917  0.5078 -0.1710  0.3230
 7882TIP3    H145061   2.876   5.485   0.882  0.0494 -0.1750  0.3895
 7882TIP3    H245062   2.926   5.407   1.001  1.8522 -0.1876 -0.3560
 7883TIP3   OH245063   5.883   5.027  12.261  0.6801  0.2690  0.5838
 7883TIP3    H145064   5.961   5.064  12.303 -0.0403  0.8716  1.3950
 7883TIP3    H245065   5.911   4.940  12.234  0.9423 -0.4253  2.9820
 7884TIP3   OH245066   0.186   2.172   2.556 -0.1584 -0.4036  0.6030
 7884TIP3    H145067   0.122   2.232   2.517  1.8482  0.5456 -1.2781
 7884TIP3    H245068   0.212   2.215   2.638  1.0812  1.2160 -0.6122
 7885TIP3   OH245069   1.692   5.371  14.971 -0.0551 -0.3117 -0.3279
 7885TIP3    H145070   1.693   5.316  15.050  1.4665  0.3364  0.1026
 7885TIP3    H245071   1.721   5.457  15.001 -1.8585  0.6055 -1.1270
 7886TIP3   OH245072   0.349   4.039   1.989  0.4606  0.4389  0.4798
 7886TIP3    H145073   0.396   3.979   1.931 -0.3563 -0.5708  0.8372
 7886TIP3    H245074   0.376   4.013   2.077 -0.1242  0.3975  0.6493
 7887TIP3   OH245075   4.008   5.453   4.620 -0.0763  0.0164  0.2803
 7887TIP3    H145076   4.064   5.378   4.605 -0.5368 -0.1653 -0.5482
 7887TIP3    H245077   3.974   5.476   4.533  1.3763  2.2176  0.2609
 7888TIP3   OH245078   5.186   2.635   5.088 -0.1611  0.0931  0.0512
 7888TIP3    H145079   5.274   2.613   5.119  0.3769  0.9068 -0.8686
 7888TIP3    H245080   5.158   2.707   5.145  0.4536  0.9610 -0.7284
 7889TIP3   OH245081   6.143   1.296   3.037 -0.2089  0.7139 -0.1316
 7889TIP3    H145082   6.067   1.330   3.083 -0.2539  1.1213 -0.4999
 7889TIP3    H245083   6.196   1.374   3.016  0.3175  0.4341  0.1426
 7890TIP3   OH245084   4.451   4.177  11.030 -0.1317 -0.2908 -0.1698
 7890TIP3    H145085   4.381   4.186  10.966  0.2685  1.7246 -0.3361
 7890TIP3    H245086   4.410   4.200  11.113 -0.1936 -1.1964  0.0629
 7891TIP3   OH245087   1.539   1.539  14.618 -0.3734 -0.3136 -0.4910
 7891TIP3    H145088   1.568   1.556  14.708 -0.6411 -0.1089 -0.4428
 7891TIP3    H245089   1.579   1.455  14.596 -1.1953 -0.8992  0.2124
 7892TIP3   OH245090   2.903   0.877  16.073  0.6167 -0.3440  0.2227
 7892TIP3    H145091   2.945   0.952  16.114  3.3929 -1.4117 -0.5629
 7892TIP3    H245092   2.970   0.809  16.071 -0.3613 -1.3588 -3.1985
 7893TIP3   OH245093   3.007   2.743   0.437  0.0389  0.6713 -0.1407
 7893TIP3    H145094   2.923   2.706   0.410  0.0070 -0.2397  1.1491
 7893TIP3    H245095   2.985   2.802   0.509  0.5115  0.4318  0.1959
 7894TIP3   OH245096   0.497   6.007   1.219 -0.1367  0.2783  0.0718
 7894TIP3    H145097   0.537   5.925   1.189  0.5916  0.4494  0.5573
 7894TIP3    H245098   0.403   5.993   1.208 -0.0084 -0.5386 -0.0570
 7895TIP3   OH245099   0.996   2.540   3.018  0.3718  0.1604  0.3633
 7895TIP3    H145100   1.070   2.513   2.963 -0.7170  0.6951 -1.3907
 7895TIP3    H245101   0.953   2.458   3.042 -1.1902  0.0805 -2.4989
 7896TIP3   OH245102   6.339   4.251  14.599  0.2054 -0.1864 -0.5225
 7896TIP3    H145103   6.264   4.193  14.581 -0.3197  0.0975  0.7161
 7896TIP3    H245104   6.408   4.192  14.630 -0.6814 -0.0340  1.7762
 7897TIP3   OH245105   2.833   1.602   0.933  0.3791  0.2692  0.3949
 7897TIP3    H145106   2.903   1.585   0.996  0.2071 -3.7698 -0.3335
 7897TIP3    H245107   2.874   1.593   0.847 -1.1922 -3.7762 -0.0679
 7898TIP3   OH245108   3.828   6.462  15.975 -0.0791 -0.3333  0.4564
 7898TIP3    H145109   3.811   6.400  16.046  0.6653 -0.8722  0.1640
 7898TIP3    H245110   3.877   6.412  15.910 -0.6244  0.2040 -0.3804
 7899TIP3   OH245111   3.464   5.790   4.632 -0.5581 -0.1580  0.1430
 7899TIP3    H145112   3.415   5.869   4.656 -0.4487 -0.6776  2.1081
 7899TIP3    H245113   3.477   5.799   4.537 -1.9344  1.3979  0.0675
 7900TIP3   OH245114   5.275   5.371   1.604  0.0393 -0.2697 -0.1182
 7900TIP3    H145115   5.187   5.391   1.571  0.2173 -0.4804 -0.7287
 7900TIP3    H245116   5.287   5.430   1.679 -1.4409 -1.6716  1.2853
 7901TIP3   OH245117   3.802   2.998   6.576  0.0408  0.2498 -0.3346
 7901TIP3    H145118   3.716   2.956   6.570  0.4780 -0.7176  0.0328
 7901TIP3    H245119   3.813   3.044   6.493 -0.4522 -0.3570 -0.7343
 7902TIP3   OH245120   4.161   1.432  14.554 -0.1562 -0.0474 -0.2008
 7902TIP3    H145121   4.144   1.468  14.642 -1.1344 -0.4031 -0.2306
 7902TIP3    H245122   4.246   1.389  14.562  0.5985  1.4596  0.0897
 7903TIP3   OH245123   3.975   5.695  17.179  0.0018  0.0695 -0.1708
 7903TIP3    H145124   4.012   5.671  17.094 -2.0029  0.0936 -1.0706
 7903TIP3    H245125   4.000   5.787  17.191 -0.1754  0.2240 -0.9794
 7904TIP3   OH245126   1.879   1.292   0.645 -0.2130 -0.4462  0.8540
 7904TIP3    H145127   1.800   1.288   0.698 -1.2085 -2.1281 -0.7142
 7904TIP3    H245128   1.869   1.222   0.581  2.3315 -0.3817  0.3284
 7905TIP3   OH245129   4.537   6.341   2.733  0.6872  0.1498  0.0961
 7905TIP3    H145130   4.541   6.436   2.748  1.5209  0.1015  0.1749
 7905TIP3    H245131   4.451   6.316   2.767  0.2319  0.9658 -0.4283
 7906TIP3   OH245132   5.930   4.762   3.267  0.1973 -0.3440 -0.0129
 7906TIP3    H145133   5.978   4.741   3.186 -0.8396 -1.9543 -0.2331
 7906TIP3    H245134   5.989   4.821   3.315 -0.1759  2.6571 -3.0174
 7907TIP3   OH245135   0.512   6.441  14.266  0.1365  0.3089  0.6340
 7907TIP3    H145136   0.529   6.479  14.180 -0.3547 -0.4172  0.2204
 7907TIP3    H245137   0.589   6.465  14.318  0.8638 -0.0601 -0.2726
 7908TIP3   OH245138   1.205   5.087  13.145  0.0147 -0.3930  0.2882
 7908TIP3    H145139   1.197   5.044  13.230  1.0077  0.3396  0.7658
 7908TIP3    H245140   1.284   5.051  13.107 -1.5009 -2.2091 -1.2231
 7909TIP3   OH245141   6.499   2.643   2.566 -0.0936 -0.3892  0.2119
 7909TIP3    H145142   6.523   2.640   2.659  0.8113 -1.1780 -0.0354
 7909TIP3    H245143   6.582   2.658   2.521 -0.5546  0.1510 -0.4579
 7910TIP3   OH245144   5.432   2.836   4.706 -0.3743  0.2289 -0.4372
 7910TIP3    H145145   5.339   2.856   4.702 -0.1473  1.3153 -0.6029
 7910TIP3    H245146   5.440   2.769   4.774 -1.3297 -0.2433 -0.7824
 7911TIP3   OH245147   6.287   0.876  16.714 -0.6566 -0.7172 -0.0715
 7911TIP3    H145148   6.347   0.889  16.641 -1.2985  0.2959 -0.4200
 7911TIP3    H245149   6.201   0.865  16.674 -1.1353  0.6075  0.5467
 7912TIP3   OH245150   3.913   2.450  15.666  0.1542 -0.2126  0.3078
 7912TIP3    H145151   3.894   2.427  15.757  0.5150 -0.3761  0.3418
 7912TIP3    H245152   3.925   2.545  15.668 -1.1434 -0.0342  0.1995
 7913TIP3   OH245153   3.667   5.229  17.233 -0.4629 -0.4143 -0.0500
 7913TIP3    H145154   3.696   5.249  17.322  1.5431  1.6842 -1.1172
 7913TIP3    H245155   3.572   5.243  17.235 -0.4688 -0.5953  1.7968
 7914TIP3   OH245156   1.135   2.176  10.397 -0.0743 -0.3322 -0.0842
 7914TIP3    H145157   1.223   2.159  10.364  0.3809  0.4571  0.7035
 7914TIP3    H245158   1.113   2.263  10.363  0.2235  0.2987  1.2780
 7915TIP3   OH245159   3.586   0.745  13.312 -0.0609  0.3385  0.7641
 7915TIP3    H145160   3.579   0.825  13.364  1.0510  0.8224  0.1807
 7915TIP3    H245161   3.626   0.773  13.230  1.5324 -1.0098  1.0531
 7916TIP3   OH245162   5.356   4.786  11.030 -0.0847  0.6301  0.2061
 7916TIP3    H145163   5.316   4.701  11.012 -0.3625  1.1762 -1.8561
 7916TIP3    H245164   5.283   4.847  11.031  0.2354  1.0046  0.5914
 7917TIP3   OH245165   0.708   4.869  14.391 -0.4396 -0.3704 -0.7722
 7917TIP3    H145166   0.696   4.943  14.332 -1.6807  1.4839  1.7060
 7917TIP3    H245167   0.803   4.858  14.398 -0.2026  1.7372 -0.3299
 7918TIP3   OH245168   6.478   3.976   1.640  0.7958  0.1337  0.2911
 7918TIP3    H145169   6.567   3.959   1.608  1.2426  1.7750  0.6454
 7918TIP3    H245170   6.427   3.991   1.560  0.5973 -1.7474  0.0225
 7919TIP3   OH245171   2.698   3.701  13.443 -0.1158  0.5241 -1.0548
 7919TIP3    H145172   2.730   3.687  13.354 -1.0503  2.4503 -1.7252
 7919TIP3    H245173   2.758   3.766  13.480  1.3460 -1.5553  0.3775
 7920TIP3   OH245174   4.009   1.324   2.617 -0.7605 -0.1767 -0.2422
 7920TIP3    H145175   4.079   1.277   2.570  0.5174  1.0571  0.3874
 7920TIP3    H245176   3.957   1.364   2.547  1.2888  1.8703 -0.6877
 7921TIP3   OH245177   2.344   1.310   4.446 -0.4015 -0.1567  0.1077
 7921TIP3    H145178   2.350   1.405   4.432  0.5430  0.1091  2.0987
 7921TIP3    H245179   2.425   1.275   4.407 -0.3338 -0.0438  0.1463
 7922TIP3   OH245180   5.457   4.610  14.680 -0.3412  0.3569  0.2732
 7922TIP3    H145181   5.427   4.693  14.717  0.2512  1.2192 -1.1501
 7922TIP3    H245182   5.553   4.615  14.683 -0.2728  0.5113 -1.4941
 7923TIP3   OH245183   5.281   1.932   3.705 -0.2231  0.1476  0.0144
 7923TIP3    H145184   5.316   1.916   3.618 -0.3790  0.2699 -0.0707
 7923TIP3    H245185   5.312   2.019   3.729 -1.3635  0.7033 -0.5061
 7924TIP3   OH245186   6.554   2.023   5.527 -0.3605 -0.0864 -0.1380
 7924TIP3    H145187   6.505   2.001   5.606 -1.2002  1.0920 -0.3309
 7924TIP3    H245188   6.487   2.040   5.461  0.3224  0.1963 -0.7607
 7925TIP3   OH245189   4.822   4.076  16.439 -0.8749  0.3817  0.7670
 7925TIP3    H145190   4.846   4.110  16.525  0.8896 -2.2069  1.3388
 7925TIP3    H245191   4.826   3.981  16.448 -0.1613  0.0583 -2.2850
 7926TIP3   OH245192   1.943   4.276  14.986 -0.6767  0.1496 -0.2487
 7926TIP3    H145193   1.984   4.191  14.971 -0.0965  0.4470 -0.3876
 7926TIP3    H245194   1.907   4.301  14.900  0.2451  0.6059 -0.5096
 7927TIP3   OH245195   1.220   3.455  15.590 -0.2335 -0.0436 -0.3690
 7927TIP3    H145196   1.254   3.467  15.501 -0.4609  0.8043 -0.3439
 7927TIP3    H245197   1.161   3.529  15.603 -0.8314 -0.6125  0.1923
 7928TIP3   OH245198   6.559   2.509   1.565 -0.3331 -0.2344  0.7256
 7928TIP3    H145199   6.531   2.586   1.515  1.7848  1.1187  1.5425
 7928TIP3    H245200   6.546   2.534   1.657 -0.4109 -1.1842  0.9804
 7929TIP3   OH245201   2.718   2.639   2.473  0.3262  0.1652 -0.4190
 7929TIP3    H145202   2.657   2.588   2.527 -1.1869  0.4747 -1.7810
 7929TIP3    H245203   2.744   2.712   2.529 -1.6267  0.7670 -0.2538
 7930TIP3   OH245204   0.052   0.876   5.528 -0.2393 -0.0408  0.0794
 7930TIP3    H145205   0.051   0.811   5.598  1.9717  0.2122  0.3787
 7930TIP3    H245206   0.095   0.952   5.567 -0.3723  0.6466 -1.0950
 7931TIP3   OH245207   6.447   6.217  11.687  0.0764 -0.4684  0.0007
 7931TIP3    H145208   6.465   6.281  11.756 -1.3687  1.4527 -1.3339
 7931TIP3    H245209   6.380   6.160  11.725 -2.8729  2.3375 -0.7275
 7932TIP3   OH245210   1.475   6.200  13.652 -0.4237 -0.0946 -0.4641
 7932TIP3    H145211   1.435   6.221  13.567 -0.2826  1.2085 -0.2287
 7932TIP3    H245212   1.455   6.277  13.707 -1.5613 -1.4488  1.0628
 7933TIP3   OH245213   0.859   0.457  16.291 -0.1921  0.5448  0.2092
 7933TIP3    H145214   0.878   0.445  16.197 -0.4780 -0.7207  0.2966
 7933TIP3    H245215   0.945   0.450  16.333  0.0755  2.1157 -0.0298
 7934TIP3   OH245216   5.992   2.439  12.828 -0.1097 -0.6432 -0.7269
 7934TIP3    H145217   5.919   2.415  12.772  0.8096 -1.9130 -1.4060
 7934TIP3    H245218   5.960   2.512  12.879 -1.1619  0.1673 -2.5038
 7935TIP3   OH245219   1.816   6.418  14.906 -0.1477 -0.2318 -0.6411
 7935TIP3    H145220   1.808   6.405  15.001 -2.2153 -1.4390 -0.9566
 7935TIP3    H245221   1.824   6.330  14.870  0.5279  0.2170 -1.6100
 7936TIP3   OH245222   0.821   1.466   5.263 -0.6148 -0.2724  0.1591
 7936TIP3    H145223   0.858   1.502   5.344  0.8405  1.7098 -1.3407
 7936TIP3    H245224   0.889   1.407   5.230 -0.0653  0.9673 -0.9731
 7937TIP3   OH245225   3.821   3.207   0.926  0.2763 -0.5622 -0.4908
 7937TIP3    H145226   3.727   3.186   0.928  0.2856 -0.5623  0.9305
 7937TIP3    H245227   3.825   3.302   0.922  0.2097 -0.5296  0.1809
 7938TIP3   OH245228   2.572   3.765  12.431 -0.2003  0.1226  0.2652
 7938TIP3    H145229   2.629   3.766  12.354 -0.3882 -1.0982  0.1008
 7938TIP3    H245230   2.557   3.858  12.450 -0.1206  0.4486 -1.1475
 7939TIP3   OH245231   2.540   3.190   0.147 -0.9268  0.0294  0.0347
 7939TIP3    H145232   2.479   3.124   0.181 -0.3711 -0.2903  0.4081
 7939TIP3    H245233   2.578   3.231   0.225  1.1643 -1.4485 -0.1809
 7940TIP3   OH245234   6.644   2.106  16.995 -0.4735  0.1747 -0.0037
 7940TIP3    H145235   6.671   2.039  16.932 -2.1218 -1.6624  1.2010
 7940TIP3    H245236   6.593   2.169  16.943 -0.8836 -0.7328 -0.7128
 7941TIP3   OH245237   2.999   2.592   4.709  0.2039 -0.1845 -0.6092
 7941TIP3    H145238   3.059   2.552   4.646 -1.5517 -1.0362 -1.8010
 7941TIP3    H245239   2.956   2.662   4.659  0.4822  0.6612  0.3367
 7942TIP3   OH245240   5.229   4.253  14.207  0.4408 -0.2782  0.1963
 7942TIP3    H145241   5.204   4.318  14.272 -0.5102 -1.4896  1.0827
 7942TIP3    H245242   5.151   4.243  14.153  1.3771  1.0429 -1.4184
 7943TIP3   OH245243   1.948   6.076   1.147 -0.0243 -0.0081  0.0893
 7943TIP3    H145244   1.995   6.156   1.167 -1.0920  0.4607  0.7548
 7943TIP3    H245245   1.875   6.103   1.092 -0.0753 -0.5902 -0.1366
 7944TIP3   OH245246   1.466   2.817  12.169  0.4842  0.4286  0.1019
 7944TIP3    H145247   1.378   2.847  12.190  0.1344 -0.7648  0.3401
 7944TIP3    H245248   1.504   2.889  12.120  0.1681  1.9039  1.9448
 7945TIP3   OH245249   2.037   0.741   0.164 -0.5689 -0.3399  0.2659
 7945TIP3    H145250   2.009   0.661   0.119 -1.6704 -0.1031  0.5327
 7945TIP3    H245251   2.049   0.714   0.255  0.3529 -0.4995  0.1092
 7946TIP3   OH245252   5.789   5.857  16.540 -0.9720  0.0768  0.1725
 7946TIP3    H145253   5.849   5.783  16.551 -1.7948 -0.3807  1.8794
 7946TIP3    H245254   5.734   5.833  16.466  0.4580  0.1548 -0.9199
 7947TIP3   OH245255   6.293   2.429  15.119  0.9144 -0.1470 -0.2958
 7947TIP3    H145256   6.308   2.452  15.027 -0.5921  1.3525 -0.1895
 7947TIP3    H245257   6.325   2.505  15.168  0.8834 -0.5554  0.3557
 7948TIP3   OH245258   2.911   5.209   5.640  0.5991 -0.0629 -0.5534
 7948TIP3    H145259   2.834   5.155   5.624 -0.1124  0.3085  1.4736
 7948TIP3    H245260   2.983   5.161   5.598 -0.3978 -1.3801 -0.8006
 7949TIP3   OH245261   1.385   6.064  15.070  0.0781  0.0016  0.1578
 7949TIP3    H145262   1.428   6.026  14.993  0.8071 -0.1076  0.6140
 7949TIP3    H245263   1.455   6.109  15.117 -0.0865 -1.1265  1.5039
 7950TIP3   OH245264   1.126   2.420  15.687 -0.3005  0.0252 -0.0679
 7950TIP3    H145265   1.106   2.334  15.650  1.4590 -0.2408 -0.4272
 7950TIP3    H245266   1.059   2.477  15.650 -1.8075 -1.2780  0.5823
 7951TIP3   OH245267   1.359   1.345   2.139  0.8048 -0.2701 -0.4636
 7951TIP3    H145268   1.389   1.331   2.049 -0.6870  1.9713 -1.3232
 7951TIP3    H245269   1.277   1.394   2.131  1.5230  1.4901  2.1566
 7952TIP3   OH245270   2.163   3.557  13.143 -0.5658  0.1303  0.0092
 7952TIP3    H145271   2.226   3.527  13.209 -1.4902  0.1664  0.9153
 7952TIP3    H245272   2.110   3.480  13.124 -0.7172  0.2926 -0.2261
 7953TIP3   OH245273   2.555   1.383  16.343  0.1575 -0.3099  0.2200
 7953TIP3    H145274   2.516   1.304  16.381  0.7756 -1.1818 -0.9354
 7953TIP3    H245275   2.486   1.450  16.351 -1.2222 -1.5647 -0.8366
 7954TIP3   OH245276   0.349   1.138  12.579 -0.6283 -0.2541 -0.2909
 7954TIP3    H145277   0.401   1.215  12.555  1.2018 -0.5635  2.5035
 7954TIP3    H245278   0.341   1.088  12.498  0.3618  1.5883 -1.5599
 7955TIP3   OH245279   3.041   2.291  15.963 -0.6728 -0.2884 -0.1439
 7955TIP3    H145280   2.977   2.228  15.994 -0.1755  0.6631  2.9491
 7955TIP3    H245281   3.015   2.374  16.004  1.4359  0.4971 -0.3355
 7956TIP3   OH245282   5.408   1.200  11.257 -0.1339 -0.7755  0.2948
 7956TIP3    H145283   5.477   1.261  11.232  1.5626 -2.5904  0.3797
 7956TIP3    H245284   5.352   1.194  11.179 -0.0660  0.5421  0.1429
 7957TIP3   OH245285   3.098   4.813   4.490 -0.0360  0.0206  0.2162
 7957TIP3    H145286   3.186   4.850   4.495 -0.2719  0.4063  1.6387
 7957TIP3    H245287   3.102   4.750   4.418  1.3084  0.2915  0.0571
 7958TIP3   OH245288   5.742   0.102  11.654  0.0064 -0.1789 -0.6507
 7958TIP3    H145289   5.668   0.163  11.656  0.4155  0.3123 -0.0719
 7958TIP3    H245290   5.733   0.051  11.734 -1.5865 -2.4080 -2.2246
 7959TIP3   OH245291   3.191   4.977   6.332 -0.1379  0.0102  0.1938
 7959TIP3    H145292   3.260   5.040   6.311 -1.4195  1.4497  0.1350
 7959TIP3    H245293   3.153   4.954   6.247 -1.0025  0.7515  0.3638
 7960TIP3   OH245294   6.295   2.851  16.966  0.3191  0.2872  0.3515
 7960TIP3    H145295   6.222   2.806  17.008  0.7222 -0.5888  0.1284
 7960TIP3    H245296   6.371   2.831  17.020  0.3543  1.4691  0.7693
 7961TIP3   OH245297   0.192   4.408  11.046  0.3660  0.5444  0.3641
 7961TIP3    H145298   0.150   4.483  11.003 -0.5227  0.1732  0.5825
 7961TIP3    H245299   0.157   4.332  11.000 -2.0529  0.0243  2.9454
 7962TIP3   OH245300   2.564   2.450  16.038  0.0293 -0.2044 -0.2892
 7962TIP3    H145301   2.546   2.435  15.945  2.0392 -2.3511 -0.3670
 7962TIP3    H245302   2.517   2.380  16.083  1.5092 -0.9849  0.0666
 7963TIP3   OH245303   3.256   4.818  14.182 -0.1767  0.2370  0.7889
 7963TIP3    H145304   3.301   4.753  14.129 -1.9252  0.8398 -1.5047
 7963TIP3    H245305   3.188   4.770  14.228 -0.1192  0.1035  0.7333
 7964TIP3   OH245306   6.326   2.324   5.234  0.1289 -0.5290 -0.4027
 7964TIP3    H145307   6.419   2.313   5.215  0.8818  1.5865  1.6947
 7964TIP3    H245308   6.297   2.391   5.172  0.4515  0.0654  0.0776
 7965TIP3   OH245309   6.506   1.942   0.734 -0.3342  0.0814 -0.4355
 7965TIP3    H145310   6.469   1.994   0.805  0.2746 -2.3562  1.7345
 7965TIP3    H245311   6.590   1.983   0.715 -0.8930  1.2659 -0.3523
 7966TIP3   OH245312   6.474   5.871  15.859  0.1148 -0.0455 -0.5831
 7966TIP3    H145313   6.453   5.802  15.796  1.7712  0.5614 -1.8520
 7966TIP3    H245314   6.450   5.952  15.815 -0.3418  0.2795  0.2616
 7967TIP3   OH245315   1.872   2.276   3.896  0.3644  0.2024 -0.2044
 7967TIP3    H145316   1.845   2.362   3.862 -1.0792 -0.3123 -0.3925
 7967TIP3    H245317   1.825   2.268   3.979 -1.3757 -1.4144 -1.3195
 7968TIP3   OH245318   4.548   4.065   2.466 -0.0423  0.1344  0.1057
 7968TIP3    H145319   4.471   4.009   2.462 -1.7317  1.9440  4.2868
 7968TIP3    H245320   4.513   4.154   2.477  2.5874  1.0286  1.8387
 7969TIP3   OH245321   6.349   2.524  16.069  0.0773 -0.1081 -0.7952
 7969TIP3    H145322   6.301   2.551  16.148  0.8540 -0.1163 -0.3128
 7969TIP3    H245323   6.285   2.533  15.998 -1.5039 -2.6573  0.2074
 7970TIP3   OH245324   0.632   2.936  13.058 -0.6075  0.2416 -0.2179
 7970TIP3    H145325   0.683   2.975  12.987 -0.4743 -3.8132 -2.4852
 7970TIP3    H245326   0.692   2.934  13.133  0.0346  2.3954 -0.6543
 7971TIP3   OH245327   4.664   4.196  15.366 -0.2858  0.2615  0.5174
 7971TIP3    H145328   4.609   4.150  15.303  0.6881 -1.5347  0.9535
 7971TIP3    H245329   4.637   4.161  15.451  2.2511 -1.4858  0.6606
 7972TIP3   OH245330   1.505   2.800   4.472 -0.5355  0.3856  1.3217
 7972TIP3    H145331   1.418   2.791   4.510 -0.5419 -0.9854  1.0119
 7972TIP3    H245332   1.564   2.759   4.536 -0.2608  0.2651  0.9955
 7973TIP3   OH245333   6.509   4.208   3.211 -0.1992 -0.6493 -0.0282
 7973TIP3    H145334   6.494   4.204   3.116 -2.1222  1.5348  0.1535
 7973TIP3    H245335   6.445   4.147   3.248 -0.0987 -0.7699 -0.0485
 7974TIP3   OH245336   3.517   4.508  16.878 -0.3044  0.1451  0.3611
 7974TIP3    H145337   3.579   4.548  16.816 -0.9885  0.1133 -0.3593
 7974TIP3    H245338   3.491   4.580  16.935  0.7528  0.0539  0.9630
 7975TIP3   OH245339   6.523   5.117   1.667 -0.2595 -0.7905 -0.1719
 7975TIP3    H145340   6.559   5.205   1.654  1.0882 -1.2156  0.5357
 7975TIP3    H245341   6.462   5.127   1.740  0.7383 -0.6381  0.6662
 7976TIP3   OH245342   0.584   1.570   2.171 -0.0851  0.0304 -0.0301
 7976TIP3    H145343   0.503   1.619   2.182 -0.6380 -0.4900 -1.5624
 7976TIP3    H245344   0.644   1.632   2.130 -0.2847 -0.0987 -0.5257
 7977TIP3   OH245345   4.137   4.385   1.237 -0.2721 -0.2263  0.0366
 7977TIP3    H145346   4.154   4.455   1.300  1.3975 -0.8186  0.2694
 7977TIP3    H245347   4.173   4.306   1.278 -0.0633 -0.8005 -1.2272
 7978TIP3   OH245348   4.273   3.050   3.532 -0.1370 -0.1129  0.1617
 7978TIP3    H145349   4.291   3.138   3.565  0.3614  0.1532 -0.8056
 7978TIP3    H245350   4.222   3.063   3.453  2.0950 -0.5611 -1.4204
 7979TIP3   OH245351   5.320   4.489  14.071 -0.5921 -0.7051 -0.5260
 7979TIP3    H145352   5.292   4.403  14.105  0.6459 -0.0987  2.1881
 7979TIP3    H245353   5.408   4.473  14.038 -0.8249 -0.7234 -1.1480
 7980TIP3   OH245354   4.933   5.593   0.026  0.5568 -0.3764 -0.3651
 7980TIP3    H145355   4.969   5.507   0.049 -0.8477 -0.2948  2.2849
 7980TIP3    H245356   4.846   5.574  -0.009  0.5088 -0.0671 -0.4142
 7981TIP3   OH245357   1.326   5.086  15.700  0.6416  0.0264  0.2265
 7981TIP3    H145358   1.367   5.046  15.778 -0.6130 -0.9650  0.3966
 7981TIP3    H245359   1.336   5.019  15.632 -1.2551 -0.5031  0.4421
 7982TIP3   OH245360   3.809   0.725   3.120 -0.1693 -0.4834 -0.4245
 7982TIP3    H145361   3.870   0.798   3.132 -1.8490  0.9971 -0.6069
 7982TIP3    H245362   3.754   0.728   3.198 -0.4329 -1.3837 -0.5754
 7983TIP3   OH245363   2.171   4.724  16.972  0.4762  0.0696  0.5481
 7983TIP3    H145364   2.114   4.798  16.949 -0.1497 -0.3876  0.6198
 7983TIP3    H245365   2.126   4.648  16.936  2.7896  0.0640 -2.5432
 7984TIP3   OH245366   1.752   0.799   1.793  0.6115  0.0028 -0.2494
 7984TIP3    H145367   1.698   0.874   1.817  0.3958 -1.1184  3.0102
 7984TIP3    H245368   1.831   0.838   1.753 -0.1620  1.8575 -0.0011
 7985TIP3   OH245369   0.115   1.994  12.369  0.5779 -0.2939  0.2261
 7985TIP3    H145370   0.143   1.984  12.460  1.2715  2.4620  0.3488
 7985TIP3    H245371   0.196   1.994  12.319  0.3225  0.2198 -0.1865
 7986TIP3   OH245372   1.650   4.552  12.747  0.7532 -0.0201  0.1223
 7986TIP3    H145373   1.678   4.515  12.831  1.8394  0.3224 -0.0851
 7986TIP3    H245374   1.694   4.500  12.681 -1.1287 -1.1241 -0.2883
 7987TIP3   OH245375   5.551   1.401  16.679 -0.1325  0.1611 -0.2855
 7987TIP3    H145376   5.596   1.396  16.763 -0.8513 -2.4696 -0.0270
 7987TIP3    H245377   5.548   1.495  16.659  0.8524  0.7452  2.1619
 7988TIP3   OH245378   0.263   5.189   5.680 -0.1268  0.1264 -0.6416
 7988TIP3    H145379   0.243   5.205   5.588  0.0575  0.5328 -0.6117
 7988TIP3    H245380   0.358   5.186   5.684 -0.1591 -1.6186 -0.7499
 7989TIP3   OH245381   3.936   5.716   3.277 -0.4760  0.0627  0.0052
 7989TIP3    H145382   3.981   5.796   3.250  0.8903 -0.0350  1.8691
 7989TIP3    H245383   3.931   5.663   3.197 -0.2961  1.5037 -0.9686
 7990TIP3   OH245384   2.943   3.294   2.426  0.3114 -0.3791  0.4704
 7990TIP3    H145385   2.878   3.350   2.467  1.6501  1.0559  0.6864
 7990TIP3    H245386   2.933   3.210   2.470 -2.5443 -0.6864 -0.6978
 7991TIP3   OH245387   3.900   0.525   4.297 -0.0568  0.0170 -0.4713
 7991TIP3    H145388   3.866   0.567   4.218  0.0051  0.6394 -0.1733
 7991TIP3    H245389   3.971   0.469   4.266  0.4648  0.8333 -0.7845
 7992TIP3   OH245390   2.804   3.551  13.179 -0.1117 -0.1886  0.0922
 7992TIP3    H145391   2.873   3.529  13.116 -1.5322  0.3267 -1.6761
 7992TIP3    H245392   2.725   3.511  13.144 -0.7985 -0.5608  1.9720
 7993TIP3   OH245393   0.378   6.741   0.282 -0.0876 -0.0686 -0.4522
 7993TIP3    H145394   0.423   6.694   0.353 -0.0470  0.0625 -0.3919
 7993TIP3    H245395   0.285   6.731   0.302 -0.0629  0.4024 -0.1049
 7994TIP3   OH245396   2.154   0.034   5.709 -0.4544 -0.6885  0.0395
 7994TIP3    H145397   2.069   0.075   5.693 -0.4534 -0.3488  0.9180
 7994TIP3    H245398   2.177  -0.005   5.624 -0.1862  1.6019 -0.9830
 7995TIP3   OH245399   4.457   6.361   3.595 -0.1712  0.0077  0.1009
 7995TIP3    H145400   4.412   6.306   3.531 -0.1311 -0.9383  0.8729
 7995TIP3    H245401   4.516   6.301   3.641 -0.0749  0.7069  0.9025
 7996TIP3   OH245402   2.319   5.067  14.648 -0.1018 -0.1417  0.1485
 7996TIP3    H145403   2.334   5.106  14.734 -2.3529  0.8331  0.1554
 7996TIP3    H245404   2.253   4.999  14.664 -1.2331  0.6784 -0.9170
 7997TIP3   OH245405   3.217   4.768  16.089 -0.2074  0.6057  0.1268
 7997TIP3    H145406   3.159   4.712  16.037 -0.5920  0.1301  1.0736
 7997TIP3    H245407   3.210   4.854  16.048 -0.6828  0.2858 -0.4773
 7998TIP3   OH245408   1.182   0.726  11.750 -0.1564 -0.4043  0.0428
 7998TIP3    H145409   1.224   0.788  11.690 -0.7586  0.0915  0.1306
 7998TIP3    H245410   1.110   0.776  11.789 -1.8963 -1.7748 -1.3826
 7999TIP3   OH245411   5.172   1.140  10.753 -0.1657  0.1752 -0.0040
 7999TIP3    H145412   5.152   1.049  10.778  4.0983 -1.2305 -1.3593
 7999TIP3    H245413   5.213   1.133  10.668 -1.1831  3.6153 -0.8566
 8000TIP3   OH245414   4.896   6.026   4.354  0.2697  0.2241 -0.9266
 8000TIP3    H145415   4.985   6.060   4.350  0.0624  0.7187 -1.6245
 8000TIP3    H245416   4.853   6.064   4.277 -0.5528  0.0289 -0.5697
 8001TIP3   OH245417   5.931   0.669   0.085 -0.5877  0.0722 -0.6156
 8001TIP3    H145418   5.872   0.598   0.108  0.8764 -0.8172  0.4366
 8001TIP3    H245419   5.886   0.748   0.116 -0.3865 -0.7665  1.8551
 8002TIP3   OH245420   0.398   6.551   4.089 -0.7362  0.5494  0.2496
 8002TIP3    H145421   0.337   6.507   4.030 -0.7645 -1.1350  1.4907
 8002TIP3    H245422   0.377   6.515   4.176 -0.4494  2.7056  1.2348
 8003TIP3   OH245423   4.242   4.876   1.224  0.3194 -0.2615  0.0543
 8003TIP3    H145424   4.216   4.954   1.175 -0.2803 -1.3059 -1.3491
 8003TIP3    H245425   4.337   4.882   1.232  0.3387  0.3201 -0.5744
 8004TIP3   OH245426   0.615   5.966   2.260  0.2543 -0.3962  0.0671
 8004TIP3    H145427   0.596   5.921   2.342  0.5196 -0.4753  0.0861
 8004TIP3    H245428   0.711   5.972   2.258  0.2003  0.8594  0.4433
 8005TIP3   OH245429   1.578   1.930   2.846  0.1445 -0.6450 -0.0187
 8005TIP3    H145430   1.507   1.963   2.900  0.8631  0.6197  0.1666
 8005TIP3    H245431   1.589   1.839   2.873 -0.0692 -0.2669  1.3360
 8006TIP3   OH245432   0.670   5.378  15.201  0.3726  0.2102 -0.3289
 8006TIP3    H145433   0.680   5.394  15.295  3.5807 -3.0383  0.0343
 8006TIP3    H245434   0.615   5.299  15.196 -1.3097  1.4156 -1.2919
 8007TIP3   OH245435   3.845   4.009  16.259 -0.3986  0.2856  0.4555
 8007TIP3    H145436   3.846   3.915  16.278  0.6777  0.3543  0.7877
 8007TIP3    H245437   3.840   4.051  16.345 -1.0339  0.5348  0.3009
 8008TIP3   OH245438   1.966   4.309   2.020  0.2608  0.1043 -0.5300
 8008TIP3    H145439   1.903   4.322   2.091  2.2462 -0.4964  1.3874
 8008TIP3    H245440   2.002   4.397   2.005 -1.6416  0.6221 -2.2572
 8009TIP3   OH245441   5.035   4.274  12.885  0.0822 -0.3315  0.1718
 8009TIP3    H145442   5.023   4.310  12.797  0.5387 -1.0969 -0.2119
 8009TIP3    H245443   5.080   4.191  12.871 -1.1446 -1.1680  1.0139
 8010TIP3   OH245444   5.100   3.221  16.344  0.7510  0.1842 -0.5683
 8010TIP3    H145445   5.058   3.193  16.263  0.5974  1.5496 -0.9634
 8010TIP3    H245446   5.155   3.146  16.370 -0.1424 -0.7157 -1.2679
 8011TIP3   OH245447   5.659   5.256   5.523 -0.7960 -0.1113  0.2614
 8011TIP3    H145448   5.625   5.344   5.509  0.4717  0.2883 -0.3658
 8011TIP3    H245449   5.687   5.227   5.437  4.1544  1.1481  1.3173
 8012TIP3   OH245450   6.212   6.257  10.913  0.0975  0.5914  0.0505
 8012TIP3    H145451   6.157   6.322  10.957 -0.4368 -0.1627  0.5010
 8012TIP3    H245452   6.301   6.290  10.924 -0.1073  0.8523  0.9525
 8013TIP3   OH245453   0.583   3.308  16.304 -0.1529 -0.7396  0.2784
 8013TIP3    H145454   0.666   3.289  16.260 -0.0865  0.2676 -0.0540
 8013TIP3    H245455   0.525   3.338  16.234 -0.0492  0.8741  0.8578
 8014TIP3   OH245456   2.678   3.489  14.636  0.0080  0.4498 -0.5225
 8014TIP3    H145457   2.728   3.564  14.603  0.5473 -0.4443 -1.7783
 8014TIP3    H245458   2.633   3.523  14.714  1.6634  1.5905 -0.0174
 8015TIP3   OH245459   4.656   2.698   0.638  0.5863  0.8135 -0.6567
 8015TIP3    H145460   4.578   2.686   0.694  0.8339 -1.4083 -0.7529
 8015TIP3    H245461   4.630   2.661   0.554  1.4646  0.8431 -0.9374
 8016TIP3   OH245462   1.219   4.707  16.917  0.0990  0.0466 -0.3903
 8016TIP3    H145463   1.282   4.775  16.894  1.6099 -0.9271  0.8270
 8016TIP3    H245464   1.271   4.638  16.957 -1.5200 -1.5118 -0.9019
 8017TIP3   OH245465   6.411   3.010   3.820 -0.3283 -0.2556  0.0147
 8017TIP3    H145466   6.333   3.047   3.778 -0.4870 -1.2186 -0.5788
 8017TIP3    H245467   6.376   2.952   3.888 -0.0419  3.2212  3.2583
 8018TIP3   OH245468   6.225   6.738  15.587  0.3705 -0.6023 -0.4373
 8018TIP3    H145469   6.241   6.651  15.551  1.1303 -0.1984 -1.1057
 8018TIP3    H245470   6.312   6.779  15.587  0.2425 -0.3174  1.1167
 8019TIP3   OH245471   5.662   1.869   0.611  0.3225  0.0064  0.6946
 8019TIP3    H145472   5.742   1.817   0.616  1.2568  1.2780 -0.5850
 8019TIP3    H245473   5.693   1.959   0.597 -1.3673  0.2549 -1.7799
 8020TIP3   OH245474   3.697   1.349   2.747 -0.3213 -0.3196 -0.4851
 8020TIP3    H145475   3.748   1.417   2.704 -0.7800  0.4296  0.1394
 8020TIP3    H245476   3.677   1.286   2.678  0.2588  0.0885 -1.0268
 8021TIP3   OH245477   0.716   3.608   2.362 -0.7834 -0.1019  0.4843
 8021TIP3    H145478   0.812   3.612   2.365 -0.7552 -0.3656 -0.1800
 8021TIP3    H245479   0.689   3.626   2.453 -0.1182  0.2430  0.6199
 8022TIP3   OH245480   3.313   5.762  12.091 -0.2241  0.5513 -0.2941
 8022TIP3    H145481   3.351   5.848  12.107  1.1141  0.0892 -0.9315
 8022TIP3    H245482   3.331   5.744  11.999  0.5597 -0.9166  0.1261
 8023TIP3   OH245483   6.424   2.364   5.564  0.7718  0.3663 -0.0703
 8023TIP3    H145484   6.423   2.289   5.504  0.7903 -0.5995  1.1207
 8023TIP3    H245485   6.471   2.432   5.516 -0.1797 -0.0238 -1.5919
 8024TIP3   OH245486   2.059   4.411  13.520  0.3934 -0.1773  0.0689
 8024TIP3    H145487   2.088   4.330  13.563 -0.1867 -0.3583  0.1230
 8024TIP3    H245488   2.072   4.479  13.587  2.3620  0.0445 -0.4989
 8025TIP3   OH245489   0.747   3.324  16.627 -0.2133  0.2560  0.4150
 8025TIP3    H145490   0.842   3.327  16.613 -0.1379 -1.4734  0.4084
 8025TIP3    H245491   0.720   3.240  16.590 -1.9978  1.3779 -0.9283
 8026TIP3   OH245492   4.853   1.965   2.843 -0.0321  0.1312  0.3226
 8026TIP3    H145493   4.899   2.034   2.795  1.9455 -0.5274  1.2260
 8026TIP3    H245494   4.785   1.934   2.782  2.0298 -0.2670 -1.8304
 8027TIP3   OH245495   2.898   0.969   5.296 -0.2835 -0.3276  0.5314
 8027TIP3    H145496   2.978   1.015   5.321  0.8840 -0.4444 -2.8503
 8027TIP3    H245497   2.830   1.035   5.300  0.3417  0.2776  1.3870
 8028TIP3   OH245498   2.865   0.670  15.763 -0.1579 -0.5207  0.1936
 8028TIP3    H145499   2.920   0.748  15.774 -0.8422 -0.1530  1.1276
 8028TIP3    H245500   2.789   0.702  15.714 -0.0380 -0.7941 -0.1711
 8029TIP3   OH245501   4.027   2.580  16.173 -0.1692 -0.3307  0.4199
 8029TIP3    H145502   4.075   2.662  16.184 -0.0394 -0.1046 -1.6751
 8029TIP3    H245503   4.064   2.541  16.094  0.1571 -2.6913  1.6956
 8030TIP3   OH245504   0.894   0.462  14.580 -1.2245 -0.1707 -0.4606
 8030TIP3    H145505   0.809   0.506  14.584 -0.2539  1.6623  0.9392
 8030TIP3    H245506   0.905   0.422  14.666  0.0876  1.1003 -0.0228
 8031TIP3   OH245507   0.184   5.566   1.356 -0.2970 -0.1047 -0.1570
 8031TIP3    H145508   0.139   5.486   1.328  0.6023 -0.6677  0.0074
 8031TIP3    H245509   0.118   5.635   1.346 -0.3972 -0.4885 -2.4729
 8032TIP3   OH245510   2.777   2.191  12.908  0.6973  0.0596 -0.2843
 8032TIP3    H145511   2.687   2.210  12.935  0.9334 -0.6008  1.0427
 8032TIP3    H245512   2.770   2.166  12.815 -0.4463  0.3018 -0.2643
 8033TIP3   OH245513   1.478   4.640   1.074 -0.2669  0.2772 -0.1216
 8033TIP3    H145514   1.521   4.660   1.158 -0.1824 -0.7348  0.0748
 8033TIP3    H245515   1.434   4.722   1.051  0.7646  0.9684  0.2750
 8034TIP3   OH245516   2.782   3.429  13.886 -0.1093 -0.0725  0.0458
 8034TIP3    H145517   2.806   3.488  13.957 -0.0997  1.0142 -0.8536
 8034TIP3    H245518   2.794   3.481  13.806  1.0257 -1.6377 -0.8332
 8035TIP3   OH245519   4.466   6.716   4.676  0.4869  0.2634  0.5859
 8035TIP3    H145520   4.544   6.719   4.731  0.4093  0.2334  0.6974
 8035TIP3    H245521   4.484   6.778   4.605  1.9228 -2.0620 -1.1456
 8036TIP3   OH245522   5.675   4.396  16.280 -0.0729 -0.4560  0.1289
 8036TIP3    H145523   5.730   4.468  16.312 -1.4487  0.5592  0.2576
 8036TIP3    H245524   5.663   4.339  16.357 -1.2187  0.6178  0.7754
 8037TIP3   OH245525   6.446   3.679  15.911  0.3308  0.1762  0.2065
 8037TIP3    H145526   6.428   3.701  16.003  0.2721 -0.3619  0.3242
 8037TIP3    H245527   6.471   3.586  15.913 -1.3060 -0.3007 -0.5181
 8038TIP3   OH245528   4.627   4.228  15.979 -0.0039  0.3794 -0.1576
 8038TIP3    H145529   4.644   4.194  16.067 -0.7727 -0.5731 -0.3724
 8038TIP3    H245530   4.532   4.234  15.974  0.0225  0.0106 -1.0858
 8039TIP3   OH245531   0.091   2.249  11.207 -0.3674 -0.1658 -0.1317
 8039TIP3    H145532   0.100   2.285  11.119 -0.4382  1.0081  0.3368
 8039TIP3    H245533   0.003   2.213  11.209  0.0385 -1.2321 -0.9127
 8040TIP3   OH245534   0.401   3.095  13.151 -0.3683 -0.8354  0.0446
 8040TIP3    H145535   0.450   3.177  13.153 -0.3484 -0.8367 -0.4196
 8040TIP3    H245536   0.466   3.027  13.172 -0.2933 -0.7795 -0.0075
 8041TIP3   OH245537   5.343   6.215   5.719 -0.2641  0.4507 -0.3570
 8041TIP3    H145538   5.423   6.232   5.768 -0.2158  1.2407 -0.7191
 8041TIP3    H245539   5.319   6.299   5.681 -1.2811  0.2270 -0.2290
 8042TIP3   OH245540   0.009   4.003  15.093  0.4134  0.1092 -0.0291
 8042TIP3    H145541   0.044   3.919  15.123 -1.8578 -0.3025  1.6196
 8042TIP3    H245542  -0.017   4.048  15.173 -0.3417  1.5110 -1.0359
 8043TIP3   OH245543   0.193   2.306   5.367  0.9190  0.1710  0.2794
 8043TIP3    H145544   0.203   2.298   5.462  1.1566 -1.1174  0.1620
 8043TIP3    H245545   0.222   2.221   5.333  1.1071  0.7271 -0.9667
 8044TIP3   OH245546   2.095   5.462  10.802 -0.0266  0.0203  0.5808
 8044TIP3    H145547   2.103   5.519  10.726  1.0599  0.9637  1.3832
 8044TIP3    H245548   2.003   5.438  10.805 -0.4064  1.3763 -0.0366
 8045TIP3   OH245549   3.583   1.634  11.302 -0.4051 -0.3240  0.0813
 8045TIP3    H145550   3.594   1.719  11.259  0.0285  1.3253  3.3371
 8045TIP3    H245551   3.558   1.575  11.231 -1.4152  2.6621 -2.1518
 8046TIP3   OH245552   4.144   0.819  17.090 -0.0789  0.5409 -0.1362
 8046TIP3    H145553   4.112   0.896  17.042 -0.9893  1.7612  2.3421
 8046TIP3    H245554   4.138   0.844  17.182  2.7921 -1.2786  0.6238
 8047TIP3   OH245555   2.962   0.773   2.050 -0.7977 -0.2398 -0.0150
 8047TIP3    H145556   2.968   0.796   1.957  1.6183 -1.4470 -0.2043
 8047TIP3    H245557   2.879   0.727   2.059 -0.2476 -1.6408 -1.9282
 8048TIP3   OH245558   3.025   2.291  12.813 -0.0909  0.4399  0.0735
 8048TIP3    H145559   3.043   2.272  12.905 -0.1302 -0.9405 -0.2031
 8048TIP3    H245560   2.930   2.296  12.807 -0.0351  2.2673  0.4406
 8049TIP3   OH245561   1.254   5.303   4.309  0.2883  0.3485 -0.0058
 8049TIP3    H145562   1.259   5.212   4.277 -0.0400  0.3371 -0.0265
 8049TIP3    H245563   1.274   5.356   4.232  2.1177  0.2503  0.3931
 8050TIP3   OH245564   3.920   5.141   0.997  0.0058  0.5097  0.1433
 8050TIP3    H145565   3.974   5.193   0.938  3.2436 -0.1117  2.3823
 8050TIP3    H245566   3.890   5.067   0.945  1.3961  0.8569 -1.1607
 8051TIP3   OH245567   4.868   1.738   0.364  0.0099  0.2740  0.6723
 8051TIP3    H145568   4.851   1.821   0.319 -0.5248  0.4138  1.1181
 8051TIP3    H245569   4.788   1.688   0.353  1.1162 -1.0692 -1.4584
 8052TIP3   OH245570   6.433   0.503   3.211  0.1198 -0.6892  0.4296
 8052TIP3    H145571   6.521   0.537   3.195 -0.1940 -0.2992 -0.4925
 8052TIP3    H245572   6.388   0.512   3.127 -0.7219 -1.1212  0.8286
 8053TIP3   OH245573   4.593   6.511  15.055 -0.3739 -0.3061  0.3731
 8053TIP3    H145574   4.642   6.429  15.055  0.0948 -0.0277  2.1724
 8053TIP3    H245575   4.653   6.575  15.017 -1.1225 -0.9927 -2.0647
 8054TIP3   OH245576   3.038   3.779  15.894  0.2758 -0.1111  0.6562
 8054TIP3    H145577   2.967   3.824  15.849  0.8078  0.5016  0.4181
 8054TIP3    H245578   2.998   3.747  15.975  0.1733  1.8762  1.4163
 8055TIP3   OH245579   1.277   0.821  13.172  0.4677  0.0857 -0.6475
 8055TIP3    H145580   1.292   0.727  13.178 -0.6505 -0.0394  0.2484
 8055TIP3    H245581   1.187   0.834  13.203  1.3500  1.6989  1.3733
 8056TIP3   OH245582   5.467   4.574   0.407  0.2714 -0.1225  0.3112
 8056TIP3    H145583   5.452   4.642   0.473 -2.0798 -0.5202  0.2312
 8056TIP3    H245584   5.498   4.622   0.330 -0.2127  0.7172  0.6350
 8057TIP3   OH245585   4.495   3.290   4.451  1.0763 -0.5845  0.5075
 8057TIP3    H145586   4.435   3.283   4.525  0.2177  1.8666  0.0906
 8057TIP3    H245587   4.454   3.237   4.382  1.3877 -2.0708  1.4501
 8058TIP3   OH245588   3.600   6.382   4.481 -0.0128 -0.1107  0.1774
 8058TIP3    H145589   3.636   6.325   4.549 -1.7602 -0.8636  0.4801
 8058TIP3    H245590   3.615   6.334   4.399  1.1920  0.3540  0.1049
 8059TIP3   OH245591   4.541   0.888  11.970  0.1236 -0.3084  0.6150
 8059TIP3    H145592   4.605   0.958  11.952  1.1423 -1.5471 -0.7882
 8059TIP3    H245593   4.577   0.812  11.924 -2.3142 -1.0700 -0.0533
 8060TIP3   OH245594   6.257   2.069   6.013 -0.0929  0.0633 -0.5847
 8060TIP3    H145595   6.294   2.092   6.098  0.6776  1.6326 -1.3239
 8060TIP3    H245596   6.195   2.139   5.993 -0.2831 -0.2959 -1.2976
 8061TIP3   OH245597   5.578   4.598  13.654 -0.1495 -0.8903  0.2991
 8061TIP3    H145598   5.523   4.643  13.590  0.2086 -1.4438 -0.4143
 8061TIP3    H245599   5.561   4.643  13.736  0.1598  0.5041 -0.3821
 8062TIP3   OH245600   1.087   5.192  11.255 -0.0003 -0.0418  0.7637
 8062TIP3    H145601   1.103   5.273  11.304 -1.4721  0.1355  0.9791
 8062TIP3    H245602   1.109   5.214  11.164  1.8378 -0.0973  1.1736
 8063TIP3   OH245603   0.233   6.529   2.725 -1.2539 -0.0507 -0.2102
 8063TIP3    H145604   0.310   6.490   2.684 -1.8130 -0.1598 -1.1912
 8063TIP3    H245605   0.259   6.548   2.815  0.3710  1.2251 -0.9320
 8064TIP3   OH245606   0.951   2.600  15.584 -0.5919 -0.4664 -0.0322
 8064TIP3    H145607   0.859   2.625  15.596  0.1862  1.9821  1.2342
 8064TIP3    H245608   0.951   2.546  15.505 -2.7585  1.7173 -1.5977
 8065TIP3   OH245609   5.110   0.300  15.971  0.3122  0.1259  0.4883
 8065TIP3    H145610   5.109   0.387  15.933  1.8978 -0.0516  0.0007
 8065TIP3    H245611   5.116   0.240  15.896 -0.4073 -0.3791  0.8309
 8066TIP3   OH245612   4.387   3.439   1.073 -0.1878 -0.1243  0.6621
 8066TIP3    H145613   4.313   3.391   1.111  0.3442 -1.7977 -0.3482
 8066TIP3    H245614   4.422   3.380   1.006  1.7547  0.8565  0.7717
 8067TIP3   OH245615   2.714   4.733   2.196 -0.5981 -0.0192  0.3997
 8067TIP3    H145616   2.653   4.766   2.262 -0.6193  1.3246 -0.2618
 8067TIP3    H245617   2.718   4.639   2.211 -1.3862  0.1359  1.6568
 8068TIP3   OH245618   5.772   1.465  12.959  0.5485 -0.1006  0.5826
 8068TIP3    H145619   5.833   1.476  13.032 -1.1543  0.0719  2.0115
 8068TIP3    H245620   5.736   1.377  12.971 -2.0628  1.0875  1.7926
 8069TIP3   OH245621   4.744   1.626   0.043 -0.2264  0.2024 -0.2156
 8069TIP3    H145622   4.653   1.614   0.069 -0.0358 -1.0350 -0.1114
 8069TIP3    H245623   4.756   1.721   0.042 -0.8678  0.3350  2.0333
 8070TIP3   OH245624   3.062   0.006  12.076  0.3769  0.2502  0.1587
 8070TIP3    H145625   3.003   0.047  12.140  1.3026  2.1069 -0.1257
 8070TIP3    H245626   3.040  -0.087  12.079 -1.0537  0.6057  1.6378
 8071TIP3   OH245627   5.758   6.427   0.636  0.0007 -0.2036  0.2754
 8071TIP3    H145628   5.798   6.499   0.685  0.7123 -1.5462  1.6794
 8071TIP3    H245629   5.811   6.419   0.557 -0.6916  1.4608 -0.3864
 8072TIP3   OH245630   3.603   1.733  15.746 -0.2199 -0.2125  0.0768
 8072TIP3    H145631   3.683   1.701  15.703  0.2607  0.3774  0.5282
 8072TIP3    H245632   3.635   1.792  15.815 -1.0529  0.1163  0.1789
 8073TIP3   OH245633   6.344   2.549   4.189  0.3500 -0.0694 -0.3021
 8073TIP3    H145634   6.295   2.511   4.117  3.1183 -0.3285 -2.1510
 8073TIP3    H245635   6.387   2.474   4.231  0.6662  0.3312  0.0993
 8074TIP3   OH245636   0.745   4.343  17.105  0.0154 -0.1057 -0.5169
 8074TIP3    H145637   0.662   4.303  17.130  0.9707 -0.7287  1.7895
 8074TIP3    H245638   0.726   4.387  17.022 -1.7304 -3.1320 -1.8462
 8075TIP3   OH245639   2.037   2.041  12.762  0.4815 -0.2400 -0.6850
 8075TIP3    H145640   2.058   1.959  12.718  0.3832 -0.1919 -0.8200
 8075TIP3    H245641   1.983   2.015  12.836  1.2844 -0.4035 -0.1394
 8076TIP3   OH245642   6.548   4.841   5.405  0.0027  0.0454 -0.5003
 8076TIP3    H145643   6.542   4.759   5.355  0.8383 -0.9601  1.0089
 8076TIP3    H245644   6.635   4.875   5.385  0.4994 -0.5736  0.5774
 8077TIP3   OH245645   3.950   3.334  11.291 -0.2295  0.2457  0.1185
 8077TIP3    H145646   3.924   3.260  11.346  0.0187 -0.4643 -0.7159
 8077TIP3    H245647   4.030   3.367  11.332  0.7470 -1.1680 -0.6224
 8078TIP3   OH245648   3.287   0.924  11.694  0.0944 -0.1404 -0.5402
 8078TIP3    H145649   3.217   0.985  11.672 -0.4900 -0.9186 -0.9021
 8078TIP3    H245650   3.255   0.839  11.663  0.3775 -0.8319  1.0233
 8079TIP3   OH245651   0.854   1.180  14.434 -0.3297  0.3552 -0.5055
 8079TIP3    H145652   0.924   1.181  14.499  0.6719  1.0790 -1.5843
 8079TIP3    H245653   0.898   1.197  14.350 -2.0698  3.0621 -0.9378
 8080TIP3   OH245654   1.145   4.842   0.199  0.0537 -0.6691  0.0376
 8080TIP3    H145655   1.173   4.932   0.213  0.1111 -0.7454  0.4010
 8080TIP3    H245656   1.114   4.841   0.108  1.2421 -0.5853 -0.3725
 8081TIP3   OH245657   5.415   2.049  12.600 -0.0504  0.3978 -0.0464
 8081TIP3    H145658   5.342   2.084  12.549  0.3664  2.2314  0.5570
 8081TIP3    H245659   5.391   1.958  12.618 -2.8625  1.3574  1.3258
 8082TIP3   OH245660   2.907   0.639   0.010 -0.1829 -0.0001 -0.2065
 8082TIP3    H145661   2.969   0.660   0.080  0.4069 -3.0996  0.2828
 8082TIP3    H245662   2.843   0.582   0.052 -0.2820 -1.2270 -1.9901
 8083TIP3   OH245663   3.048   4.619  15.957  0.2746 -0.3476 -0.7742
 8083TIP3    H145664   2.990   4.618  16.033  0.0554  0.4275 -0.9244
 8083TIP3    H245665   3.094   4.535  15.960  1.7770  0.5076  1.3567
 8084TIP3   OH245666   2.188   4.208   4.504  0.7207  0.4804  0.3680
 8084TIP3    H145667   2.156   4.195   4.414 -0.0026 -0.6258  0.7731
 8084TIP3    H245668   2.193   4.303   4.514 -0.4837  0.6337 -0.3913
 8085TIP3   OH245669   6.532   3.596  17.209  0.0932  0.0592  0.3226
 8085TIP3    H145670   6.465   3.539  17.246 -1.2661  1.6763  0.4118
 8085TIP3    H245671   6.545   3.565  17.119 -2.3411  1.0755 -0.4014
 8086TIP3   OH245672   6.765   1.972   2.684 -0.6968  0.1815  0.4050
 8086TIP3    H145673   6.842   1.950   2.738 -0.4520 -1.8305 -0.7070
 8086TIP3    H245674   6.792   2.050   2.635  0.9510 -0.9761 -0.5759
 8087TIP3   OH245675   2.437   2.026   3.431 -0.7816  0.8005 -0.2898
 8087TIP3    H145676   2.453   1.936   3.458  0.7326  1.0071 -0.4477
 8087TIP3    H245677   2.411   2.020   3.339 -1.4183  0.4743 -0.0934
 8088TIP3   OH245678   0.769   5.043   0.943  0.5364 -0.1737 -0.1590
 8088TIP3    H145679   0.863   5.042   0.965  0.4164 -0.4856  0.3664
 8088TIP3    H245680   0.725   5.036   1.028  0.0425 -0.3720 -0.4285
 8089TIP3   OH245681   6.542   2.987  15.585 -0.3092 -0.2477 -0.5443
 8089TIP3    H145682   6.600   2.945  15.649  1.9508  0.3173 -2.1553
 8089TIP3    H245683   6.542   3.079  15.611 -1.5292 -0.4511  0.2083
 8090TIP3   OH245684   2.969   1.355  16.737  0.8982 -0.0028 -0.4514
 8090TIP3    H145685   3.044   1.299  16.758  1.2552 -0.1450 -2.0178
 8090TIP3    H245686   2.927   1.311  16.663 -1.7670 -0.8418  1.4841
 8091TIP3   OH245687   5.619   0.816   3.248  0.4318  0.3685  0.2277
 8091TIP3    H145688   5.715   0.821   3.242  0.6974 -1.2874  2.2430
 8091TIP3    H245689   5.589   0.829   3.158  2.4202  2.8499 -0.1686
 8092TIP3   OH245690   1.506   5.899  16.688  0.3656 -0.3382  0.1526
 8092TIP3    H145691   1.560   5.839  16.636  1.4103  0.5012  0.2716
 8092TIP3    H245692   1.524   5.986  16.652  2.3763  0.4730  2.9517
 8093TIP3   OH245693   5.173   1.958  13.564 -0.2535  0.1957 -0.0047
 8093TIP3    H145694   5.185   2.052  13.552 -0.4433  0.0272 -1.7158
 8093TIP3    H245695   5.083   1.948  13.593 -0.9479  0.4104 -2.0006
 8094TIP3   OH245696   4.920   4.043  15.975 -0.3352 -0.1389  0.3391
 8094TIP3    H145697   4.903   3.963  16.025 -1.5531 -0.6039 -0.7994
 8094TIP3    H245698   4.848   4.048  15.912  0.2192  1.3817 -0.1939
 8095TIP3   OH245699   1.725   6.503   1.659  0.3782 -0.5498  0.0431
 8095TIP3    H145700   1.640   6.484   1.619  0.7041  0.7930 -1.3074
 8095TIP3    H245701   1.703   6.524   1.750 -0.7339 -0.2783 -0.2749
 8096TIP3   OH245702   1.680   2.105   4.367 -0.1490  0.2416 -0.5240
 8096TIP3    H145703   1.721   2.165   4.430 -0.0420 -0.5182  0.1390
 8096TIP3    H245704   1.729   2.117   4.286  2.4212 -1.8034  0.6839
 8097TIP3   OH245705   2.960   6.582   6.903 -0.1630  0.1960  0.4574
 8097TIP3    H145706   2.983   6.597   6.812  0.6169  0.5862  0.7100
 8097TIP3    H245707   2.892   6.646   6.922 -1.3086 -0.8133 -0.2380
 8098TIP3   OH245708   3.187   1.817   0.302 -0.4316  0.0795  0.7489
 8098TIP3    H145709   3.104   1.850   0.335 -0.9994 -0.6381  0.0649
 8098TIP3    H245710   3.254   1.869   0.347 -1.2966  2.1387 -0.3054
 8099TIP3   OH245711   5.262   0.061   4.945 -0.1139  0.1831 -0.2615
 8099TIP3    H145712   5.209   0.034   4.870 -0.0447  1.0202 -0.6197
 8099TIP3    H245713   5.213   0.032   5.021  0.0276 -1.0672 -0.6433
 8100TIP3   OH245714   5.743   0.062   3.460  0.0713  0.0806 -0.0246
 8100TIP3    H145715   5.677  -0.001   3.430 -1.0381  0.9015  0.6482
 8100TIP3    H245716   5.713   0.146   3.425  1.2017  0.3476 -0.3811
 8101TIP3   OH245717   5.508   3.416  11.916  0.2121  0.1304 -0.9271
 8101TIP3    H145718   5.530   3.325  11.936 -0.9520 -0.1011 -0.7222
 8101TIP3    H245719   5.523   3.464  11.998  1.8287  0.3183 -1.3070
 8102TIP3   OH245720   0.212   6.018   3.435  1.0199 -0.2779  0.4644
 8102TIP3    H145721   0.290   6.050   3.390  2.1118 -1.1588  1.6720
 8102TIP3    H245722   0.244   5.947   3.490 -0.5285 -0.1801  1.5262
 8103TIP3   OH245723   1.369   5.557   1.928 -0.8111  0.1228 -0.6247
 8103TIP3    H145724   1.290   5.505   1.941 -1.7033  1.5618 -0.0708
 8103TIP3    H245725   1.337   5.648   1.927  0.5858  0.6205 -2.4467
 8104TIP3   OH245726   3.410   1.362  15.141  0.3159 -0.1747  0.1930
 8104TIP3    H145727   3.319   1.362  15.110  0.9240  1.0295 -1.6723
 8104TIP3    H245728   3.457   1.310  15.076  1.1488  0.0184  0.6400
 8105TIP3   OH245729   0.721   6.602   3.385  0.4432  0.4470  0.1493
 8105TIP3    H145730   0.794   6.575   3.329  0.3361  0.5036 -0.0148
 8105TIP3    H245731   0.746   6.570   3.472 -0.3196 -1.4053 -0.2863
 8106TIP3   OH245732   3.633   5.083   2.378  0.0561 -0.2050 -0.3123
 8106TIP3    H145733   3.601   5.023   2.445 -0.6427  0.8460  0.3086
 8106TIP3    H245734   3.680   5.027   2.316  0.8699 -1.1526  1.1417
 8107TIP3   OH245735   0.975   4.460   5.139 -0.3332  0.6760 -0.6006
 8107TIP3    H145736   1.039   4.455   5.067  1.6502 -1.3015  1.2214
 8107TIP3    H245737   0.985   4.376   5.185 -2.6346  1.3035  1.0875
 8108TIP3   OH245738   5.798   4.694   0.172  0.0126 -0.8255 -0.2257
 8108TIP3    H145739   5.845   4.762   0.125 -1.3997  0.1671 -0.2340
 8108TIP3    H245740   5.784   4.625   0.107 -1.7720  0.4696 -1.2623
 8109TIP3   OH245741   3.407   3.961   2.614  0.2133 -0.1538 -0.8089
 8109TIP3    H145742   3.370   3.899   2.676  0.8162  1.8253  1.5911
 8109TIP3    H245743   3.333   4.015   2.586 -0.4278 -2.2427 -3.3564
 8110TIP3   OH245744   5.906   4.884   0.544 -0.4002 -0.7440 -0.4085
 8110TIP3    H145745   5.868   4.954   0.598  0.5145 -2.6147  2.7610
 8110TIP3    H245746   5.830   4.846   0.499 -1.3575  0.0462  0.4915
 8111TIP3   OH245747   2.668   6.539   3.020 -0.4037 -0.1459  0.7021
 8111TIP3    H145748   2.590   6.512   2.971 -1.1432  1.9803  0.6831
 8111TIP3    H245749   2.741   6.523   2.959 -0.7527 -2.3647  0.8092
 8112TIP3   OH245750   2.830   5.510   2.840 -0.4048  0.3804 -0.4215
 8112TIP3    H145751   2.878   5.450   2.784 -1.0541 -2.1462  1.6449
 8112TIP3    H245752   2.898   5.561   2.884  0.1967  0.2830 -1.2268
 8113TIP3   OH245753   1.206   0.947   6.144 -0.6107 -0.3547 -0.3879
 8113TIP3    H145754   1.112   0.938   6.159 -0.7986 -0.1446 -1.4035
 8113TIP3    H245755   1.235   1.008   6.212 -1.1678 -0.5993  0.0711
 8114TIP3   OH245756   3.564   4.788   4.629  0.1761  0.1781 -0.0858
 8114TIP3    H145757   3.588   4.768   4.538 -0.6957  0.4484 -0.3789
 8114TIP3    H245758   3.506   4.716   4.655  0.2197  0.2372  0.1789
 8115TIP3   OH245759   6.716   5.952  14.923  0.4438 -0.5800  0.3762
 8115TIP3    H145760   6.659   5.876  14.932  1.4796 -1.4756 -0.5363
 8115TIP3    H245761   6.779   5.943  14.995  0.7779 -0.7848  0.0622
 8116TIP3   OH245762   1.154   5.954   5.743  0.2968 -0.3145  0.1059
 8116TIP3    H145763   1.117   5.976   5.829 -1.1992 -0.0167 -0.5856
 8116TIP3    H245764   1.079   5.957   5.684  0.9034 -2.7890 -0.8310
 8117TIP3   OH245765   6.720   6.339  11.131 -0.3498 -0.0990  0.6108
 8117TIP3    H145766   6.753   6.308  11.047  0.0574  1.0731  0.3235
 8117TIP3    H245767   6.798   6.342  11.187 -0.2626  1.0200  0.4397
 8118TIP3   OH245768   6.422   5.894  12.720  0.0073 -0.3012 -0.5399
 8118TIP3    H145769   6.330   5.872  12.703  0.0284  0.2069 -1.3862
 8118TIP3    H245770   6.427   5.904  12.814 -0.9947  0.4674 -0.5594
 8119TIP3   OH245771   5.379   1.964  11.533  0.6890 -0.3657  0.6739
 8119TIP3    H145772   5.345   2.011  11.456  2.4950 -0.1588 -0.0323
 8119TIP3    H245773   5.387   2.032  11.600 -0.7023 -0.5041  0.9773
 8120TIP3   OH245774   5.121   0.862   4.427 -0.3374 -0.1779 -0.2326
 8120TIP3    H145775   5.102   0.769   4.431  1.5536 -0.6480 -1.6751
 8120TIP3    H245776   5.160   0.876   4.340  0.1359  1.8010  0.2561
 8121TIP3   OH245777   5.013   2.426   3.428 -0.3633  0.0983  0.4249
 8121TIP3    H145778   4.989   2.511   3.463 -0.3284  0.0205  0.6398
 8121TIP3    H245779   5.029   2.372   3.506 -0.8708 -0.2420  0.2897
 8122TIP3   OH245780   5.762   3.746   2.767  0.6989  0.0537  0.2062
 8122TIP3    H145781   5.822   3.772   2.697  0.5399  0.3133  0.1655
 8122TIP3    H245782   5.791   3.659   2.792  2.8521  1.2550  2.0917
 8123TIP3   OH245783   5.787   1.132   1.316 -0.4195  0.1918  0.1257
 8123TIP3    H145784   5.744   1.057   1.358  2.8566 -0.9184  1.6794
 8123TIP3    H245785   5.783   1.201   1.382 -2.3713  1.0648 -0.8576
 8124TIP3   OH245786   2.899   2.893  10.733 -0.1043  0.0285  0.3294
 8124TIP3    H145787   2.935   2.869  10.648  0.5041 -0.9951  0.8637
 8124TIP3    H245788   2.961   2.856  10.797 -1.2333 -0.3337  1.2389
 8125TIP3   OH245789   0.863   2.321   2.232 -0.5699 -0.0725 -0.1938
 8125TIP3    H145790   0.833   2.281   2.314 -0.7221 -0.2049 -0.3138
 8125TIP3    H245791   0.949   2.357   2.253 -1.0115  0.7397  0.2940
 8126TIP3   OH245792   4.804   2.528   5.054  0.4922  0.1954  0.1037
 8126TIP3    H145793   4.807   2.432   5.055  0.3197  0.1912  0.4607
 8126TIP3    H245794   4.870   2.554   4.990 -0.6865 -0.2103 -1.3138
 8127TIP3   OH245795   5.627   6.005   4.611  0.5099  0.0013 -0.5262
 8127TIP3    H145796   5.650   6.022   4.519  0.2670  2.1952 -0.2037
 8127TIP3    H245797   5.707   5.969   4.649  0.9234  0.0287 -1.3550
 8128TIP3   OH245798   1.092   4.336  12.251  0.2576  0.3957  0.1340
 8128TIP3    H145799   1.181   4.326  12.287  0.4587  0.7489 -0.2590
 8128TIP3    H245800   1.036   4.339  12.328  0.6487  0.7427  0.4151
 8129TIP3   OH245801   6.772   6.610   5.106  0.1059 -0.2861  0.4138
 8129TIP3    H145802   6.826   6.677   5.149  1.8001 -0.1657 -1.8360
 8129TIP3    H245803   6.752   6.547   5.176  0.6482  1.2206  1.9601
 8130TIP3   OH245804   2.076   2.256  14.813 -0.3497 -0.0934  0.8195
 8130TIP3    H145805   2.046   2.333  14.861  1.9954 -0.3924  2.8448
 8130TIP3    H245806   2.110   2.290  14.730 -0.6600  0.8592  1.0864
 8131TIP3   OH245807   3.391   4.595   2.025 -0.1798 -0.0557  0.6752
 8131TIP3    H145808   3.354   4.531   2.086 -1.8503  0.4240  0.1873
 8131TIP3    H245809   3.485   4.593   2.042 -0.4852 -0.8811  2.3526
 8132TIP3   OH245810   0.495   3.920   1.794 -0.6580 -0.2308 -0.2725
 8132TIP3    H145811   0.468   3.947   1.706  0.5094 -0.9072 -0.8569
 8132TIP3    H245812   0.579   3.965   1.807 -2.9197  3.6245  2.3670
 8133TIP3   OH245813   5.946   6.673  16.246 -0.4880  0.0036  0.6647
 8133TIP3    H145814   5.946   6.726  16.166 -2.8038 -0.6056  0.2338
 8133TIP3    H245815   5.860   6.688  16.284 -0.2772 -1.6175  1.7967
 8134TIP3   OH245816   0.753   5.806   0.125 -0.5049  0.4091  0.6128
 8134TIP3    H145817   0.666   5.785   0.158 -0.6250  0.9849  0.6625
 8134TIP3    H245818   0.810   5.793   0.201 -0.6068  0.4792  0.7017
 8135TIP3   OH245819   5.719   5.435  14.873  0.0284  0.1933  0.3324
 8135TIP3    H145820   5.760   5.490  14.940 -1.5922 -0.0233  1.5181
 8135TIP3    H245821   5.625   5.445  14.888 -0.3828  0.7344 -2.3779
 8136TIP3   OH245822   1.771   4.010   4.382  0.6228  0.3021 -0.7993
 8136TIP3    H145823   1.825   4.067   4.327 -1.2662  2.4214 -0.5248
 8136TIP3    H245824   1.684   4.048   4.378 -0.7069 -2.5628 -0.5361
 8137TIP3   OH245825   2.585   0.071   0.835  0.1120 -0.3900  0.0783
 8137TIP3    H145826   2.594   0.092   0.743 -0.2328 -1.1206 -0.1284
 8137TIP3    H245827   2.664   0.021   0.856 -0.5181 -1.5149 -0.2003
 8138TIP3   OH245828   1.892   0.667   3.373  0.2031 -0.0630 -0.4376
 8138TIP3    H145829   1.943   0.617   3.436  1.1423 -1.3016 -2.1116
 8138TIP3    H245830   1.947   0.668   3.294 -1.4917  0.3229 -1.6479
 8139TIP3   OH245831   4.605   4.862   2.128  0.2095  0.4539 -0.4074
 8139TIP3    H145832   4.565   4.823   2.205 -0.6407 -2.5310 -2.2805
 8139TIP3    H245833   4.692   4.822   2.123  0.8432  1.7807 -0.1587
 8140TIP3   OH245834   5.108   6.095  17.067 -0.3241  0.2686  0.4831
 8140TIP3    H145835   5.065   6.010  17.075  0.5211 -0.2786 -0.6143
 8140TIP3    H245836   5.121   6.106  16.973  0.1150  1.3428  0.6651
 8141TIP3   OH245837   4.773   4.750  15.808 -0.0910 -0.3020 -0.1509
 8141TIP3    H145838   4.773   4.654  15.812  0.9906 -0.2891  0.2763
 8141TIP3    H245839   4.742   4.770  15.720 -1.2053 -1.0251  0.0717
 8142TIP3   OH245840   0.598   1.481  13.336  0.4057 -0.0004  0.0494
 8142TIP3    H145841   0.519   1.516  13.376  0.2392 -0.2337 -0.0753
 8142TIP3    H245842   0.600   1.519  13.248 -0.1073 -0.7964 -0.3102
 8143TIP3   OH245843   5.434   1.027   3.758  0.5912  0.3276 -0.3234
 8143TIP3    H145844   5.411   0.943   3.719  0.9232 -0.2338  0.6425
 8143TIP3    H245845   5.396   1.024   3.846  2.6658  0.1612  0.6004
 8144TIP3   OH245846   5.313   4.370   1.138 -0.1076 -0.6104  0.0895
 8144TIP3    H145847   5.247   4.434   1.164 -0.8166  0.2085 -3.4907
 8144TIP3    H245848   5.396   4.417   1.147 -0.4646  0.1675 -0.6318
 8145TIP3   OH245849   4.164   0.228   2.533  0.0730  0.3068 -0.2862
 8145TIP3    H145850   4.203   0.213   2.447  1.1243  1.9315 -0.1305
 8145TIP3    H245851   4.219   0.295   2.572 -0.7208 -0.0302  1.4485
 8146TIP3   OH245852   6.605   6.184  12.600 -0.0053  0.6507  0.0994
 8146TIP3    H145853   6.552   6.147  12.530 -0.9189  1.9417  0.0845
 8146TIP3    H245854   6.548   6.180  12.677 -0.0725  1.8782  0.1238
 8147TIP3   OH245855   0.464   3.642   1.586  0.0760 -0.5498  0.2549
 8147TIP3    H145856   0.531   3.584   1.622  1.3270  1.9068  1.9709
 8147TIP3    H245857   0.503   3.679   1.507  1.3247  1.8711  1.9420
 8148TIP3   OH245858   3.340   6.767  15.187 -0.2706 -0.0270 -0.2644
 8148TIP3    H145859   3.431   6.793  15.170 -0.3331  0.1565 -0.3175
 8148TIP3    H245860   3.293   6.850  15.194 -0.3249 -0.1035  0.3554
 8149TIP3   OH245861   3.293   0.662  14.558  0.3138  0.1088  0.3138
 8149TIP3    H145862   3.224   0.728  14.563  0.7566  0.7767 -1.7418
 8149TIP3    H245863   3.346   0.677  14.636  1.0097  2.9290 -0.6225
 8150TIP3   OH245864   4.125   1.596  13.260  0.5661 -0.3454 -0.2943
 8150TIP3    H145865   4.108   1.503  13.244 -2.8459  0.4177 -1.3274
 8150TIP3    H245866   4.076   1.616  13.340  0.0535  0.9053 -0.9074
 8151TIP3   OH245867   0.216   0.816   5.819  0.2299  0.0025  0.1530
 8151TIP3    H145868   0.151   0.861   5.766  1.1104  0.1948 -0.7791
 8151TIP3    H245869   0.298   0.863   5.802  0.8066 -0.8311  0.5620
 8152TIP3   OH245870   2.023   0.740   5.411 -0.6340  0.4002 -0.0502
 8152TIP3    H145871   2.024   0.729   5.316 -0.8539  1.8004 -0.2276
 8152TIP3    H245872   2.102   0.790   5.431 -0.0937 -0.7022  0.6216
 8153TIP3   OH245873   1.794   6.528   5.695  0.0573  0.4114 -0.7088
 8153TIP3    H145874   1.810   6.460   5.760  0.2629 -0.0534 -1.2378
 8153TIP3    H245875   1.703   6.553   5.707  0.0145  0.1201 -0.4346
 8154TIP3   OH245876   1.615   0.629   2.134 -0.1800  0.5040 -0.7004
 8154TIP3    H145877   1.658   0.585   2.207  0.0370  0.3970 -0.8944
 8154TIP3    H245878   1.686   0.662   2.080 -0.3227  2.8510  0.4866
 8155TIP3   OH245879   4.688   5.240   6.075 -0.9083  0.1821 -0.0942
 8155TIP3    H145880   4.730   5.326   6.076 -0.9270  0.1843  1.4006
 8155TIP3    H245881   4.618   5.248   6.011 -1.4260  1.5358  0.6240
 8156TIP3   OH245882   4.517   1.769   0.851 -0.0512  0.1487  1.1078
 8156TIP3    H145883   4.581   1.808   0.792 -0.7013 -0.7281 -0.1913
 8156TIP3    H245884   4.521   1.824   0.930  1.0905  1.0978  0.4080
 8157TIP3   OH245885   6.734   3.881   6.527  0.2485  0.0595 -0.1382
 8157TIP3    H145886   6.708   3.921   6.444 -1.7285 -2.9502 -1.0481
 8157TIP3    H245887   6.744   3.788   6.507  1.9760 -0.3750  2.5080
 8158TIP3   OH245888   3.295   4.549  11.801  0.0119 -0.4756  0.4183
 8158TIP3    H145889   3.203   4.525  11.810 -0.2111  1.0010  2.3326
 8158TIP3    H245890   3.337   4.519  11.882  0.4133  2.2538  1.3044
 8159TIP3   OH245891   0.762   4.180   1.544 -0.2216  0.1704 -0.3703
 8159TIP3    H145892   0.762   4.272   1.516 -0.0889 -0.0958 -1.2635
 8159TIP3    H245893   0.821   4.178   1.619  0.3923  0.6765 -0.8262
 8160TIP3   OH245894   2.748   2.976  16.113 -0.2735 -0.3502  0.2946
 8160TIP3    H145895   2.816   2.985  16.180  0.7772  0.4290 -0.8510
 8160TIP3    H245896   2.765   3.047  16.051 -2.2296 -0.0482  0.0531
 8161TIP3   OH245897   2.953   3.373   4.735 -0.4762 -0.4187 -0.5901
 8161TIP3    H145898   2.908   3.386   4.819 -0.5036 -3.5262 -0.0953
 8161TIP3    H245899   3.037   3.417   4.747 -1.0768  0.4832  0.5182
 8162TIP3   OH245900   1.806   5.748  13.334  0.6145  0.4579 -0.0021
 8162TIP3    H145901   1.751   5.809  13.285  0.2408  0.5654  0.5536
 8162TIP3    H245902   1.883   5.736  13.278  0.3109  0.7844 -0.4978
 8163TIP3   OH245903   2.454   4.753  13.542 -0.1074  0.2630 -0.5135
 8163TIP3    H145904   2.423   4.805  13.616 -0.4471 -0.7312  0.0521
 8163TIP3    H245905   2.405   4.671  13.548  0.0418  0.0730 -1.6982
 8164TIP3   OH245906   3.132   6.554   3.544 -0.5255  0.2933 -0.0729
 8164TIP3    H145907   3.178   6.575   3.626  0.8205 -0.9171 -0.4941
 8164TIP3    H245908   3.188   6.488   3.502 -0.9623  1.2316 -2.1823
 8165TIP3   OH245909   6.772   4.219   4.381  0.3521 -0.1238  0.0999
 8165TIP3    H145910   6.799   4.170   4.304 -1.3483 -1.1946  0.1514
 8165TIP3    H245911   6.687   4.182   4.405 -0.2248  1.7561  1.1152
 8166TIP3   OH245912   0.262   1.388  14.638  0.3539  0.1387 -0.1198
 8166TIP3    H145913   0.294   1.304  14.606  1.8637  0.9570 -0.8525
 8166TIP3    H245914   0.236   1.436  14.560  0.3489  0.6785  0.2033
 8167TIP3   OH245915   1.018   6.003  14.375  0.7204  0.2189  0.1879
 8167TIP3    H145916   0.945   6.065  14.373  0.0340 -0.6088 -0.7721
 8167TIP3    H245917   0.986   5.932  14.431  0.5805 -0.3898 -0.6574
 8168TIP3   OH245918   2.190   0.462   6.746  0.2463 -0.1215 -0.5747
 8168TIP3    H145919   2.270   0.507   6.772  1.3343 -3.7514  2.8309
 8168TIP3    H245920   2.218   0.397   6.681  0.3576 -2.2042  1.4932
 8169TIP3   OH245921   5.775   4.660   0.434 -0.0965 -0.7293  0.0076
 8169TIP3    H145922   5.771   4.671   0.339  2.2369 -0.2527 -0.0642
 8169TIP3    H245923   5.866   4.636   0.451 -0.3074 -0.0344  2.2001
 8170TIP3   OH245924   2.940   2.661  14.427 -0.3780 -0.0900  0.6761
 8170TIP3    H145925   2.975   2.651  14.339  0.4153  0.3931  0.9334
 8170TIP3    H245926   3.002   2.615  14.483 -0.9196 -0.4605  0.9714
 8171TIP3   OH245927   5.759   2.974  13.261  0.2479 -0.7197  0.1879
 8171TIP3    H145928   5.835   2.925  13.290  0.3214 -0.5417  0.2992
 8171TIP3    H245929   5.695   2.907  13.236  0.8295 -0.8669 -0.9457
 8172TIP3   OH245930   3.931   2.689  10.436  0.1250  0.2180 -0.2647
 8172TIP3    H145931   4.024   2.683  10.416 -0.3741 -0.8703 -2.4945
 8172TIP3    H245932   3.902   2.598  10.443 -1.0105  0.5288 -0.8573
 8173TIP3   OH245933   1.280   4.182   5.312 -0.0727  0.1215 -0.0361
 8173TIP3    H145934   1.295   4.236   5.390 -1.6597 -0.6936  0.8460
 8173TIP3    H245935   1.341   4.109   5.321 -1.4220 -0.8596  1.3071
 8174TIP3   OH245936   0.769   1.721   3.399  0.3342 -0.4725 -0.4719
 8174TIP3    H145937   0.776   1.654   3.331 -1.0920 -1.7492  0.5854
 8174TIP3    H245938   0.853   1.719   3.443  0.8252 -0.5139 -1.4028
 8175TIP3   OH245939   3.385   5.240  12.731 -0.3463 -0.1654 -0.4110
 8175TIP3    H145940   3.445   5.314  12.740 -1.2098  0.4419  0.3837
 8175TIP3    H245941   3.335   5.239  12.812 -0.6180 -1.3897 -0.5755
 8176TIP3   OH245942   5.631   5.246   1.199 -0.3731 -0.7137  0.3148
 8176TIP3    H145943   5.620   5.164   1.247 -0.1891 -0.0247  1.5604
 8176TIP3    H245944   5.594   5.312   1.257 -2.5027 -0.1851 -1.6290
 8177TIP3   OH245945   5.310   4.295   2.634  0.3555 -0.2208  0.0244
 8177TIP3    H145946   5.241   4.323   2.693 -0.2593  1.8127 -1.5941
 8177TIP3    H245947   5.315   4.200   2.646 -3.3640 -0.5659 -0.4746
 8178TIP3   OH245948   1.182   1.283   0.680  0.4150 -0.4641  0.2088
 8178TIP3    H145949   1.130   1.223   0.628 -1.6179  0.5374  1.0066
 8178TIP3    H245950   1.273   1.255   0.667 -0.3632 -2.6316 -0.7260
 8179TIP3   OH245951   2.849   3.904   5.602 -0.4070  0.1969 -0.4490
 8179TIP3    H145952   2.811   3.854   5.675 -1.9810  2.1151  0.0628
 8179TIP3    H245953   2.777   3.913   5.540  0.5490 -0.2003 -1.6270
 8180TIP3   OH245954   0.330   2.446  11.184  0.0483 -0.0568 -0.3683
 8180TIP3    H145955   0.356   2.367  11.135  0.5325 -0.6764  0.8448
 8180TIP3    H245956   0.316   2.414  11.274 -3.3366  0.5849 -0.6113
 8181TIP3   OH245957   4.923   1.787  13.404 -0.1975  0.4908  0.0591
 8181TIP3    H145958   4.829   1.781  13.418  0.0540  0.2622  1.7712
 8181TIP3    H245959   4.932   1.840  13.325 -1.7418  1.3139  0.4149
 8182TIP3   OH245960   2.444   0.432  12.305 -0.2889  0.4147  0.4728
 8182TIP3    H145961   2.434   0.373  12.380  0.4567  0.0005  0.2595
 8182TIP3    H245962   2.539   0.446  12.298 -0.0979 -1.6244 -1.9587
 8183TIP3   OH245963   4.446   0.639  15.647 -0.0270  0.2650  0.0496
 8183TIP3    H145964   4.479   0.692  15.574  1.6070 -0.3114  0.3430
 8183TIP3    H245965   4.351   0.648  15.641 -0.0761 -1.5994 -3.5283
 8184TIP3   OH245966   2.405   4.360   2.049  0.3283  0.1169 -0.7012
 8184TIP3    H145967   2.457   4.404   1.982  1.0834  0.5299  0.1547
 8184TIP3    H245968   2.452   4.278   2.066 -1.5635 -1.5408 -2.9742
 8185TIP3   OH245969   3.096   2.259  13.089  0.2125  0.4997  0.0628
 8185TIP3    H145970   3.049   2.267  13.172  1.0976 -0.0715  0.6314
 8185TIP3    H245971   3.149   2.338  13.084 -0.9905  1.2675 -0.7020
 8186TIP3   OH245972   0.416   3.217   4.126  0.1303  0.0428 -0.3774
 8186TIP3    H145973   0.372   3.229   4.042  0.7252 -0.0191 -0.6923
 8186TIP3    H245974   0.369   3.143   4.166 -0.6871  0.5988 -0.2968
 8187TIP3   OH245975   3.130   1.256   4.216  0.3050 -0.2679 -0.0754
 8187TIP3    H145976   3.163   1.329   4.269 -0.2907 -0.3977  0.4767
 8187TIP3    H245977   3.038   1.247   4.242  0.8661 -2.4825  1.2891
 8188TIP3   OH245978   4.332   6.714   0.263 -0.0307  0.1879  0.6232
 8188TIP3    H145979   4.311   6.640   0.319 -1.4500  1.0395  1.2257
 8188TIP3    H245980   4.421   6.739   0.289  0.8050 -1.7962 -0.1620
 8189TIP3   OH245981   3.258   3.289   2.525  0.3192 -0.0066  0.2077
 8189TIP3    H145982   3.308   3.218   2.484  0.2676  0.2536 -0.3136
 8189TIP3    H245983   3.169   3.278   2.491  1.0034  2.3043 -2.5629
 8190TIP3   OH245984   1.695   3.808   6.066  0.4125 -0.0344  0.1126
 8190TIP3    H145985   1.630   3.865   6.023  1.4545  1.0066 -0.0946
 8190TIP3    H245986   1.765   3.799   6.001  0.0076 -2.0191 -0.0726
 8191TIP3   OH245987   4.760   4.189   2.582  0.1320  0.1494 -0.1033
 8191TIP3    H145988   4.696   4.253   2.613  0.3130  0.4615 -0.3694
 8191TIP3    H245989   4.708   4.116   2.550 -0.0538 -0.6219  1.8507
 8192TIP3   OH245990   4.369   5.099  13.996 -0.0462 -0.6464  0.4977
 8192TIP3    H145991   4.289   5.138  13.960  1.6166  2.1924 -0.3058
 8192TIP3    H245992   4.352   5.091  14.089 -0.5929  1.7929  0.6446
 8193TIP3   OH245993   5.072   1.112  16.380 -0.3278  0.1907  0.0111
 8193TIP3    H145994   4.993   1.116  16.326  0.2854 -0.7733 -0.9812
 8193TIP3    H245995   5.052   1.046  16.446 -0.2406 -0.3025 -0.4462
 8194TIP3   OH245996   4.592   0.190   4.177 -0.4857  0.3175  0.0475
 8194TIP3    H145997   4.572   0.145   4.259 -0.1229 -3.3686 -1.7818
 8194TIP3    H245998   4.507   0.202   4.135 -0.5679  1.1814  0.4634
 8195TIP3   OH245999   3.412   3.548  17.143  0.1121  0.1078 -0.2642
 8195TIP3    H146000   3.402   3.453  17.133 -1.1537  0.3269 -1.1222
 8195TIP3    H246001   3.457   3.558  17.227 -0.1161 -1.2380  0.0326
 8196TIP3   OH246002   2.073   3.164   2.155 -0.2030 -0.5507 -0.1697
 8196TIP3    H146003   1.981   3.188   2.156 -0.9801 -3.4045 -0.1659
 8196TIP3    H246004   2.112   3.222   2.089 -1.7832  1.2638  0.4420
 8197TIP3   OH246005   0.077   4.975   5.982  0.3437 -0.1606 -0.5349
 8197TIP3    H146006   0.032   5.001   6.063  0.0896  1.2669 -1.1298
 8197TIP3    H246007   0.127   4.897   6.007  1.5349  1.1766  1.4104
 8198TIP3   OH246008   2.229   4.970  13.427 -0.0038 -0.7247 -0.0498
 8198TIP3    H146009   2.292   5.030  13.388 -2.2575  1.1343 -0.9555
 8198TIP3    H246010   2.196   5.016  13.504  3.3286 -3.7638  3.3985
 8199TIP3   OH246011   2.491   0.703  13.873 -0.3098  0.1055 -0.5683
 8199TIP3    H146012   2.531   0.629  13.919 -2.7160  0.9253  3.0212
 8199TIP3    H246013   2.406   0.670  13.844 -1.1131  1.2213  0.4734
 8200TIP3   OH246014   4.568   3.033   4.607 -0.5176  0.1713  0.0377
 8200TIP3    H146015   4.599   3.121   4.583 -0.6533  0.0372 -0.6445
 8200TIP3    H246016   4.633   2.974   4.569 -0.3559 -0.0167  0.6132
 8201TIP3   OH246017   3.760   4.619  13.916  0.1360  0.4764  0.2395
 8201TIP3    H146018   3.815   4.597  13.991 -0.4552  0.0983  0.5729
 8201TIP3    H246019   3.718   4.536  13.893  1.9472  0.1153 -1.8827
 8202TIP3   OH246020   1.278   6.380  17.221  0.2179 -0.3735  0.2255
 8202TIP3    H146021   1.304   6.468  17.249 -0.6469  0.2629 -0.9441
 8202TIP3    H246022   1.199   6.362  17.271 -0.0700 -0.1474 -0.1468
 8203TIP3   OH246023   4.194   1.348  15.873 -0.5899 -0.8964  0.4070
 8203TIP3    H146024   4.188   1.351  15.968 -1.7301  0.0796  0.3179
 8203TIP3    H246025   4.253   1.420  15.851 -0.1150 -1.2892  0.3914
 8204TIP3   OH246026   1.164   1.252   3.093  0.1318  0.2133 -0.0739
 8204TIP3    H146027   1.093   1.250   3.030  1.6650 -0.1322 -1.8462
 8204TIP3    H246028   1.195   1.343   3.093  0.0297  0.2497  0.3052
 8205TIP3   OH246029   1.667   4.758  14.597  0.2034 -0.2324 -0.0732
 8205TIP3    H146030   1.677   4.844  14.556  3.8748  1.5570  4.0476
 8205TIP3    H246031   1.732   4.703  14.553  1.5190  0.6238  0.7612
 8206TIP3   OH246032   2.563   3.722   0.801  0.5893 -0.6948  0.1667
 8206TIP3    H146033   2.647   3.725   0.847  0.6619  0.5355 -0.0335
 8206TIP3    H246034   2.499   3.703   0.869  0.5746  2.0847  0.9856
 8207TIP3   OH246035   3.618   0.736   5.492  0.2964 -0.1926 -0.6165
 8207TIP3    H146036   3.657   0.785   5.564  1.4300  0.9960 -1.9905
 8207TIP3    H246037   3.639   0.788   5.414  1.7746 -2.9900 -2.1563
 8208TIP3   OH246038   0.591   2.541   0.411  0.0055  0.1498  0.2302
 8208TIP3    H146039   0.591   2.629   0.373  1.8306 -0.5002 -1.3988
 8208TIP3    H246040   0.598   2.482   0.335 -3.5662 -1.5463  1.1018
 8209TIP3   OH246041   5.162   6.143  11.360 -0.0440 -1.2990  0.2269
 8209TIP3    H146042   5.123   6.083  11.295  1.4220 -0.5772 -1.3613
 8209TIP3    H246043   5.231   6.092  11.402 -1.3388 -1.9342  1.6129
 8210TIP3   OH246044   2.792   1.035  16.907  0.5733  0.0207 -0.2128
 8210TIP3    H146045   2.728   1.097  16.943 -0.4131 -0.4814 -1.0577
 8210TIP3    H246046   2.804   0.971  16.977 -0.7244 -0.5110 -0.4522
 8211TIP3   OH246047   0.904   0.207   2.430 -0.0499  0.2630 -0.2642
 8211TIP3    H146048   0.869   0.118   2.426  0.2016  0.1992 -1.2111
 8211TIP3    H246049   0.953   0.217   2.348  0.4379  1.0569  0.1201
 8212TIP3   OH246050   0.865   4.683  14.988 -0.2199 -0.1837  0.3240
 8212TIP3    H146051   0.778   4.692  15.028  0.7075  2.9003  1.8144
 8212TIP3    H246052   0.850   4.632  14.908 -3.6333  1.4611 -0.1642
 8213TIP3   OH246053   5.192   4.122  13.630  0.5632 -0.2365  0.0606
 8213TIP3    H146054   5.139   4.044  13.648  1.1355 -0.7523 -0.4596
 8213TIP3    H246055   5.232   4.104  13.545  0.7386  0.6064 -0.0321
 8214TIP3   OH246056   1.325   6.697   4.776  0.1695 -0.9942  0.3290
 8214TIP3    H146057   1.255   6.665   4.833 -0.8180 -0.4468 -0.5731
 8214TIP3    H246058   1.317   6.792   4.779  1.1990 -0.9069  0.6134
 8215TIP3   OH246059   5.775   1.027   6.332  0.0207  0.9598  0.0313
 8215TIP3    H146060   5.770   0.957   6.397  0.4418  1.0365  0.1484
 8215TIP3    H246061   5.850   1.079   6.359  0.2498  0.9436 -0.5659
 8216TIP3   OH246062   2.727   6.634  16.757  0.0547  0.6583  0.2955
 8216TIP3    H146063   2.633   6.639  16.740  0.3026  0.8240 -1.0806
 8216TIP3    H246064   2.768   6.650  16.672  1.3721  3.0118  1.3034
 8217TIP3   OH246065   0.883   4.091  17.082  0.4654  0.2096 -0.7410
 8217TIP3    H146066   0.861   4.174  17.125  0.1411 -0.5577  0.6284
 8217TIP3    H246067   0.940   4.046  17.145  1.0436 -0.3855 -1.6882
 8218TIP3   OH246068   1.074   3.897  10.820 -0.0788 -0.2820  0.2481
 8218TIP3    H146069   1.163   3.888  10.852 -0.2671 -1.6942  0.4099
 8218TIP3    H246070   1.064   3.827  10.756 -0.8244  0.3573 -0.3503
 8219TIP3   OH246071   1.445   1.729  15.209 -0.2421  0.0942 -0.2843
 8219TIP3    H146072   1.416   1.662  15.272 -0.1423 -0.9694 -1.3515
 8219TIP3    H246073   1.538   1.741  15.228 -0.2571 -0.0764 -0.0947
 8220TIP3   OH246074   5.607   5.283  11.858 -0.4381  0.2524  0.1774
 8220TIP3    H146075   5.673   5.234  11.908 -0.3899 -1.2808 -1.3316
 8220TIP3    H246076   5.579   5.353  11.917  0.5424 -0.7369  1.8600
 8221TIP3   OH246077   6.096   6.189   0.244 -0.3644  0.0801  0.0275
 8221TIP3    H146078   6.025   6.240   0.284  0.4774 -1.3690  3.5608
 8221TIP3    H246079   6.176   6.230   0.276  0.3609 -0.5614 -0.9473
 8222TIP3   OH246080   6.502   1.302   5.497 -0.4420  0.3047 -0.4161
 8222TIP3    H146081   6.589   1.263   5.500  0.5255  2.4898  0.1442
 8222TIP3    H246082   6.456   1.252   5.429  1.8559  0.3828 -2.0711
 8223TIP3   OH246083   4.200   4.488  16.114  0.1857  0.2000 -0.5499
 8223TIP3    H146084   4.212   4.533  16.031 -3.5339  0.7463 -0.8857
 8223TIP3    H246085   4.128   4.426  16.097  0.2645 -0.6125  1.8967
 8224TIP3   OH246086   2.796   1.606   5.125 -0.3948 -0.5018 -0.3332
 8224TIP3    H146087   2.793   1.545   5.051  0.0938 -1.0260  0.0721
 8224TIP3    H246088   2.707   1.639   5.132 -0.5058 -0.6532 -0.9887
 8225TIP3   OH246089   0.089   3.185  11.906 -0.8918 -0.1074 -0.1081
 8225TIP3    H146090   0.104   3.130  11.983 -2.3018 -0.1155  0.1743
 8225TIP3    H246091   0.091   3.124  11.832 -0.5857 -0.2559  0.0199
 8226TIP3   OH246092   2.903   6.061   0.753 -0.5532  0.4586 -0.0712
 8226TIP3    H146093   2.826   6.005   0.765 -0.1254  0.0715  0.8745
 8226TIP3    H246094   2.926   6.090   0.841  2.0370 -1.6190 -0.0126
 8227TIP3   OH246095   2.695   6.183  16.414 -0.2952  0.1839 -0.3580
 8227TIP3    H146096   2.755   6.146  16.479  0.2868 -0.5851 -1.3163
 8227TIP3    H246097   2.636   6.110  16.393 -0.2322  0.3117 -0.9818
 8228TIP3   OH246098   4.117   1.803   2.869 -0.2948 -0.1029 -0.2359
 8228TIP3    H146099   4.127   1.866   2.940 -3.2938  0.1840  0.0260
 8228TIP3    H246100   4.157   1.845   2.793  1.4271  0.3088  0.8718
 8229TIP3   OH246101   3.035   2.862   2.301  0.1563 -0.4454 -0.2403
 8229TIP3    H146102   2.958   2.808   2.284  0.9976 -1.0275 -2.3162
 8229TIP3    H246103   3.040   2.922   2.227  0.4779  1.0503  0.9596
 8230TIP3   OH246104   5.318   4.104  13.381 -0.4098  0.3269 -0.1210
 8230TIP3    H146105   5.360   4.080  13.298 -0.5410 -0.9638  0.1830
 8230TIP3    H246106   5.250   4.039  13.394 -0.3984  0.5233  1.0080
 8231TIP3   OH246107   2.081   6.391  14.282 -0.1611  0.1972 -0.3632
 8231TIP3    H146108   2.032   6.444  14.219  0.0871  0.3265 -0.4483
 8231TIP3    H246109   2.172   6.417  14.270  0.0373 -0.6609 -0.8149
 8232TIP3   OH246110   6.447   1.620   4.207 -0.4184  0.2756 -0.4365
 8232TIP3    H146111   6.387   1.547   4.225 -3.2814  2.3489 -1.2152
 8232TIP3    H246112   6.418   1.690   4.265  0.9314  1.5109 -1.2048
 8233TIP3   OH246113   1.432   6.282   3.880  0.9886 -0.0835  0.3663
 8233TIP3    H146114   1.423   6.369   3.841 -0.4213  0.2116  1.3035
 8233TIP3    H246115   1.435   6.298   3.975 -2.6872 -1.2183  0.7809
 8234TIP3   OH246116   6.118   1.777   0.406  0.2859  0.4527 -0.0225
 8234TIP3    H146117   6.124   1.701   0.349  0.3109  0.1014  0.4503
 8234TIP3    H246118   6.096   1.849   0.347  2.1512  0.4473 -0.7392
 8235TIP3   OH246119   1.806   5.986  13.837 -0.3241  0.1437 -0.2010
 8235TIP3    H146120   1.819   5.988  13.742 -0.7529 -0.1573 -0.2700
 8235TIP3    H246121   1.712   6.003  13.848 -0.0249  1.5892  0.2402
 8236TIP3   OH246122   6.785   6.276  10.866 -0.0426 -0.1944 -0.1334
 8236TIP3    H146123   6.811   6.209  10.803 -0.0189 -1.3484  1.0833
 8236TIP3    H246124   6.723   6.331  10.818  3.0576  1.4246 -2.4536
 8237TIP3   OH246125   0.095   2.798   0.466 -0.7015 -0.3098 -0.1700
 8237TIP3    H146126   0.105   2.807   0.561  0.3660 -0.7889 -0.2296
 8237TIP3    H246127   0.136   2.876   0.430 -1.9918  0.3735 -0.2166
 8238TIP3   OH246128   6.606   3.675   3.640 -0.5732 -0.1409 -0.4915
 8238TIP3    H146129   6.600   3.621   3.561  0.2700  0.1935 -0.7899
 8238TIP3    H246130   6.582   3.615   3.711  2.0292 -1.4180 -0.6285
 8239TIP3   OH246131   2.871   4.690   2.464  0.2804  0.1861  0.0523
 8239TIP3    H146132   2.817   4.613   2.446  0.6837  0.1499 -1.0832
 8239TIP3    H246133   2.864   4.704   2.558  0.0583 -1.1361  0.2401
 8240TIP3   OH246134   0.029   6.356   2.801 -0.5605  0.2178 -0.1542
 8240TIP3    H146135   0.046   6.313   2.885 -0.5339  1.1144  0.2993
 8240TIP3    H246136   0.114   6.391   2.775 -0.9897  1.7617  0.4693
 8241TIP3   OH246137   2.402   4.059   2.934 -0.1559  0.5993  0.2146
 8241TIP3    H146138   2.479   4.038   2.986  1.1690  1.9120 -1.1542
 8241TIP3    H246139   2.406   3.999   2.859 -1.0957 -0.0950  0.7064
 8242TIP3   OH246140   0.207   2.561   5.010  0.0521 -0.1230  0.4098
 8242TIP3    H146141   0.255   2.507   4.948 -0.7716 -1.2857  0.7601
 8242TIP3    H246142   0.246   2.648   5.002  0.1128 -0.3080 -1.5728
 8243TIP3   OH246143   3.499   5.366  15.503  0.1397  0.0568 -0.5666
 8243TIP3    H146144   3.436   5.305  15.466  0.1508  0.1475 -0.7341
 8243TIP3    H246145   3.532   5.323  15.582 -0.2790  0.0923 -0.3700
 8244TIP3   OH246146   6.106   3.770  12.242 -0.7257 -0.2291  0.0422
 8244TIP3    H146147   6.069   3.714  12.173  0.4400 -0.2061 -0.6071
 8244TIP3    H246148   6.198   3.779  12.219 -0.3368 -0.1624  1.5756
 8245TIP3   OH246149   2.435   3.118  13.228  0.2169 -0.4038 -0.0848
 8245TIP3    H146150   2.401   3.029  13.218  0.6296 -0.5312 -0.3712
 8245TIP3    H246151   2.507   3.123  13.165  0.4038  0.0259  0.1631
 8246TIP3   OH246152   4.948   0.448  11.361 -0.5768 -0.0202 -0.2245
 8246TIP3    H146153   5.024   0.427  11.416 -1.4751 -3.1098 -0.0670
 8246TIP3    H246154   4.983   0.505  11.293  1.3486  0.7021  1.3283
 8247TIP3   OH246155   2.832   2.988  13.594 -0.1631  0.2935 -0.1115
 8247TIP3    H146156   2.904   2.972  13.655 -0.3636 -2.0163 -0.4387
 8247TIP3    H246157   2.753   2.966  13.644 -0.6077  1.9307 -0.0522
 8248TIP3   OH246158   5.637   2.603  12.651  0.0249  0.8590  0.1366
 8248TIP3    H146159   5.670   2.652  12.575 -0.8495 -0.1500 -0.9110
 8248TIP3    H246160   5.542   2.601  12.638 -0.0191 -0.3669  0.6251
 8249TIP3   OH246161   1.365   3.546  14.055  0.0738 -0.3274 -0.0453
 8249TIP3    H146162   1.438   3.556  14.116  0.3541  0.8647 -0.5653
 8249TIP3    H246163   1.403   3.507  13.977  0.2666  0.7701 -0.5095
 8250TIP3   OH246164   5.876   4.569   2.596 -0.0382 -0.1600 -0.3612
 8250TIP3    H146165   5.860   4.600   2.506  0.9282  1.5449  0.0382
 8250TIP3    H246166   5.950   4.510   2.588 -0.4375 -0.6074 -0.7991
 8251TIP3   OH246167   0.071   1.251   6.022 -0.1064 -0.2773  0.1623
 8251TIP3    H146168   0.048   1.172   5.973  1.9728  1.0435 -3.1289
 8251TIP3    H246169   0.164   1.240   6.041  0.0580  1.1335  0.1680
 8252TIP3   OH246170   3.653   3.219  13.113  0.4480  0.0348  0.3329
 8252TIP3    H146171   3.573   3.268  13.096  0.2566  0.5617  2.6637
 8252TIP3    H246172   3.719   3.285  13.131  0.6974 -0.5030  1.4106
 8253TIP3   OH246173   2.483   3.719  13.166 -0.0056  0.0305 -0.1680
 8253TIP3    H146174   2.401   3.714  13.117  0.2506 -0.3838 -0.5581
 8253TIP3    H246175   2.498   3.629  13.196  1.5139 -0.4043 -2.1078
 8254TIP3   OH246176   2.643   3.793  16.776 -0.2587  0.5272 -0.3729
 8254TIP3    H146177   2.551   3.798  16.802 -0.2128  1.0642 -0.3075
 8254TIP3    H246178   2.642   3.737  16.697 -0.8027  1.5849 -1.1231
 8255TIP3   OH246179   3.290   5.967  14.165 -0.3970 -0.2631 -0.7643
 8255TIP3    H146180   3.313   6.049  14.121  1.2854 -0.7969 -0.9384
 8255TIP3    H246181   3.374   5.933  14.197 -0.9352 -2.3466 -1.4596
 8256TIP3   OH246182   4.144   0.806  16.633  0.0854  0.0431  0.0794
 8256TIP3    H146183   4.058   0.765  16.633  0.7898 -1.4697  1.6374
 8256TIP3    H246184   4.199   0.746  16.581  1.3615 -1.6088  3.2047
 8257TIP3   OH246185   4.817   3.958   1.592 -0.2010  1.0407  0.4851
 8257TIP3    H146186   4.781   4.008   1.666  0.7997  1.9172  0.3854
 8257TIP3    H246187   4.778   3.999   1.515 -1.7200 -0.2571  0.5271
 8258TIP3   OH246188   5.112   0.808  16.768  0.5903 -0.1803 -0.1635
 8258TIP3    H146189   5.054   0.882  16.791  0.8609  0.5967 -1.9198
 8258TIP3    H246190   5.067   0.731  16.803 -0.4945  0.6338  0.2799
 8259TIP3   OH246191   1.277   3.797   6.431 -0.2243  0.2483  0.1154
 8259TIP3    H146192   1.221   3.766   6.360 -0.2912  0.7584 -0.0585
 8259TIP3    H246193   1.221   3.857   6.481 -0.3786 -0.6036  0.9786
 8260TIP3   OH246194   4.453   1.065   0.272 -0.5132  0.5249 -0.3007
 8260TIP3    H146195   4.483   1.010   0.344  0.7536  1.3149 -0.2017
 8260TIP3    H246196   4.518   1.053   0.203 -0.4723  1.5198 -0.4536
 8261TIP3   OH246197   4.969   0.621  12.426 -0.2583  0.3742 -0.0167
 8261TIP3    H146198   5.033   0.550  12.433 -1.1015 -0.4265 -0.3028
 8261TIP3    H246199   4.960   0.655  12.515 -0.9503 -0.8698  0.4043
 8262TIP3   OH246200   1.684   5.551   1.961  0.3312  0.6691 -0.2463
 8262TIP3    H146201   1.681   5.595   1.876  0.3925  1.2945  0.0788
 8262TIP3    H246202   1.609   5.491   1.959 -0.2206  1.3656 -0.3667
 8263TIP3   OH246203   0.140   6.322   0.898  0.2149  0.3762  0.6648
 8263TIP3    H146204   0.177   6.258   0.959 -0.0561 -1.5657 -1.1584
 8263TIP3    H246205   0.216   6.359   0.853  0.1552 -1.9177 -1.4182
 8264TIP3   OH246206   5.848   6.237  15.058 -0.0881 -0.6839 -0.2429
 8264TIP3    H146207   5.856   6.324  15.097 -1.6967  0.8570 -3.1595
 8264TIP3    H246208   5.781   6.193  15.110 -2.0215  1.2287 -1.0512
 8265TIP3   OH246209   0.049   3.661   0.843 -0.3067 -0.0939  0.0242
 8265TIP3    H146210   0.048   3.723   0.915 -1.2991  1.9903 -1.7032
 8265TIP3    H246211   0.122   3.690   0.787 -1.2720  0.0431 -1.1994
 8266TIP3   OH246212   0.385   1.743   0.927  0.6738 -0.7246 -0.1253
 8266TIP3    H146213   0.353   1.776   1.011 -0.3037 -1.2334 -0.2819
 8266TIP3    H246214   0.356   1.652   0.925  1.3872 -0.9398 -0.6664
 8267TIP3   OH246215   5.146   4.892   4.343  0.0298 -0.1404  0.3461
 8267TIP3    H146216   5.109   4.846   4.418 -0.9653 -1.2281 -0.7921
 8267TIP3    H246217   5.232   4.852   4.330  0.9524  1.2526  1.9637
 8268TIP3   OH246218   3.685   5.311  12.558 -0.3055 -0.2848  0.1067
 8268TIP3    H146219   3.665   5.327  12.650 -0.5800  0.5205 -0.0889
 8268TIP3    H246220   3.619   5.248  12.530 -0.7462  0.1064  0.2467
 8269TIP3   OH246221   4.418   0.573   3.661  0.1061  0.5770 -0.4900
 8269TIP3    H146222   4.489   0.626   3.623 -2.1360  3.6683 -0.5675
 8269TIP3    H246223   4.442   0.565   3.753  0.2975  2.1098 -0.3869
 8270TIP3   OH246224   5.113   4.119  12.196 -0.0221 -0.2457  0.3999
 8270TIP3    H146225   5.147   4.051  12.137 -0.5910 -0.7195  0.6137
 8270TIP3    H246226   5.125   4.201  12.148  0.4866 -0.5149  0.0556
 8271TIP3   OH246227   3.464   0.067   5.231  0.5186 -0.0602  0.1761
 8271TIP3    H146228   3.554   0.047   5.256  0.7796  0.9296  0.0769
 8271TIP3    H246229   3.467   0.159   5.203 -0.3795 -0.2362 -0.5198
 8272TIP3   OH246230   5.996   0.236  15.065 -0.1016  0.2043 -0.5103
 8272TIP3    H146231   5.956   0.242  14.979 -1.0051 -1.9329 -0.2935
 8272TIP3    H246232   5.937   0.284  15.123 -0.3256  0.3255 -0.8392
 8273TIP3   OH246233   1.815   4.877  10.706  0.7335 -0.3653 -0.1293
 8273TIP3    H146234   1.883   4.940  10.728  0.3290  0.5511 -1.4231
 8273TIP3    H246235   1.827   4.861  10.612 -0.5749 -0.5162 -0.2774
 8274TIP3   OH246236   6.511   0.997   0.313  0.4700 -0.1680 -0.7559
 8274TIP3    H146237   6.505   0.917   0.366  1.9819  0.4091  0.3032
 8274TIP3    H246238   6.589   0.984   0.259  0.5705  0.4738 -0.7694
 8275TIP3   OH246239   1.023   2.468   0.341  0.3247 -0.4838  0.2611
 8275TIP3    H146240   1.021   2.392   0.399  1.7449 -2.2737 -1.9733
 8275TIP3    H246241   1.022   2.431   0.253 -1.8515  2.1865 -0.9011
 8276TIP3   OH246242   0.671   4.874   5.236 -0.3860 -0.0089  0.5113
 8276TIP3    H146243   0.709   4.794   5.270 -1.1683 -0.2143  0.9092
 8276TIP3    H246244   0.624   4.847   5.157 -0.1107  0.1637  0.2868
 8277TIP3   OH246245   0.135   4.880  12.773 -0.2228 -0.1478 -0.0356
 8277TIP3    H146246   0.127   4.817  12.702  0.5857 -1.1550  0.7474
 8277TIP3    H246247   0.173   4.830  12.845  0.3235  1.2141  0.6365
 8278TIP3   OH246248   6.314   5.700  15.677 -0.6218 -0.2131  0.2299
 8278TIP3    H146249   6.233   5.731  15.717  0.1649 -0.5995  2.2066
 8278TIP3    H246250   6.323   5.609  15.708  0.1191 -0.4529 -0.6646
 8279TIP3   OH246251   2.159   0.346   0.353 -0.2013 -1.0620  0.3299
 8279TIP3    H146252   2.180   0.303   0.270  0.4302  1.0248 -0.6241
 8279TIP3    H246253   2.065   0.364   0.347 -0.1697 -0.9706  0.0861
 8280TIP3   OH246254   6.314   3.653  16.444  0.0986 -0.2522  0.4304
 8280TIP3    H146255   6.369   3.582  16.412 -1.0038 -1.4210  1.0690
 8280TIP3    H246256   6.278   3.620  16.526 -1.2554  0.6312  0.2066
 8281TIP3   OH246257   5.824   1.369   5.634  0.7848 -0.0893  0.2520
 8281TIP3    H146258   5.793   1.388   5.546  1.7259 -0.3305 -0.1387
 8281TIP3    H246259   5.756   1.404   5.691 -0.1174 -0.4680 -0.5772
 8282TIP3   OH246260   0.353   3.613   2.328 -0.2536 -0.3051 -0.0597
 8282TIP3    H146261   0.346   3.564   2.246  2.1673 -0.8522  0.0299
 8282TIP3    H246262   0.344   3.547   2.397  0.2468 -0.2314  0.0798
 8283TIP3   OH246263   2.810   4.280  14.186 -0.4294  0.6456  0.2459
 8283TIP3    H146264   2.779   4.331  14.260  1.1538  1.7585  0.1541
 8283TIP3    H246265   2.844   4.345  14.124  0.6146 -0.4454 -0.3367
 8284TIP3   OH246266   6.132   5.997   1.804 -0.8815 -0.0874  0.5257
 8284TIP3    H146267   6.105   6.075   1.755  0.1314  0.1274  0.2859
 8284TIP3    H246268   6.126   6.024   1.896  1.1922  0.9034  0.4098
 8285TIP3   OH246269   4.600   2.310   0.021  0.5499  0.3708 -0.3121
 8285TIP3    H146270   4.603   2.218   0.046  0.5996 -0.0557 -1.8505
 8285TIP3    H246271   4.515   2.320  -0.022 -0.7306  1.7348  2.4343
 8286TIP3   OH246272   3.716   0.228  14.485  0.4136 -0.7696  0.0039
 8286TIP3    H146273   3.713   0.277  14.402  0.0678 -2.0965 -0.7740
 8286TIP3    H246274   3.767   0.285  14.544  1.7531 -0.3772 -1.4893
 8287TIP3   OH246275   0.112   3.194  16.204 -0.1133 -0.4998  0.4427
 8287TIP3    H146276   0.199   3.178  16.168 -0.4530 -2.0915  0.2977
 8287TIP3    H246277   0.060   3.224  16.130  0.6582  1.8242  0.8181
 8288TIP3   OH246278   0.995   1.236   2.354  0.0449  0.8134 -0.1720
 8288TIP3    H146279   0.972   1.321   2.317  1.8338  2.4157  2.2207
 8288TIP3    H246280   1.073   1.254   2.407  0.1857 -2.2413  0.7328
 8289TIP3   OH246281   0.454   3.979   5.449 -0.3412 -0.5339 -0.7994
 8289TIP3    H146282   0.502   4.046   5.399  2.6045 -1.8288  0.1540
 8289TIP3    H246283   0.436   4.020   5.533  0.7041 -0.6305 -0.5220
 8290TIP3   OH246284   4.780   5.948   1.075  0.2857  0.2684 -0.6698
 8290TIP3    H146285   4.858   5.956   1.019  1.0606  0.1779  0.3836
 8290TIP3    H246286   4.789   5.861   1.115  1.3193  1.5144  1.9172
 8291TIP3   OH246287   4.290   4.639  16.409 -0.8535  0.0914  0.3009
 8291TIP3    H146288   4.205   4.672  16.440 -0.9039  1.5985 -1.4003
 8291TIP3    H246289   4.267   4.567  16.351 -1.1074  1.9528 -1.9622
 8292TIP3   OH246290   6.569   0.620   5.387  0.9131 -0.2133  0.4446
 8292TIP3    H146291   6.547   0.606   5.295  3.2455 -0.6593 -0.0917
 8292TIP3    H246292   6.628   0.547   5.409 -0.7652 -0.9388  2.7249
 8293TIP3   OH246293   2.960   6.555   0.384 -0.2686  0.0114 -0.1047
 8293TIP3    H146294   2.890   6.517   0.438 -0.3077 -1.5552 -1.2118
 8293TIP3    H246295   2.931   6.644   0.366 -2.3098 -0.8171 -1.0703
 8294TIP3   OH246296   0.730   2.983   4.886 -0.5651  0.5078  0.3306
 8294TIP3    H146297   0.676   3.027   4.819  0.5802  2.8046  0.8493
 8294TIP3    H246298   0.759   2.902   4.844 -1.0396  1.2308 -1.4435
 8295TIP3   OH246299   5.308   4.446  16.204 -0.4080  0.7599 -0.3029
 8295TIP3    H146300   5.363   4.518  16.232 -0.4295  1.1651 -1.2990
 8295TIP3    H246301   5.278   4.470  16.116  0.3224 -0.8592 -1.0257
 8296TIP3   OH246302   2.702   5.294   2.967  0.5186 -0.4145  0.1736
 8296TIP3    H146303   2.765   5.222   2.971  0.3890 -0.5970 -1.0124
 8296TIP3    H246304   2.743   5.359   2.910  0.8217  0.6514  1.5874
 8297TIP3   OH246305   4.326   5.141   2.740 -0.6990 -0.3781  0.1809
 8297TIP3    H146306   4.420   5.160   2.730 -0.9020  1.5112  1.6154
 8297TIP3    H246307   4.292   5.148   2.651  0.4436 -0.6436 -0.2949
 8298TIP3   OH246308   5.583   1.135  15.102  0.1686  0.2342  0.2014
 8298TIP3    H146309   5.494   1.169  15.110 -0.0667 -0.4673  0.6694
 8298TIP3    H246310   5.598   1.089  15.185  2.2228  3.2081  1.5875
 8299TIP3   OH246311   3.255   0.856  15.448  0.3319  0.5906  0.2687
 8299TIP3    H146312   3.322   0.793  15.473 -0.2604 -0.0517  0.2766
 8299TIP3    H246313   3.299   0.941  15.448  0.9668  0.2612  0.9380
 8300TIP3   OH246314   3.798   1.907  11.238  0.0299  0.2828  0.3933
 8300TIP3    H146315   3.777   1.920  11.331 -0.4186 -2.5739  0.7281
 8300TIP3    H246316   3.714   1.919  11.193  0.0553  0.6704  0.4431
 8301TIP3   OH246317   2.617   3.469  12.293  0.0840 -0.3541  0.2277
 8301TIP3    H146318   2.623   3.544  12.353  0.6211 -0.3564  0.1791
 8301TIP3    H246319   2.631   3.393  12.349  2.5650 -0.2637 -0.1897
 8302TIP3   OH246320   4.941   3.691  12.505 -0.1185 -0.3190  0.2888
 8302TIP3    H146321   4.855   3.729  12.520  0.2032 -0.2138  1.9037
 8302TIP3    H246322   4.981   3.748  12.439 -1.1534 -0.1784 -0.2176
 8303TIP3   OH246323   2.907   4.801   4.916  0.1320 -0.2955 -0.4695
 8303TIP3    H146324   2.948   4.879   4.879  0.1531 -0.1252 -0.0905
 8303TIP3    H246325   2.907   4.738   4.844  3.1777 -1.1130  0.1491
 8304TIP3   OH246326   3.754   1.521   5.714 -0.0684  0.6215 -0.3911
 8304TIP3    H146327   3.690   1.591   5.726 -1.6130 -0.5405 -1.6538
 8304TIP3    H246328   3.714   1.463   5.650  1.5880 -0.9518 -0.0339
 8305TIP3   OH246329   3.018   1.051   2.505 -0.2611 -0.4058  0.8735
 8305TIP3    H146330   3.060   0.966   2.490 -2.3768 -2.0160  3.5877
 8305TIP3    H246331   3.011   1.090   2.418  2.3288 -2.2052 -0.2268
 8306TIP3   OH246332   6.216   2.088   4.557  0.1053  0.1784  0.2347
 8306TIP3    H146333   6.142   2.149   4.558  0.9506  1.2228  1.2772
 8306TIP3    H246334   6.267   2.111   4.635  0.7431 -1.5084  0.3516
 8307TIP3   OH246335   4.011   6.643   1.820 -0.3871  0.6159  0.2542
 8307TIP3    H146336   4.056   6.672   1.899 -0.0096  0.2896  0.1577
 8307TIP3    H246337   3.965   6.721   1.789 -1.0942  0.5787  1.1745
 8308TIP3   OH246338   6.078   5.628  17.095  0.3660 -0.2493 -0.4682
 8308TIP3    H146339   6.053   5.707  17.048  1.2072  0.0111 -0.4853
 8308TIP3    H246340   6.076   5.652  17.187  0.8463 -0.1359 -0.4837
 8309TIP3   OH246341   6.614   5.882   0.030 -0.4833  0.0222  0.3842
 8309TIP3    H146342   6.586   5.892  -0.061  1.6473  1.8111 -0.1319
 8309TIP3    H246343   6.607   5.970   0.067  0.1982 -0.3737  1.4794
 8310TIP3   OH246344   0.995   3.145  13.529 -0.3630 -0.1131 -0.0324
 8310TIP3    H146345   0.941   3.193  13.591 -0.9902 -2.1487  1.0652
 8310TIP3    H246346   0.984   3.053  13.554  0.2152 -0.9048 -2.4760
 8311TIP3   OH246347   4.930   3.332   2.783  0.4352  0.1375 -0.5757
 8311TIP3    H146348   4.933   3.418   2.743 -0.0628  0.3161 -0.2479
 8311TIP3    H246349   4.853   3.336   2.841  0.3810 -0.5376 -0.5969
 8312TIP3   OH246350   4.016   5.775   1.454  0.2597 -0.2255  0.0467
 8312TIP3    H146351   4.003   5.728   1.536 -1.4167  0.8197  0.3912
 8312TIP3    H246352   3.927   5.798   1.425  0.7913 -0.7577 -2.1632
 8313TIP3   OH246353   1.302   3.945   4.343  0.6597  0.6197 -0.1814
 8313TIP3    H146354   1.334   3.971   4.429  2.9158 -0.4497 -0.6698
 8313TIP3    H246355   1.217   3.988   4.335 -1.0248 -1.6713  3.8036
 8314TIP3   OH246356   4.072   3.021  10.946  0.4934  0.3885 -0.1352
 8314TIP3    H146357   4.000   3.065  10.992  1.2732  0.8581  0.6378
 8314TIP3    H246358   4.043   2.930  10.939  0.2290  0.3797  1.0034
 8315TIP3   OH246359   2.003   0.140   1.564 -0.1810 -0.0571  0.0358
 8315TIP3    H146360   2.095   0.165   1.575 -0.3620  1.2715 -1.2439
 8315TIP3    H246361   1.986   0.078   1.634  1.6231 -0.1054  0.4549
 8316TIP3   OH246362   5.265   0.485   2.944 -0.1348  0.1598 -0.6356
 8316TIP3    H146363   5.258   0.579   2.931 -0.3433  0.1917 -0.2936
 8316TIP3    H246364   5.336   0.458   2.885 -1.2270  0.2679 -2.0124
 8317TIP3   OH246365   1.342   0.373   4.294 -0.6127 -0.2566 -0.2738
 8317TIP3    H146366   1.401   0.303   4.323 -1.6561 -1.6964 -1.5679
 8317TIP3    H246367   1.256   0.346   4.325 -0.4951  2.4200  2.6391
 8318TIP3   OH246368   1.295   3.515   3.331 -0.2569 -0.2045 -0.1307
 8318TIP3    H146369   1.337   3.435   3.362 -1.1967 -0.3387  0.8170
 8318TIP3    H246370   1.337   3.585   3.381 -1.9713 -0.4457  1.7231
 8319TIP3   OH246371   1.819   2.673  13.717  0.6248  0.8591 -0.2380
 8319TIP3    H146372   1.806   2.752  13.663 -0.9425  1.7557  1.4057
 8319TIP3    H246373   1.914   2.659  13.715  0.9195  2.6816 -0.7281
 8320TIP3   OH246374   4.491   5.419  12.176  0.1726 -0.2799  0.5819
 8320TIP3    H146375   4.500   5.325  12.189  0.0654 -0.3550  0.1076
 8320TIP3    H246376   4.561   5.443  12.116 -0.7981 -0.3369 -0.5902
 8321TIP3   OH246377   4.095   0.836   4.165 -0.5475 -0.0593 -0.6995
 8321TIP3    H146378   4.074   0.865   4.253  0.2249  1.6397 -1.0363
 8321TIP3    H246379   4.075   0.743   4.164 -1.9707  0.2061  0.8218
 8322TIP3   OH246380   6.595   2.018   5.162 -0.7403  0.0961  0.2162
 8322TIP3    H146381   6.512   2.004   5.208  0.4192 -0.3650  2.2431
 8322TIP3    H246382   6.651   2.061   5.226  1.4589 -2.0195 -0.2212
 8323TIP3   OH246383   5.975   6.018  14.173 -0.3385  0.0985  0.5149
 8323TIP3    H146384   5.885   5.988  14.155  0.4770 -1.5277 -1.0326
 8323TIP3    H246385   5.985   6.005  14.268 -1.1273 -1.4489  0.4078
 8324TIP3   OH246386   2.009   0.430  14.519  0.4743 -0.0571  0.0867
 8324TIP3    H146387   2.061   0.378  14.580  1.2893 -1.2087 -1.5611
 8324TIP3    H246388   1.934   0.375  14.499  1.2749 -0.5513 -1.5707
 8325TIP3   OH246389   0.004   5.486  13.536  0.7322  0.3747  0.5483
 8325TIP3    H146390   0.013   5.568  13.583  0.3956  0.1518  1.0079
 8325TIP3    H246391   0.079   5.484  13.476 -0.3365  1.9507 -0.9043
 8326TIP3   OH246392   0.409   0.926  16.535 -0.1853 -0.0296 -0.4974
 8326TIP3    H146393   0.453   0.903  16.617  1.6353 -1.0931 -1.7466
 8326TIP3    H246394   0.354   0.850  16.515 -1.1415  0.5034  0.0639
 8327TIP3   OH246395   2.395   6.488  12.832 -0.4582  0.4799 -0.6151
 8327TIP3    H146396   2.352   6.419  12.781 -0.6087  0.0795  0.0428
 8327TIP3    H246397   2.323   6.542  12.864 -0.4109  0.3860 -0.3416
 8328TIP3   OH246398   2.229   2.583   5.731  0.2549  0.2208  0.3174
 8328TIP3    H146399   2.289   2.514   5.760  1.7148  1.8295  1.2272
 8328TIP3    H246400   2.143   2.553   5.760  0.6444 -1.8868 -0.5536
 8329TIP3   OH246401   4.600   6.421  13.732  0.2602  0.4716 -0.0572
 8329TIP3    H146402   4.635   6.365  13.662  0.5882 -0.2040  0.6423
 8329TIP3    H246403   4.543   6.483  13.686 -0.1521 -0.4726 -0.8451
 8330TIP3   OH246404   0.148   2.422  14.906  1.0171  0.6092  1.0818
 8330TIP3    H146405   0.060   2.402  14.874  1.1085  0.9851  0.5726
 8330TIP3    H246406   0.134   2.481  14.980  0.8822  2.4071 -0.3121
 8331TIP3   OH246407   2.770   3.206   6.501 -0.3801 -0.0226  0.2232
 8331TIP3    H146408   2.692   3.202   6.445  1.2199  0.3638 -2.0867
 8331TIP3    H246409   2.793   3.114   6.517 -0.0256 -0.1330 -0.9169
 8332TIP3   OH246410   4.360   6.542  16.239  0.5005 -0.3389  0.2769
 8332TIP3    H146411   4.267   6.559  16.255  0.4078 -0.8471  0.2892
 8332TIP3    H246412   4.394   6.511  16.323  0.5928 -0.5322  0.1696
 8333TIP3   OH246413   4.282   5.727   2.093 -0.5085 -0.3279 -0.0961
 8333TIP3    H146414   4.256   5.798   2.034  0.1049 -0.1186 -0.1241
 8333TIP3    H246415   4.285   5.649   2.038 -0.7256 -0.2880 -0.1662
 8334TIP3   OH246416   1.879   4.237   3.091  0.1223  0.4600 -0.0614
 8334TIP3    H146417   1.888   4.191   3.174  2.2654  2.2801  0.7816
 8334TIP3    H246418   1.849   4.325   3.115 -1.5627  0.2818 -1.4241
 8335TIP3   OH246419   3.434   0.778   2.189 -0.7860  0.4074 -0.5963
 8335TIP3    H146420   3.415   0.826   2.269  0.5575 -0.8733  0.5124
 8335TIP3    H246421   3.376   0.701   2.193  1.3203 -1.1626  0.5931
 8336TIP3   OH246422   4.553   6.062  13.810  0.0634 -0.0176  0.1958
 8336TIP3    H146423   4.588   6.086  13.896  1.2273  0.1169 -0.3030
 8336TIP3    H246424   4.486   6.128  13.792  0.3515  0.4085  0.6605
 8337TIP3   OH246425   5.448   3.173   2.564 -0.1229 -0.0596  0.4802
 8337TIP3    H146426   5.449   3.268   2.565  1.2772 -0.0523 -0.5253
 8337TIP3    H246427   5.485   3.149   2.479  0.4821 -1.4947  1.1306
 8338TIP3   OH246428   6.029   2.219  11.493  0.5700 -0.0992 -0.4966
 8338TIP3    H146429   5.944   2.189  11.525  0.4929  0.1747 -0.4440
 8338TIP3    H246430   6.041   2.174  11.410  1.7583 -2.5441  0.9347
 8339TIP3   OH246431   6.751   0.504   3.991 -0.0019 -0.1007 -0.1225
 8339TIP3    H146432   6.756   0.454   4.073 -1.8123 -0.5781 -0.2846
 8339TIP3    H246433   6.716   0.442   3.927  0.0189  0.6887 -0.9142
 8340TIP3   OH246434   6.744   0.910  15.720  0.1855  0.0886 -0.7610
 8340TIP3    H146435   6.837   0.897  15.703  0.2477 -1.3469  0.5975
 8340TIP3    H246436   6.707   0.932  15.634  1.4348 -1.3032 -1.6835
 8341TIP3   OH246437   2.401   3.734  16.867  0.6730 -0.0124  0.3352
 8341TIP3    H146438   2.310   3.716  16.889  1.0873 -2.7770 -0.0125
 8341TIP3    H246439   2.451   3.704  16.943  1.3189  1.7099  0.6353
 8342TIP3   OH246440   2.143   2.649   0.864 -0.1465 -0.2690 -0.3086
 8342TIP3    H146441   2.096   2.688   0.937 -0.4679  0.5411 -0.9410
 8342TIP3    H246442   2.118   2.702   0.788  1.9473  0.3046 -0.6176
 8343TIP3   OH246443   1.691   6.414  14.233 -0.3000 -0.1483 -0.0542
 8343TIP3    H146444   1.683   6.328  14.275  1.9916 -0.8935 -1.0791
 8343TIP3    H246445   1.673   6.397  14.140  0.7077  0.3718 -0.3508
 8344TIP3   OH246446   6.602   5.059   2.398 -0.3443  0.3920 -0.4578
 8344TIP3    H146447   6.667   5.080   2.330  1.0991 -3.4699 -0.4104
 8344TIP3    H246448   6.521   5.042   2.349  0.0665  0.0038 -1.0133
 8345TIP3   OH246449   5.003   1.198  16.853  0.0390  0.3014  0.1443
 8345TIP3    H146450   5.015   1.168  16.943 -0.6217  1.6691  0.7102
 8345TIP3    H246451   4.934   1.143  16.818  0.1611 -0.1073  0.5485
 8346TIP3   OH246452   3.339   0.081  15.691 -0.2458 -0.5220  0.1200
 8346TIP3    H146453   3.350  -0.013  15.706 -0.4490 -0.2788  1.8849
 8346TIP3    H246454   3.261   0.088  15.637 -1.8726 -1.2343  2.3103
 8347TIP3   OH246455   5.743   0.938  12.482  0.1544  0.4538  0.5227
 8347TIP3    H146456   5.816   0.898  12.435  0.5935  1.5979  0.1904
 8347TIP3    H246457   5.665   0.914  12.432  0.5928  1.4839 -0.6905
 8348TIP3   OH246458   3.150   1.965  11.651  0.1282 -0.0518 -0.1333
 8348TIP3    H146459   3.204   1.924  11.584  1.9349 -2.1515  2.5233
 8348TIP3    H246460   3.199   2.044  11.676  0.5676 -0.4374  0.2427
 8349TIP3   OH246461   5.496   3.793   6.447  0.5822 -0.7934  0.0126
 8349TIP3    H146462   5.471   3.856   6.514 -0.6296 -1.5614  0.2935
 8349TIP3    H246463   5.587   3.769   6.468  1.1964  1.1346 -0.3352
 8350TIP3   OH246464   3.011   0.856  11.191 -0.3510 -0.0017 -0.4771
 8350TIP3    H146465   3.087   0.907  11.165  0.9570 -1.8289 -0.3429
 8350TIP3    H246466   2.936   0.912  11.171  1.0255  1.8980 -0.4246
 8351TIP3   OH246467   1.085   0.061  12.596 -0.7501 -0.4536  0.7332
 8351TIP3    H146468   1.112  -0.014  12.544 -1.1879  0.8219 -1.4025
 8351TIP3    H246469   1.031   0.024  12.667  0.5843 -2.2908  0.8064
 8352TIP3   OH246470   2.507   3.519  11.413 -0.4435  0.3606  0.5915
 8352TIP3    H146471   2.415   3.544  11.403 -0.1816  0.9170 -0.5168
 8352TIP3    H246472   2.505   3.439  11.464 -1.5065  0.7598  1.1918
 8353TIP3   OH246473   5.478   3.026   5.122 -0.3328 -0.3790 -0.0331
 8353TIP3    H146474   5.418   3.101   5.116  1.1602  0.7585 -0.9005
 8353TIP3    H246475   5.437   2.959   5.067  0.2243  1.1205 -2.3462
 8354TIP3   OH246476   5.244   6.337  15.328 -0.3739  0.1151  0.3207
 8354TIP3    H146477   5.229   6.344  15.234  0.0663  0.9764  0.3071
 8354TIP3    H246478   5.291   6.418  15.351  0.3318 -0.5049  1.1098
 8355TIP3   OH246479   3.021   4.869   0.414 -0.1666 -0.0499  0.0423
 8355TIP3    H146480   3.103   4.912   0.390 -0.1230  0.0884  0.4456
 8355TIP3    H246481   2.972   4.864   0.331 -0.5983  1.6863  0.1874
 8356TIP3   OH246482   4.856   5.643   3.365  0.6219  0.1883  0.0490
 8356TIP3    H146483   4.900   5.575   3.416  0.9190 -0.6029 -1.2460
 8356TIP3    H246484   4.880   5.625   3.275 -0.7891  0.9095 -0.4878
 8357TIP3   OH246485   1.560   5.789  15.123 -0.5316  0.3883 -0.2232
 8357TIP3    H146486   1.644   5.757  15.091 -0.2989 -1.2677  1.9109
 8357TIP3    H246487   1.499   5.770  15.052  0.7303  0.8090 -1.4460
 8358TIP3   OH246488   1.905   2.591   2.274 -0.0878 -0.3453 -0.1753
 8358TIP3    H146489   1.943   2.557   2.193 -1.1230 -0.2983 -0.6931
 8358TIP3    H246490   1.825   2.539   2.286 -0.9977  0.9997 -0.2652
 8359TIP3   OH246491   0.591   4.046  16.248 -0.5660  0.3047  0.3201
 8359TIP3    H146492   0.560   4.062  16.159 -0.2871 -0.7495  0.0225
 8359TIP3    H246493   0.555   3.960  16.271  0.9025 -0.2811  0.5141
 8360TIP3   OH246494   3.299   6.678   1.731  0.4462  0.0595 -0.4459
 8360TIP3    H146495   3.319   6.745   1.666 -0.2100  1.4419  0.7500
 8360TIP3    H246496   3.303   6.723   1.815 -0.2699 -1.3376  0.3687
 8361TIP3   OH246497   6.411   1.632  11.668 -0.1806 -0.6293 -0.0776
 8361TIP3    H146498   6.386   1.711  11.716 -0.1791 -1.1373  0.7738
 8361TIP3    H246499   6.498   1.652  11.633 -0.2485 -0.1935 -0.0022
 8362TIP3   OH246500   5.441   5.186  15.563  0.4070  0.3092 -0.5713
 8362TIP3    H146501   5.378   5.117  15.543  0.5727 -0.3151  1.0040
 8362TIP3    H246502   5.428   5.252  15.495 -0.3210 -0.8987 -1.6073
 8363TIP3   OH246503   1.925   0.290  15.113 -0.2137 -0.6398 -0.0675
 8363TIP3    H146504   2.019   0.310  15.118 -0.3772  0.4750 -1.1617
 8363TIP3    H246505   1.893   0.305  15.202  0.2994  0.8752 -0.1053
 8364TIP3   OH246506   3.944   5.229  12.482  0.3466 -0.1308 -0.1372
 8364TIP3    H146507   3.973   5.309  12.526  0.2187  0.4697 -1.1427
 8364TIP3    H246508   3.850   5.241  12.469  0.3818 -0.3097 -0.5663
 8365TIP3   OH246509   6.490   6.221   6.232  0.0525 -0.0289 -0.5703
 8365TIP3    H146510   6.542   6.294   6.265 -0.4957  0.5699 -1.0260
 8365TIP3    H246511   6.421   6.209   6.298  0.7108 -0.7862  0.0052
 8366TIP3   OH246512   0.189   1.089   5.692  0.3751  0.2040  0.3385
 8366TIP3    H146513   0.095   1.107   5.700  0.0808 -0.6881 -0.9753
 8366TIP3    H246514   0.225   1.169   5.654 -0.4185 -0.7208 -2.4360
 8367TIP3   OH246515   0.967   1.514   2.843 -1.0291 -0.4862  0.3704
 8367TIP3    H146516   1.057   1.541   2.859 -0.9207  0.4633 -1.6659
 8367TIP3    H246517   0.963   1.423   2.875  0.3141 -0.1480  1.5335
 8368TIP3   OH246518   4.057   2.345   2.256 -0.3694  0.1768  0.3367
 8368TIP3    H146519   4.101   2.425   2.227  0.6773 -0.2086  0.8097
 8368TIP3    H246520   4.096   2.327   2.342  0.1410 -1.3739 -0.2078
 8369TIP3   OH246521   2.221   5.330  14.304 -0.4640  0.0407  0.2435
 8369TIP3    H146522   2.245   5.319  14.212 -0.2064 -0.7776  0.4060
 8369TIP3    H246523   2.188   5.420  14.309 -0.6211  0.0427 -0.6759
 8370TIP3   OH246524   4.689   6.773  14.570 -0.0221  0.2110 -0.0628
 8370TIP3    H146525   4.660   6.844  14.513  0.4970  0.0312 -0.5491
 8370TIP3    H246526   4.766   6.809  14.615  1.1476 -0.5599 -1.4193
 8371TIP3   OH246527   2.207   3.328   2.945  1.2829  0.3891  0.1612
 8371TIP3    H146528   2.264   3.363   2.876  1.0740  0.6397  0.1127
 8371TIP3    H246529   2.258   3.337   3.025  1.2418  0.7787  0.1441
 8372TIP3   OH246530   2.679   2.243   2.724 -0.0173 -0.1365  0.3578
 8372TIP3    H146531   2.757   2.259   2.671 -0.2865  1.1744  0.3441
 8372TIP3    H246532   2.700   2.164   2.775  0.8976 -0.4125 -0.4278
 8373TIP3   OH246533   0.115   1.684  12.418  0.1763  0.1630 -0.9307
 8373TIP3    H146534   0.034   1.676  12.468  1.1042 -0.2184  0.5392
 8373TIP3    H246535   0.090   1.663  12.328 -1.4634  0.6048 -0.5886
 8374TIP3   OH246536   3.184   2.198   0.039  0.2268 -0.0561  0.3223
 8374TIP3    H146537   3.221   2.110   0.045  0.6969  0.1998  1.4950
 8374TIP3    H246538   3.154   2.207  -0.051 -1.1677 -1.9506  0.5731
 8375TIP3   OH246539   4.215   3.289   6.511 -0.1545  0.3056 -0.2673
 8375TIP3    H146540   4.143   3.342   6.477 -0.1868  0.0831 -0.5464
 8375TIP3    H246541   4.179   3.200   6.517 -0.0490  0.2806  0.0410
 8376TIP3   OH246542   3.297   6.515   2.837  0.3555  0.3961  0.1906
 8376TIP3    H146543   3.326   6.424   2.826 -0.4173  0.3202 -1.3098
 8376TIP3    H246544   3.369   6.567   2.803  0.1032  0.3036 -0.4798
 8377TIP3   OH246545   1.137   3.327  14.384 -0.0953 -0.1316 -0.6930
 8377TIP3    H146546   1.122   3.250  14.328 -1.8516 -0.2206 -0.1356
 8377TIP3    H246547   1.115   3.298  14.472 -0.6404  0.9597 -0.4530
 8378TIP3   OH246548   5.059   4.818   0.748 -0.2120  0.1897  0.7323
 8378TIP3    H146549   5.096   4.866   0.674 -0.7282 -0.4681  0.0442
 8378TIP3    H246550   4.981   4.776   0.714 -0.9508  0.5975  1.8833
 8379TIP3   OH246551   2.884   6.173  16.896 -0.6500 -0.0013  0.1680
 8379TIP3    H146552   2.977   6.176  16.921 -0.7372  2.2081  0.3743
 8379TIP3    H246553   2.876   6.096  16.840  1.5415  0.3566 -0.6760
 8380TIP3   OH246554   2.652   4.738   4.131  0.0808 -0.5342  0.0705
 8380TIP3    H146555   2.676   4.755   4.222 -2.2972  1.1449  0.4272
 8380TIP3    H246556   2.574   4.682   4.136  0.2934 -0.9407 -0.9527
 8381TIP3   OH246557   6.153   6.771  16.587  0.1846 -0.1001 -0.1988
 8381TIP3    H146558   6.067   6.773  16.547  0.4466  3.5746 -0.7498
 8381TIP3    H246559   6.213   6.748  16.516 -0.1301 -0.7705 -0.2473
 8382TIP3   OH246560   4.239   2.303   5.024 -0.4798 -0.0002 -0.4099
 8382TIP3    H146561   4.322   2.297   5.071 -0.6791  0.6072  0.0337
 8382TIP3    H246562   4.179   2.247   5.074 -0.1287 -1.1251 -1.2188
 8383TIP3   OH246563   5.764   3.770   6.526  0.0833 -0.6225 -0.7046
 8383TIP3    H146564   5.842   3.814   6.491  0.7827  1.1099  2.7500
 8383TIP3    H246565   5.794   3.731   6.609 -2.1715 -1.9620 -0.4748
 8384TIP3   OH246566   1.831   3.250  10.546  0.5950 -0.1578 -0.6081
 8384TIP3    H146567   1.812   3.314  10.478 -0.2537 -0.3427 -0.5526
 8384TIP3    H246568   1.826   3.299  10.628 -1.6692 -0.5953 -0.4340
 8385TIP3   OH246569   0.352   3.504   4.372 -0.5996  0.2078  0.0208
 8385TIP3    H146570   0.287   3.552   4.424  1.8563  4.0791 -0.2997
 8385TIP3    H246571   0.368   3.559   4.296  2.2529 -1.1785 -0.4530
 8386TIP3   OH246572   4.880   0.952  16.835 -0.1395 -0.1905 -0.7262
 8386TIP3    H146573   4.800   0.978  16.790 -0.7983 -0.3075  0.3594
 8386TIP3    H246574   4.855   0.875  16.886  0.5264  0.0863  0.0324
 8387TIP3   OH246575   0.260   4.491   4.306 -0.3444 -0.2001  0.1830
 8387TIP3    H146576   0.176   4.522   4.340 -0.2547  0.5096 -0.2542
 8387TIP3    H246577   0.310   4.468   4.385 -0.3804  0.8295  0.5095
 8388TIP3   OH246578   1.463   4.737  12.220 -0.0498 -1.1240 -0.3112
 8388TIP3    H146579   1.384   4.705  12.265 -1.1342 -2.1089 -2.8005
 8388TIP3    H246580   1.484   4.819  12.265 -2.3991 -0.9244  0.5225
 8389TIP3   OH246581   0.157   0.731   2.399  0.3600 -0.5731 -0.5450
 8389TIP3    H146582   0.064   0.709   2.405  0.3734 -0.6341 -0.5560
 8389TIP3    H246583   0.185   0.744   2.489 -0.4382  2.7430 -0.6935
 8390TIP3   OH246584   3.921   0.455   2.292  0.0631  0.0283 -0.6213
 8390TIP3    H146585   3.961   0.506   2.363  1.7466 -0.1677 -1.4138
 8390TIP3    H246586   3.907   0.368   2.329  0.0971  0.1820 -0.2476
 8391TIP3   OH246587   2.239   6.192  11.269  0.6050 -0.1265 -0.2075
 8391TIP3    H146588   2.166   6.134  11.248  0.5233 -0.5773  1.2852
 8391TIP3    H246589   2.213   6.277  11.233  0.4124 -0.8382 -1.7646
 8392TIP3   OH246590   6.364   2.853  16.120 -0.1745  0.0942  0.1029
 8392TIP3    H146591   6.340   2.806  16.041 -0.1122 -1.2101  0.8379
 8392TIP3    H246592   6.459   2.846  16.125 -0.3258 -1.4909  1.2759
 8393TIP3   OH246593   5.202   3.198  12.704 -0.0761 -0.6116  0.2979
 8393TIP3    H146594   5.130   3.152  12.747  0.7557 -2.1028  0.1363
 8393TIP3    H246595   5.267   3.211  12.773 -1.4705  2.9481  1.0551
 8394TIP3   OH246596   6.762   2.659  14.486 -0.3501  0.5916  0.2967
 8394TIP3    H146597   6.807   2.609  14.555 -1.5444 -0.2574  0.4732
 8394TIP3    H246598   6.758   2.748  14.520  4.3352  1.5361 -1.2246
 8395TIP3   OH246599   3.867   3.162  11.497  0.1596 -0.2842  0.0045
 8395TIP3    H146600   3.960   3.137  11.496 -0.0838 -1.3816  2.3662
 8395TIP3    H246601   3.822   3.088  11.458  0.2762  0.3685 -1.4075
 8396TIP3   OH246602   2.184   1.188   1.716  0.5073  0.0019  0.0531
 8396TIP3    H146603   2.186   1.157   1.626 -2.4501 -0.6336  0.1565
 8396TIP3    H246604   2.246   1.132   1.763 -1.1945 -2.5997 -0.7157
 8397TIP3   OH246605   0.006   4.108   6.290  0.1862 -0.0371 -0.0144
 8397TIP3    H146606   0.087   4.156   6.273  1.0710 -1.2196  0.8065
 8397TIP3    H246607  -0.003   4.048   6.216  0.1289  0.0055 -0.0414
 8398TIP3   OH246608   3.581   5.076   3.574 -0.1301  0.8065 -0.3667
 8398TIP3    H146609   3.617   5.001   3.527 -0.7135 -0.8602  1.7929
 8398TIP3    H246610   3.492   5.086   3.539 -0.0892  0.4329 -0.5779
 8399TIP3   OH246611   3.431   5.470  17.088  0.0743 -0.7876  0.3073
 8399TIP3    H146612   3.500   5.499  17.029  1.4910 -2.5222  1.0558
 8399TIP3    H246613   3.350   5.484  17.039  0.9421  1.1173 -0.6431
 8400TIP3   OH246614   5.622   1.646  15.819 -0.7000 -0.2744  0.6665
 8400TIP3    H146615   5.567   1.568  15.823  0.3288 -0.9719  1.4851
 8400TIP3    H246616   5.607   1.690  15.903 -0.4173 -0.1876  0.6712
 8401TIP3   OH246617   3.514   1.563  15.515 -0.3336 -0.3905 -0.2475
 8401TIP3    H146618   3.505   1.655  15.492 -1.3758 -0.4458 -0.0723
 8401TIP3    H246619   3.581   1.562  15.584 -0.8097  0.3076  0.2329
 8402TIP3   OH246620   0.694   6.263   0.651  0.4157  0.7377  0.2734
 8402TIP3    H146621   0.747   6.321   0.706  0.6240  0.4105  0.4224
 8402TIP3    H246622   0.724   6.174   0.674  0.8644  0.6205 -0.7451
 8403TIP3   OH246623   6.054   5.353   2.157 -0.2481  0.8552 -0.0871
 8403TIP3    H146624   6.145   5.368   2.180 -0.2037  2.0731 -1.0022
 8403TIP3    H246625   6.050   5.367   2.062 -1.8562  3.3668  0.2848
 8404TIP3   OH246626   4.718   5.462  11.992  0.1179 -0.5141 -0.2915
 8404TIP3    H146627   4.712   5.386  11.935 -0.2100 -1.8390  1.4772
 8404TIP3    H246628   4.807   5.458  12.028 -0.1650 -0.5167  0.4168
 8405TIP3   OH246629   5.395   3.078   0.745 -0.5900  0.4693  0.6154
 8405TIP3    H146630   5.429   2.996   0.781  0.3670  0.5426 -0.0702
 8405TIP3    H246631   5.431   3.081   0.656 -0.7968  1.5246  0.5603
 8406TIP3   OH246632   5.674   2.785   5.220  0.1750  0.1885  0.3181
 8406TIP3    H146633   5.668   2.690   5.237 -0.1458  0.0531 -0.5352
 8406TIP3    H246634   5.583   2.814   5.215  0.2745  0.4945  0.2919
 8407TIP3   OH246635   0.361   3.414  14.004  0.2769 -0.2285  0.1729
 8407TIP3    H146636   0.399   3.329  14.029  0.6741  0.0045  0.3559
 8407TIP3    H246637   0.288   3.391  13.947  1.5964 -0.6353 -1.3887
 8408TIP3   OH246638   1.878   3.859  12.441 -0.4253  0.0020  0.0306
 8408TIP3    H146639   1.905   3.806  12.517 -1.1587 -0.1715  0.1702
 8408TIP3    H246640   1.949   3.847  12.377  0.7401  1.0277  1.0995
 8409TIP3   OH246641   2.840   2.624   4.351  0.2778 -0.0806 -0.1141
 8409TIP3    H146642   2.896   2.549   4.333  0.4600 -0.2443  1.1572
 8409TIP3    H246643   2.817   2.658   4.264  1.9954 -0.2667 -0.6458
 8410TIP3   OH246644   6.516   4.150   2.871 -0.0168  0.0951 -0.1353
 8410TIP3    H146645   6.422   4.143   2.887 -0.3030  3.7055  0.1519
 8410TIP3    H246646   6.538   4.070   2.822 -3.2571 -0.6929 -0.4268
 8411TIP3   OH246647   2.540   6.070  14.314  0.1556 -0.2458  0.2049
 8411TIP3    H146648   2.465   6.089  14.370  2.5109  0.7105  3.2647
 8411TIP3    H246649   2.517   6.106  14.229 -2.7332  0.2341  1.1385
 8412TIP3   OH246650   4.958   4.211   1.703 -0.2404  0.3225  0.0484
 8412TIP3    H146651   4.956   4.195   1.797 -1.9111  1.9342  0.3193
 8412TIP3    H246652   4.975   4.125   1.665 -0.0770 -0.4461  1.7887
 8413TIP3   OH246653   1.529   5.079   2.633  0.9964  0.0836 -0.4361
 8413TIP3    H146654   1.579   5.107   2.556  0.8446 -0.6034 -0.7918
 8413TIP3    H246655   1.539   5.150   2.696  2.6484 -0.1732 -0.3990
 8414TIP3   OH246656   0.531   3.879  15.134  0.1158  0.3305  0.1929
 8414TIP3    H146657   0.472   3.807  15.153  1.2751 -0.3589  1.2855
 8414TIP3    H246658   0.598   3.874  15.203  0.9590  1.6081 -0.5084
 8415TIP3   OH246659   0.717   6.262   2.382 -1.0040 -0.4246  0.0507
 8415TIP3    H146660   0.763   6.249   2.299 -0.5004 -0.2752  0.3017
 8415TIP3    H246661   0.660   6.338   2.367 -1.7952 -1.1270 -0.5213
 8416TIP3   OH246662   5.123   5.943  13.863 -0.2125  0.2615  0.1883
 8416TIP3    H146663   5.179   5.871  13.890 -0.9587 -0.6495 -0.6461
 8416TIP3    H246664   5.166   6.022  13.896  0.3697 -0.5993  1.4913
 8417TIP3   OH246665   4.149   4.511  12.064 -0.0593  0.1955 -0.2370
 8417TIP3    H146666   4.202   4.436  12.092 -0.1489  0.8755  1.8371
 8417TIP3    H246667   4.186   4.586  12.111 -1.3761  1.0621 -0.5481
 8418TIP3   OH246668   1.394   4.163  13.684 -0.4280 -0.0962  0.4003
 8418TIP3    H146669   1.442   4.242  13.659  2.1142 -1.9980 -0.9491
 8418TIP3    H246670   1.405   4.156  13.779 -0.0270  0.7438  0.4182
 8419TIP3   OH246671   4.586   4.840  12.739  0.0035  0.4220 -0.6419
 8419TIP3    H146672   4.531   4.795  12.675  1.9511 -1.9925 -0.6997
 8419TIP3    H246673   4.545   4.821  12.823 -1.5636  2.1251 -0.9885
 8420TIP3   OH246674   1.636   1.109   5.141  0.2858 -0.0517 -0.5745
 8420TIP3    H146675   1.655   1.202   5.152  4.6381 -0.8574 -0.6872
 8420TIP3    H246676   1.594   1.083   5.223  2.0533  1.2735  0.7709
 8421TIP3   OH246677   6.270   0.542  15.963  0.3077  0.6594  0.1298
 8421TIP3    H146678   6.342   0.499  16.008  0.7260  0.6784 -0.5103
 8421TIP3    H246679   6.192   0.493  15.989  0.6291  0.2696  0.3525
 8422TIP3   OH246680   1.527   0.176   4.746 -0.5729  0.2759 -0.2150
 8422TIP3    H146681   1.559   0.139   4.828  0.1321  2.4336  0.5096
 8422TIP3    H246682   1.432   0.169   4.753 -0.4605 -1.3063 -0.0628
 8423TIP3   OH246683   0.810   4.754   4.008  0.4305 -0.3476  0.0306
 8423TIP3    H146684   0.782   4.753   4.100  0.8059  3.0981  0.2756
 8423TIP3    H246685   0.826   4.663   3.986  0.0101 -1.2659  3.3014
 8424TIP3   OH246686   3.873   3.720   1.289  0.1896  0.1703 -0.1057
 8424TIP3    H146687   3.909   3.802   1.322 -0.3554  0.3803 -0.0154
 8424TIP3    H246688   3.778   3.733   1.292 -0.0183 -1.6388  2.9367
 8425TIP3   OH246689   1.998   1.490   1.628 -0.2171 -0.4868  0.0066
 8425TIP3    H146690   1.976   1.416   1.685  1.1745 -0.6861  0.3117
 8425TIP3    H246691   2.085   1.518   1.658 -0.9735  1.6508  0.2912
 8426TIP3   OH246692   5.663   4.320   3.512 -0.2833  0.6178 -0.3101
 8426TIP3    H146693   5.602   4.362   3.451 -2.3422 -1.6961  0.0772
 8426TIP3    H246694   5.666   4.229   3.483  1.7734  0.3684  0.6656
 8427TIP3   OH246695   0.544   2.331   0.208 -0.0080  0.9624 -0.5833
 8427TIP3    H146696   0.502   2.268   0.149  0.5086  0.1108 -0.0494
 8427TIP3    H246697   0.522   2.417   0.171 -3.4753  0.6216  0.5196
 8428TIP3   OH246698   3.991   2.163  15.228 -0.2865  0.2297  0.3658
 8428TIP3    H146699   3.938   2.100  15.277  0.0486 -1.3226 -1.2091
 8428TIP3    H246700   3.929   2.228  15.195 -0.9005 -0.3303  0.4214
 8429TIP3   OH246701   2.240   6.110   3.682  0.4322 -0.1033 -0.2192
 8429TIP3    H146702   2.223   6.035   3.738  0.3709 -1.1535 -1.6060
 8429TIP3    H246703   2.160   6.120   3.630  0.8484  0.2241 -0.8116
 8430TIP3   OH246704   5.882   3.342  11.355  0.2077 -0.7100  0.3781
 8430TIP3    H146705   5.883   3.336  11.259 -0.5487  0.7890  0.2599
 8430TIP3    H246706   5.791   3.322  11.379  0.4308 -1.2273  0.8021
 8431TIP3   OH246707   2.807   3.734   0.956 -0.4099  0.2547 -0.0380
 8431TIP3    H146708   2.848   3.718   1.041 -0.4682 -1.6125 -0.3297
 8431TIP3    H246709   2.875   3.713   0.892  0.5168  4.2104 -0.4885
 8432TIP3   OH246710   2.013   0.822  12.754 -0.1698  0.8481 -0.1858
 8432TIP3    H146711   2.042   0.768  12.828  0.9411  0.9733 -0.5171
 8432TIP3    H246712   1.976   0.901  12.795 -0.2231  0.5973  0.2529
 8433TIP3   OH246713   5.267   1.519  14.998 -0.0965 -0.0590 -0.3537
 8433TIP3    H146714   5.268   1.515  14.902 -0.4811  2.4417 -0.4946
 8433TIP3    H246715   5.177   1.544  15.019  0.1085 -0.1595  0.6340
 8434TIP3   OH246716   2.669   4.753   4.645  0.1143 -0.4936  1.1091
 8434TIP3    H146717   2.651   4.845   4.662 -0.9212 -0.1044 -1.7958
 8434TIP3    H246718   2.593   4.706   4.679 -0.7942  0.0280 -0.1727
 8435TIP3   OH246719   1.506   5.124   4.981 -0.3567  0.6292  0.4420
 8435TIP3    H146720   1.435   5.084   4.931  1.9445  0.2499 -2.6792
 8435TIP3    H246721   1.491   5.218   4.974 -1.6518  0.5157  1.5286
 8436TIP3   OH246722   6.019   4.000   5.661  0.0254  0.1202 -0.6343
 8436TIP3    H146723   5.977   4.082   5.633  0.1781  1.0877  1.8486
 8436TIP3    H246724   6.113   4.020   5.661  0.0231  0.1956  0.6224
 8437TIP3   OH246725   4.908   0.182   0.385 -0.4677  0.0601  0.0385
 8437TIP3    H146726   4.982   0.186   0.446  0.7207 -1.2456 -1.2478
 8437TIP3    H246727   4.838   0.231   0.428  1.1215  1.2736  1.3295
 8438TIP3   OH246728   2.320   4.754  11.214  0.0893  0.3237  0.3242
 8438TIP3    H146729   2.378   4.823  11.182  1.0996  0.2133  1.8396
 8438TIP3    H246730   2.360   4.673  11.183  1.6034  0.1584  2.5980
 8439TIP3   OH246731   1.856   0.485   1.669 -0.2666  0.0729  0.7530
 8439TIP3    H146732   1.923   0.422   1.693  0.5623  0.1931 -1.1662
 8439TIP3    H246733   1.798   0.489   1.746  0.8909 -1.3632  1.7274
 8440TIP3   OH246734   6.305   2.835  11.308  0.2002 -0.3823  0.3379
 8440TIP3    H146735   6.266   2.777  11.243  1.8827  2.3077 -3.2273
 8440TIP3    H246736   6.396   2.806  11.315  0.9134  1.3690 -1.0841
 8441TIP3   OH246737   1.510   3.840  15.309  0.9216 -0.2233  0.4111
 8441TIP3    H146738   1.533   3.928  15.339  0.1127 -0.1824  0.9471
 8441TIP3    H246739   1.529   3.783  15.384 -0.6537 -0.1895  0.8488
 8442TIP3   OH246740   4.078   5.831  13.321 -0.1480 -0.2947 -0.4658
 8442TIP3    H146741   3.996   5.794  13.354  0.4049 -1.5777 -0.5064
 8442TIP3    H246742   4.142   5.762  13.333  0.9276  0.6730 -0.5153
 8443TIP3   OH246743   1.977   3.809   3.263 -0.1123 -0.0697 -0.0947
 8443TIP3    H146744   2.030   3.765   3.197 -1.8264 -0.2780 -1.3798
 8443TIP3    H246745   2.008   3.899   3.263  0.3463 -0.2287 -0.7215
 8444TIP3   OH246746   5.186   1.414  10.768  0.0290 -0.5506  0.4135
 8444TIP3    H146747   5.247   1.430  10.696 -0.4634  1.4886  0.4057
 8444TIP3    H246748   5.150   1.327  10.751  1.3529 -0.8866 -0.7297
 8445TIP3   OH246749   4.706   2.547  14.963 -0.0643 -0.1819 -0.3018
 8445TIP3    H146750   4.765   2.477  14.933  0.0632  0.2554 -1.0724
 8445TIP3    H246751   4.760   2.601  15.020 -0.1958 -0.7791  0.3942
 8446TIP3   OH246752   6.022   5.580  16.007  0.1341 -0.1074  1.0753
 8446TIP3    H146753   6.014   5.656  15.949  0.7821 -0.5362  0.4030
 8446TIP3    H246754   6.018   5.505  15.948  0.0700 -0.5725  1.6722
 8447TIP3   OH246755   3.077   6.758   3.753 -0.8699  0.2070  0.0805
 8447TIP3    H146756   3.041   6.714   3.676  1.2075 -0.0346 -0.7660
 8447TIP3    H246757   3.094   6.687   3.815  0.2080  0.0840 -0.3573
 8448TIP3   OH246758   2.009   1.544  15.094 -0.3878 -0.6000  0.4997
 8448TIP3    H146759   1.931   1.510  15.051 -1.3884  0.4789  1.4091
 8448TIP3    H246760   1.978   1.571  15.180  0.5457  1.7201  0.1396
 8449TIP3   OH246761   3.040   3.911  11.689  0.0403 -0.0833 -0.2398
 8449TIP3    H146762   3.014   3.850  11.620 -1.1682  1.6860 -1.4008
 8449TIP3    H246763   3.089   3.979  11.642 -0.2847  0.8332  0.7452
 8450TIP3   OH246764   3.648   4.425   3.936  0.5785  0.2717 -0.5460
 8450TIP3    H146765   3.634   4.408   4.029  1.1363 -1.1504 -0.6973
 8450TIP3    H246766   3.595   4.502   3.917  1.2518  1.1954  1.1762
 8451TIP3   OH246767   6.089   1.082   0.315  0.0988 -0.4013  0.2907
 8451TIP3    H146768   6.160   1.084   0.380  0.3059 -0.1415  0.0577
 8451TIP3    H246769   6.012   1.055   0.365  0.3065 -0.4240  0.6011
 8452TIP3   OH246770   3.839   3.035   4.079 -0.4222  0.2389  0.0227
 8452TIP3    H146771   3.820   2.948   4.113 -0.6613  0.2854  0.0074
 8452TIP3    H246772   3.903   3.021   4.009  0.2655  0.1640  0.6564
 8453TIP3   OH246773   4.851   5.866  13.889  0.0865  0.2280 -0.0052
 8453TIP3    H146774   4.829   5.891  13.978 -1.0861 -2.9162  0.6098
 8453TIP3    H246775   4.947   5.871  13.886  0.3104 -2.0984  2.1970
 8454TIP3   OH246776   2.817   3.445  15.469  0.1256 -0.0759 -0.3957
 8454TIP3    H146777   2.827   3.500  15.390  0.1705  1.2260  0.4980
 8454TIP3    H246778   2.881   3.481  15.531  0.8283 -1.7693 -0.1256
 8455TIP3   OH246779   0.101   6.029  12.952 -0.1685 -0.5318  0.6394
 8455TIP3    H146780   0.190   6.009  12.924  0.7557  0.2511  2.8468
 8455TIP3    H246781   0.111   6.106  13.008 -2.0727 -1.1593  1.8880
 8456TIP3   OH246782   4.247   4.031  12.344  0.3018  0.2450 -0.3308
 8456TIP3    H146783   4.198   4.048  12.424 -0.3396  0.2709 -0.7279
 8456TIP3    H246784   4.187   3.982  12.288  1.0403 -0.5245 -0.4622
 8457TIP3   OH246785   1.563   5.504   4.262 -0.5865  0.1378 -0.2358
 8457TIP3    H146786   1.480   5.507   4.214 -0.4503  0.3538 -0.4575
 8457TIP3    H246787   1.619   5.567   4.217  0.3350 -1.4029 -1.2916
 8458TIP3   OH246788   1.633   3.402   1.377 -0.4256  0.4612 -0.1621
 8458TIP3    H146789   1.705   3.339   1.368 -1.2645 -0.4270 -0.7325
 8458TIP3    H246790   1.559   3.351   1.409 -1.2062  1.0975 -0.9157
 8459TIP3   OH246791   3.029   2.941  15.654 -0.1970 -0.5524 -0.6837
 8459TIP3    H146792   2.951   2.903  15.696  0.0513 -0.1410  0.1469
 8459TIP3    H246793   2.996   3.018  15.609 -0.0792  0.2834  0.6321
 8460TIP3   OH246794   0.953   2.073   1.363 -0.3143  0.4255  0.7993
 8460TIP3    H146795   0.964   2.078   1.457  1.5277 -0.2783  0.6405
 8460TIP3    H246796   1.033   2.032   1.331 -0.6180  1.2724 -1.1443
 8461TIP3   OH246797   0.515   0.851   5.706 -0.3536 -0.2500 -0.1809
 8461TIP3    H146798   0.483   0.773   5.660  0.0858  0.1787 -1.2114
 8461TIP3    H246799   0.549   0.817   5.789 -0.7413 -1.0744 -0.3509
 8462TIP3   OH246800   3.097   2.678  13.439 -0.2500  0.2283 -0.0496
 8462TIP3    H146801   3.169   2.617  13.421  0.7451  1.0786  0.9765
 8462TIP3    H246802   3.053   2.640  13.515  0.2938  0.7151  0.5129
 8463TIP3   OH246803   0.266   4.814  14.027 -0.5321 -0.0717 -0.0460
 8463TIP3    H146804   0.205   4.779  13.962 -0.3467  0.6088 -0.5964
 8463TIP3    H246805   0.348   4.768  14.009  0.0849  1.5773 -1.6557
 8464TIP3   OH246806   4.376   1.347  12.100 -0.2039  0.3853 -0.4931
 8464TIP3    H146807   4.376   1.438  12.130 -1.9019  0.2469  0.0179
 8464TIP3    H246808   4.315   1.347  12.026 -0.4549 -0.3970 -0.2837
 8465TIP3   OH246809   1.772   3.009   2.016 -0.6127  1.2347  0.4463
 8465TIP3    H146810   1.810   2.950   2.081 -1.5197  0.5247  0.3466
 8465TIP3    H246811   1.843   3.027   1.955 -0.6150 -0.6573 -0.1445
 8466TIP3   OH246812   6.331   6.526   4.657  0.0236 -0.1841  0.4462
 8466TIP3    H146813   6.417   6.565   4.640 -0.4092 -0.6038 -3.0996
 8466TIP3    H246814   6.346   6.432   4.652 -0.4498 -0.2824  0.8659
 8467TIP3   OH246815   5.720   6.308  11.786  0.0255  0.7146 -0.1357
 8467TIP3    H146816   5.637   6.356  11.783  1.2106  2.7329 -1.0248
 8467TIP3    H246817   5.711   6.243  11.716 -1.2473  0.1444  0.5281
 8468TIP3   OH246818   4.911   4.495  11.815 -0.7149  0.1563  0.3435
 8468TIP3    H146819   4.885   4.480  11.724 -0.8531  1.8886  0.0754
 8468TIP3    H246820   4.852   4.440  11.866 -0.7068 -0.7531 -0.6068
 8469TIP3   OH246821   5.650   3.728   4.746  0.5521 -0.2706  0.1056
 8469TIP3    H146822   5.737   3.702   4.776  0.8978 -0.9029 -1.3844
 8469TIP3    H246823   5.592   3.661   4.783  0.6341  0.3473  1.3900
 8470TIP3   OH246824   4.359   2.061  16.694  0.0947  0.5559  0.1258
 8470TIP3    H146825   4.392   2.067  16.783 -1.9330 -0.0702  0.9603
 8470TIP3    H246826   4.341   2.151  16.668 -1.3855  0.5754  1.1836
 8471TIP3   OH246827   5.664   5.998   1.354 -0.4056 -0.2885  0.1948
 8471TIP3    H146828   5.658   6.051   1.275 -1.5219  1.6618  1.5449
 8471TIP3    H246829   5.725   5.928   1.331  0.9467  1.4368 -1.7092
 8472TIP3   OH246830   0.279   2.689  16.806 -0.0042 -0.5738  0.5537
 8472TIP3    H146831   0.273   2.771  16.757 -0.0655 -0.5886  0.5372
 8472TIP3    H246832   0.369   2.688  16.839  0.4576 -1.2102 -0.6943
 8473TIP3   OH246833   2.268   2.732  11.574  0.2308  0.2262  0.1701
 8473TIP3    H146834   2.312   2.762  11.494 -0.6111  2.1033  0.3685
 8473TIP3    H246835   2.175   2.736  11.552  0.0272  0.0263  1.0121
 8474TIP3   OH246836   5.164   0.832   4.153 -0.0447  0.2483  0.3984
 8474TIP3    H146837   5.232   0.789   4.102  0.2147  1.6149 -0.4402
 8474TIP3    H246838   5.082   0.810   4.108 -0.2361 -1.7164  1.6297
 8475TIP3   OH246839   3.833   0.396   5.978  0.3023  0.2771  0.4916
 8475TIP3    H146840   3.801   0.484   5.961  0.0502  0.4010  1.5803
 8475TIP3    H246841   3.879   0.403   6.061  0.2027 -0.6330  0.6272
 8476TIP3   OH246842   3.894   1.747   4.473  1.0222 -0.0691  0.0481
 8476TIP3    H146843   3.959   1.805   4.513  1.3403  0.0209 -0.5903
 8476TIP3    H246844   3.864   1.795   4.395 -0.7709  0.4688  1.0399
 8477TIP3   OH246845   2.301   1.326  14.114  0.0748  0.2741  0.7589
 8477TIP3    H146846   2.334   1.239  14.136  0.4667  0.0806 -0.5239
 8477TIP3    H246847   2.232   1.309  14.049 -0.7105  0.8423  1.4393
 8478TIP3   OH246848   4.117   6.062  13.467 -0.2765 -0.0427 -0.0473
 8478TIP3    H146849   4.088   6.044  13.556  1.8144 -0.1602  0.6333
 8478TIP3    H246850   4.107   5.979  13.421  1.2378 -0.7251  0.8265
 8479TIP3   OH246851   3.802   1.054   3.404  0.3078 -0.2628 -0.0643
 8479TIP3    H146852   3.716   1.013   3.401  0.9581 -1.7713  1.5073
 8479TIP3    H246853   3.852   1.011   3.333 -0.0989  0.3458 -0.7272
 8480TIP3   OH246854   5.229   4.971   5.612  0.0278  0.3462  0.1102
 8480TIP3    H146855   5.310   4.937   5.574 -0.8560 -1.1835 -0.4294
 8480TIP3    H246856   5.257   5.048   5.663  1.8814 -0.4878  0.3939
 8481TIP3   OH246857   4.205   4.518   4.049 -0.4510 -0.0638  0.5269
 8481TIP3    H146858   4.115   4.496   4.024 -0.8419  1.1633  0.7880
 8481TIP3    H246859   4.195   4.577   4.124  0.6205 -1.1026  1.5047
 8482TIP3   OH246860   2.718   3.757  12.174 -0.0173 -0.4045 -0.1507
 8482TIP3    H146861   2.698   3.840  12.131 -0.2313  0.4491  1.5548
 8482TIP3    H246862   2.805   3.734  12.143 -0.2904  0.0428 -1.2655
 8483TIP3   OH246863   1.637   3.777   1.896 -0.0643  0.6933  0.1757
 8483TIP3    H146864   1.609   3.867   1.879 -1.8991  0.1892  0.4881
 8483TIP3    H246865   1.563   3.723   1.870  1.8749 -0.9191 -2.2678
 8484TIP3   OH246866   0.143   2.904  15.134 -0.7637  0.1076 -0.0319
 8484TIP3    H146867   0.185   2.857  15.206  0.6280  1.7330  0.2615
 8484TIP3    H246868   0.190   2.875  15.056 -0.5836  0.2430  0.0267
 8485TIP3   OH246869   1.793   4.595  14.382 -0.2558 -0.0163  0.2487
 8485TIP3    H146870   1.735   4.521  14.402  1.6863 -1.5485  0.4224
 8485TIP3    H246871   1.804   4.590  14.287  2.0762 -1.7087  0.5608
 8486TIP3   OH246872   1.296   1.804  11.415 -0.2860  0.3746 -0.0377
 8486TIP3    H146873   1.366   1.846  11.365  0.1044  0.2423  0.3995
 8486TIP3    H246874   1.328   1.715  11.431 -0.6796  0.2218 -0.0870
 8487TIP3   OH246875   4.244   1.516  16.628 -0.2111 -0.0970 -0.0325
 8487TIP3    H146876   4.259   1.422  16.641  2.8541  0.4283  0.8149
 8487TIP3    H246877   4.332   1.551  16.612 -0.7683  3.1727  3.4803
 8488TIP3   OH246878   5.483   4.474   3.690  0.4729 -0.3088  0.1331
 8488TIP3    H146879   5.547   4.476   3.619  0.4649  1.8981  0.1417
 8488TIP3    H246880   5.432   4.554   3.678 -0.4843 -0.6518  1.7767
 8489TIP3   OH246881   0.617   5.789  12.402 -0.0453  0.4536 -0.3723
 8489TIP3    H146882   0.703   5.809  12.365  0.5830  0.4949  1.0488
 8489TIP3    H246883   0.579   5.874  12.423 -0.8392  0.4765 -1.8600
 8490TIP3   OH246884   6.406   2.088  12.184  0.0862 -0.2823  0.3663
 8490TIP3    H146885   6.412   2.148  12.110 -0.7144  1.4911  1.6942
 8490TIP3    H246886   6.490   2.041  12.183 -0.3221 -1.0377 -2.2432
 8491TIP3   OH246887   5.514   5.444  12.060  0.0270 -0.0711  0.1062
 8491TIP3    H146888   5.485   5.533  12.078  1.5072  0.5927 -0.7300
 8491TIP3    H246889   5.480   5.392  12.133 -1.5455  1.0252  0.1656
 8492TIP3   OH246890   0.207   3.415   5.307 -0.1270 -0.3733  0.5496
 8492TIP3    H146891   0.267   3.447   5.240  1.5832 -1.8600  1.3418
 8492TIP3    H246892   0.125   3.399   5.260  0.3862  0.7186 -0.7336
 8493TIP3   OH246893   5.666   5.882   2.466 -0.5034 -0.1403 -0.1419
 8493TIP3    H146894   5.755   5.911   2.449 -1.0916  1.2671 -0.8486
 8493TIP3    H246895   5.616   5.907   2.388 -1.7180 -0.0564  0.6420
 8494TIP3   OH246896   0.433   3.259   1.032 -0.0179 -0.9761 -0.5114
 8494TIP3    H146897   0.448   3.165   1.046  0.8140 -0.9720 -1.3747
 8494TIP3    H246898   0.337   3.267   1.032 -0.1581 -2.1975 -2.8103
 8495TIP3   OH246899   2.511   5.871   0.513 -0.7648 -0.2035  0.3216
 8495TIP3    H146900   2.449   5.799   0.528 -0.4345 -1.1150 -2.4601
 8495TIP3    H246901   2.586   5.830   0.470  1.1221  1.1685  2.1998
 8496TIP3   OH246902   0.540   2.278   3.442 -0.0062  0.3666 -0.8982
 8496TIP3    H146903   0.552   2.248   3.352  2.4297  0.0803 -0.5287
 8496TIP3    H246904   0.533   2.374   3.435  1.8244  0.4903 -1.2762
 8497TIP3   OH246905   0.218   4.888   2.656 -0.1469 -0.2490  0.5325
 8497TIP3    H146906   0.176   4.839   2.726 -2.4723  0.6861 -0.1447
 8497TIP3    H246907   0.146   4.909   2.595  1.4958  0.5219 -1.1861
 8498TIP3   OH246908   0.292   4.914  12.433  0.5010 -0.4886  0.7036
 8498TIP3    H146909   0.226   4.968  12.477  0.8400  0.0299  0.5834
 8498TIP3    H246910   0.352   4.978  12.394  0.3074 -0.9408 -0.3546
 8499TIP3   OH246911   2.491   2.922   5.828 -0.0854  0.4933  0.6751
 8499TIP3    H146912   2.458   2.996   5.777  0.3865 -0.4378 -1.0292
 8499TIP3    H246913   2.586   2.932   5.825 -0.0714  0.9353  2.1745
 8500TIP3   OH246914   4.883   4.464  16.924  0.2469  0.3782 -0.0485
 8500TIP3    H146915   4.822   4.446  16.852  0.2287  0.2355  0.0019
 8500TIP3    H246916   4.870   4.557  16.943  3.4941  1.5649 -3.1956
 8501TIP3   OH246917   1.986   6.343  12.827  0.4948  0.2598 -0.1718
 8501TIP3    H146918   1.966   6.298  12.909 -1.1640 -1.2400 -1.3824
 8501TIP3    H246919   2.033   6.422  12.854 -1.1883  0.4500  2.3009
 8502TIP3   OH246920   1.262   1.485  12.308 -0.0450  0.1182 -0.7094
 8502TIP3    H146921   1.333   1.441  12.356 -0.4340 -1.0175 -1.1520
 8502TIP3    H246922   1.248   1.567  12.356 -0.1027 -0.7703  0.8337
 8503TIP3   OH246923   4.689   5.579  14.612  0.2245  0.3191  0.0076
 8503TIP3    H146924   4.740   5.556  14.689  2.4232 -2.6464 -2.1963
 8503TIP3    H246925   4.625   5.508  14.603 -1.8018  2.0102  0.5415
 8504TIP3   OH246926   5.467   1.384  11.925  0.3191  0.2968  0.4173
 8504TIP3    H146927   5.449   1.459  11.868 -1.4897  0.8633  1.6971
 8504TIP3    H246928   5.510   1.320  11.867 -0.5029  1.2718 -1.3105
 8505TIP3   OH246929   2.248   5.196   0.304  0.0210 -0.2644  0.2041
 8505TIP3    H146930   2.288   5.271   0.260 -0.3902  0.4152  0.9880
 8505TIP3    H246931   2.268   5.122   0.247  1.0323  0.3232 -0.2207
 8506TIP3   OH246932   5.607   4.046  12.929 -0.5644 -0.1569 -0.3920
 8506TIP3    H146933   5.562   3.990  12.867 -2.2399 -0.2728  0.8657
 8506TIP3    H246934   5.645   3.986  12.994 -1.8189  0.0877  0.6022
 8507TIP3   OH246935   0.125   6.406  15.384  0.0287  0.0561 -0.2985
 8507TIP3    H146936   0.202   6.425  15.330  1.9916  0.3851  2.4714
 8507TIP3    H246937   0.077   6.489  15.387 -0.5063 -0.1735 -2.1293
 8508TIP3   OH246938   4.853   2.963   3.590 -0.2371 -0.2954 -0.1181
 8508TIP3    H146939   4.876   3.028   3.524  1.6716  0.2306  1.0406
 8508TIP3    H246940   4.864   3.008   3.673 -1.3718 -1.3437  0.6169
 8509TIP3   OH246941   1.660   3.508   4.046  0.1286  0.3273  0.5700
 8509TIP3    H146942   1.629   3.461   4.123 -1.3438 -1.0075 -0.8248
 8509TIP3    H246943   1.729   3.452   4.010  0.4732  0.7115  0.6278
 8510TIP3   OH246944   0.422   3.604  14.628 -0.0270  0.1082  0.4157
 8510TIP3    H146945   0.373   3.523  14.620 -0.7727  0.6410 -0.4910
 8510TIP3    H246946   0.514   3.577  14.629 -0.2460 -0.6985 -0.5395
 8511TIP3   OH246947   1.256   1.999   1.242 -0.1866 -0.5864 -0.3955
 8511TIP3    H146948   1.287   2.064   1.305  0.1882 -0.6111 -0.5557
 8511TIP3    H246949   1.317   1.926   1.250 -0.0400 -0.5229 -0.9069
 8512TIP3   OH246950   0.595   6.493  15.961  0.0944 -0.6774 -0.3839
 8512TIP3    H146951   0.522   6.437  15.935  0.4993 -1.4121  0.0509
 8512TIP3    H246952   0.574   6.522  16.050 -0.3134  0.2023 -0.7584
 8513TIP3   OH246953   5.013   6.311  16.513  0.3462 -0.4571 -0.8737
 8513TIP3    H146954   4.926   6.298  16.475  0.7053 -1.3421 -1.4090
 8513TIP3    H246955   5.070   6.251  16.464  0.8957 -1.3405  0.7906
 8514TIP3   OH246956   2.714   3.725   5.769 -0.5851 -0.6254 -0.0866
 8514TIP3    H146957   2.641   3.787   5.778 -0.8861 -1.0331  0.3298
 8514TIP3    H246958   2.739   3.705   5.859  1.3691  1.0532 -0.2244
 8515TIP3   OH246959   6.250   5.169   3.756  0.0344  0.0792  0.2128
 8515TIP3    H146960   6.342   5.195   3.752  0.2482 -0.3950  1.8728
 8515TIP3    H246961   6.202   5.250   3.737  0.7483  0.9996  2.1646
 8516TIP3   OH246962   4.562   3.180   2.205  0.0525 -0.3341 -0.3268
 8516TIP3    H146963   4.494   3.199   2.269  1.6918 -0.6280  1.5380
 8516TIP3    H246964   4.524   3.111   2.149 -1.0170 -0.7832  0.9450
 8517TIP3   OH246965   4.504   3.211  13.279  0.0228  0.7632  0.2403
 8517TIP3    H146966   4.523   3.279  13.215 -0.5928  1.0394  0.3479
 8517TIP3    H246967   4.558   3.234  13.355  0.5086  0.6126 -0.0506
 8518TIP3   OH246968   6.105   5.995  12.854  0.1870  0.0603  0.2927
 8518TIP3    H146969   6.136   5.913  12.816 -0.6939  0.3044 -0.9714
 8518TIP3    H246970   6.011   5.994  12.840  0.3246  1.8762 -0.8839
 8519TIP3   OH246971   0.392   2.501  15.155  0.1510 -0.1637 -0.2333
 8519TIP3    H146972   0.429   2.544  15.232 -0.5017 -0.3367  0.1799
 8519TIP3    H246973   0.455   2.519  15.085  1.2529 -0.8284  0.5571
 8520TIP3   OH246974   0.879   1.225   3.810 -0.4553  0.0994  0.0695
 8520TIP3    H146975   0.966   1.248   3.844 -0.4555  0.7774 -0.3941
 8520TIP3    H246976   0.885   1.239   3.716 -1.5922  1.8150  0.2359
 8521TIP3   OH246977   5.245   1.690  10.625 -0.6065 -0.3788  0.0044
 8521TIP3    H146978   5.314   1.748  10.595 -1.3390  0.8015  0.5948
 8521TIP3    H246979   5.283   1.602  10.618  0.6763  0.1989 -0.3915
 8522TIP3   OH246980   5.240   4.401  13.640  0.3899 -0.2964  0.1438
 8522TIP3    H146981   5.198   4.315  13.638 -0.3897  0.0881 -1.0774
 8522TIP3    H246982   5.334   4.383  13.635  0.2967 -1.1127  1.2541
 8523TIP3   OH246983   4.258   5.001  17.051  0.7557  0.3641  0.5910
 8523TIP3    H146984   4.337   4.980  17.001  0.2874 -0.2837  0.1117
 8523TIP3    H246985   4.229   4.918  17.087 -0.2908  0.4187 -0.0942
 8524TIP3   OH246986   4.999   4.327  15.907  0.4381 -0.2402  0.0012
 8524TIP3    H146987   5.023   4.240  15.939  1.1766 -0.3512 -0.8285
 8524TIP3    H246988   5.063   4.345  15.838  0.4829  1.0844  0.3718
 8525TIP3   OH246989   1.511   5.031  12.302  0.3476  0.1252 -0.2740
 8525TIP3    H146990   1.589   5.003  12.349 -0.0046 -0.2884  0.0654
 8525TIP3    H246991   1.544   5.085  12.230  1.0354 -1.3643 -1.0844
 8526TIP3   OH246992   3.195   0.040   0.879 -0.1202 -0.8004  0.0559
 8526TIP3    H146993   3.156   0.079   0.958 -0.9454 -1.3963 -0.0542
 8526TIP3    H246994   3.286   0.069   0.881 -0.7698  1.3572 -0.1505
 8527TIP3   OH246995   3.432   0.234  16.229 -0.1241 -0.1035  0.1698
 8527TIP3    H146996   3.424   0.200  16.140 -0.2411  1.4797 -0.4406
 8527TIP3    H246997   3.496   0.176  16.271  2.6800  1.2484 -2.0430
 8528TIP3   OH246998   5.872   2.586   3.253 -0.1175 -0.2194 -0.6994
 8528TIP3    H146999   5.838   2.568   3.341 -0.8651 -3.1094 -1.5429
 8528TIP3    H247000   5.965   2.607   3.267  0.0460 -1.8077  0.6623
 8529TIP3   OH247001   1.418   2.537  14.783  0.1580  0.1828 -0.1824
 8529TIP3    H147002   1.366   2.463  14.814  0.1431 -0.1358 -0.9440
 8529TIP3    H247003   1.485   2.549  14.850  0.0297 -0.3830  0.0541
 8530TIP3   OH247004   4.430   3.913   5.108 -0.4129  0.2083 -0.5125
 8530TIP3    H147005   4.508   3.928   5.162  0.2018 -0.8332 -1.0986
 8530TIP3    H247006   4.408   3.999   5.074 -2.7022  1.5241  3.9129
 8531TIP3   OH247007   6.229   2.720  11.588  0.1081 -0.0486 -0.2028
 8531TIP3    H147008   6.281   2.644  11.615 -2.4202 -1.0984  1.8984
 8531TIP3    H247009   6.183   2.691  11.509 -0.8079 -0.7084  0.5635
 8532TIP3   OH247010   5.815   3.114  10.702  0.2311 -0.2573  0.1161
 8532TIP3    H147011   5.738   3.071  10.664 -1.1387  1.9717  0.2188
 8532TIP3    H247012   5.887   3.053  10.687 -0.3669  0.0880 -5.3705
 8533TIP3   OH247013   0.367   1.920  14.688  0.4786  0.2344  0.2916
 8533TIP3    H147014   0.455   1.908  14.651  1.3022  1.3031  1.8561
 8533TIP3    H247015   0.380   1.911  14.783 -1.1078  0.3599  0.5258
 8534TIP3   OH247016   5.387   0.867   5.110  0.1584 -0.6330  0.2473
 8534TIP3    H147017   5.404   0.824   5.027  0.7171  0.7875 -0.3814
 8534TIP3    H247018   5.412   0.958   5.096 -1.0695 -0.0761  1.5341
 8535TIP3   OH247019   2.707   6.201  11.449  0.1192  0.1594 -0.3117
 8535TIP3    H147020   2.618   6.207  11.485  0.5856 -2.0335  1.2833
 8535TIP3    H247021   2.696   6.214  11.355 -1.5577  2.4921  0.1514
 8536TIP3   OH247022   6.109   6.243  16.246  0.5846 -0.8447  0.1780
 8536TIP3    H147023   6.018   6.271  16.240  0.6656 -0.7884 -1.0675
 8536TIP3    H247024   6.137   6.237  16.154  1.0756 -3.3159  0.4795
 8537TIP3   OH247025   4.587   5.842   3.078 -0.0244 -0.2551 -0.2326
 8537TIP3    H147026   4.572   5.934   3.099  1.7739 -0.3278  1.5980
 8537TIP3    H247027   4.571   5.796   3.161 -1.1645 -1.6238 -1.1931
 8538TIP3   OH247028   3.699   2.910   2.176  0.8287 -0.2444 -1.0430
 8538TIP3    H147029   3.769   2.856   2.139  0.0822 -2.7298  0.9966
 8538TIP3    H247030   3.716   2.910   2.270 -1.6074 -0.4604 -0.5653
 8539TIP3   OH247031   4.141   5.610   1.239 -0.4136 -0.3720 -0.2032
 8539TIP3    H147032   4.105   5.658   1.314 -0.7230 -0.5361 -0.2477
 8539TIP3    H247033   4.233   5.637   1.236 -0.4941 -0.0685  0.0007
 8540TIP3   OH247034   1.173   2.673  13.414 -0.1729 -0.1213 -0.2512
 8540TIP3    H147035   1.141   2.745  13.469  0.6415  0.3457 -0.3890
 8540TIP3    H247036   1.266   2.667  13.433  0.1253  0.0801 -1.6224
 8541TIP3   OH247037   3.771   0.005   5.090 -0.1773 -0.7172 -0.0490
 8541TIP3    H147038   3.831   0.013   5.164 -1.3644  0.7667  0.7834
 8541TIP3    H247039   3.699  -0.048   5.123 -0.2534 -0.8611 -0.4439
 8542TIP3   OH247040   3.257   1.874  15.902 -0.0893  0.2062  0.0123
 8542TIP3    H147041   3.264   1.943  15.836  1.5812 -0.5609 -0.6439
 8542TIP3    H247042   3.281   1.794  15.855 -0.9820 -0.6580  1.0243
 8543TIP3   OH247043   3.016   6.588  11.867 -0.5035  0.2025  0.0934
 8543TIP3    H147044   3.093   6.619  11.818 -0.1418  0.3385  0.7405
 8543TIP3    H247045   3.032   6.495  11.881  0.4460  0.5952  1.8363
 8544TIP3   OH247046   0.551   1.757   1.745 -0.4782 -0.5080  0.5580
 8544TIP3    H147047   0.585   1.832   1.697 -0.9244  0.0144  1.0629
 8544TIP3    H247048   0.473   1.730   1.695 -0.0062 -0.9803  0.0666
 8545TIP3   OH247049   4.944   4.281   5.866 -0.1996  0.6067 -0.4319
 8545TIP3    H147050   4.878   4.350   5.859 -0.5255  0.2916 -0.4457
 8545TIP3    H247051   4.917   4.230   5.942 -0.6305 -0.2227 -1.1389
 8546TIP3   OH247052   1.513   0.662  11.612 -0.2197 -0.5305 -0.6653
 8546TIP3    H147053   1.498   0.664  11.706 -0.4733 -1.1305 -0.6882
 8546TIP3    H247054   1.604   0.634  11.602 -0.3537 -1.0063 -0.6021
 8547TIP3   OH247055   0.463   6.697  17.002  0.0540 -0.2516  0.3279
 8547TIP3    H147056   0.384   6.691  17.057  0.1412  0.9711  0.6137
 8547TIP3    H247057   0.528   6.645  17.049 -0.3624 -0.6237  0.4999
 8548TIP3   OH247058   0.643   4.919  12.594  0.0341  0.1855  0.5399
 8548TIP3    H147059   0.561   4.915  12.644  0.1418 -0.6332  0.6632
 8548TIP3    H247060   0.700   4.855  12.637  0.7276  0.7271  0.4339
 8549TIP3   OH247061   3.473   2.945   5.453 -0.0302  0.1228  0.5040
 8549TIP3    H147062   3.556   2.993   5.456  0.4208 -0.6147 -0.0649
 8549TIP3    H247063   3.436   2.967   5.367  0.0005 -0.2499  0.3953
 8550TIP3   OH247064   3.276   6.707   4.774 -0.0486 -0.1587  0.0024
 8550TIP3    H147065   3.341   6.688   4.707 -0.3952  0.1871 -0.4366
 8550TIP3    H247066   3.240   6.621   4.797  2.4980 -0.6780  2.2551
 8551TIP3   OH247067   4.690   2.409   3.842  0.1407 -0.1219 -0.0135
 8551TIP3    H147068   4.625   2.358   3.891 -0.0580  0.0356 -0.1177
 8551TIP3    H247069   4.643   2.442   3.766 -0.5660  2.7916  1.6144
 8552TIP3   OH247070   0.642   2.002   1.652 -0.1338  0.5620 -0.6151
 8552TIP3    H147071   0.708   2.061   1.689  2.7907 -2.1332 -1.2608
 8552TIP3    H247072   0.626   2.036   1.564  0.8333  0.9638 -0.6437
 8553TIP3   OH247073   0.569   6.276  11.763  0.5054 -0.0438 -0.0904
 8553TIP3    H147074   0.502   6.324  11.811 -1.1179 -2.3360  0.0282
 8553TIP3    H247075   0.641   6.264  11.825  0.1764  0.6708  0.4225
 8554TIP3   OH247076   0.227   4.043  16.292 -0.3776 -0.0303 -0.2525
 8554TIP3    H147077   0.176   4.031  16.372 -0.6227 -0.7738 -0.5174
 8554TIP3    H247078   0.303   3.985  16.304 -0.4562 -0.2001 -0.5963
 8555TIP3   OH247079   3.193   5.848   2.305 -0.4471  0.4667 -0.0268
 8555TIP3    H147080   3.201   5.867   2.212  0.6092  2.0669  0.3639
 8555TIP3    H247081   3.113   5.893   2.332 -0.1577  0.9333  0.0590
 8556TIP3   OH247082   6.654   5.867   4.912  0.0740  0.2755 -0.0999
 8556TIP3    H147083   6.746   5.883   4.890  0.3693  0.4893  1.2236
 8556TIP3    H247084   6.615   5.954   4.919 -0.2807  0.1804 -0.8379
 8557TIP3   OH247085   5.196   1.175   4.974 -0.4921 -0.2005 -0.4157
 8557TIP3    H147086   5.289   1.196   4.984  0.1055 -2.5007 -0.7917
 8557TIP3    H247087   5.168   1.150   5.062 -0.7174  0.3852 -0.3239
 8558TIP3   OH247088   1.219   2.620   0.512 -0.5095 -0.7803  0.4264
 8558TIP3    H147089   1.188   2.689   0.452 -1.7962  0.4985  2.4736
 8558TIP3    H247090   1.183   2.539   0.476  0.1746 -0.2611 -1.4658
 8559TIP3   OH247091   4.003   6.094   5.647  0.7518  0.4995 -0.8826
 8559TIP3    H147092   3.958   6.167   5.689 -2.7771 -0.3576 -3.0095
 8559TIP3    H247093   3.992   6.021   5.708  1.4286  0.8916 -0.2786
 8560TIP3   OH247094   2.052   1.806  14.932  0.0380  0.4610  0.7803
 8560TIP3    H147095   2.104   1.885  14.915 -0.0736  0.3355 -0.1532
 8560TIP3    H247096   2.116   1.740  14.957  0.6803 -0.4340 -2.8819
 8561TIP3   OH247097   2.258   1.573  16.655 -0.0766 -0.4913 -0.1092
 8561TIP3    H147098   2.344   1.565  16.697  0.0658  0.8896 -0.1026
 8561TIP3    H247099   2.201   1.516  16.706  1.0264 -2.1817 -0.6943
 8562TIP3   OH247100   1.344   5.642  10.537 -0.6918 -0.6410  0.1072
 8562TIP3    H147101   1.367   5.699  10.610 -1.6283 -1.1642  0.8259
 8562TIP3    H247102   1.259   5.674  10.507  0.6684  0.9467 -2.1807
 8563TIP3   OH247103   1.476   3.406  14.908 -0.4676 -0.6570  0.1987
 8563TIP3    H147104   1.501   3.493  14.877  1.0093 -0.5162  1.7391
 8563TIP3    H247105   1.559   3.362  14.926 -1.2209 -2.0914  0.2283
 8564TIP3   OH247106   1.548   3.981   6.447 -0.1417 -0.6001  0.1036
 8564TIP3    H147107   1.635   3.952   6.423  0.1808 -0.9960  1.6537
 8564TIP3    H247108   1.542   4.071   6.415  0.8120 -0.5866 -0.0430
 8565TIP3   OH247109   3.692   6.522  17.083  0.0418 -0.5462 -0.1461
 8565TIP3    H147110   3.693   6.500  16.990  2.4424  0.3185 -0.3508
 8565TIP3    H247111   3.697   6.618  17.085  1.1037 -0.6144  0.8743
 8566TIP3   OH247112   4.298   1.577  12.626  0.4277  0.4065 -0.4606
 8566TIP3    H147113   4.293   1.625  12.709 -0.8233 -1.0543  0.3428
 8566TIP3    H247114   4.207   1.575  12.595  0.7161 -0.0407 -1.2865
 8567TIP3   OH247115   5.384   6.188   1.594 -0.1650  0.0147 -0.2590
 8567TIP3    H147116   5.407   6.156   1.506  0.6659  1.8045 -0.7094
 8567TIP3    H247117   5.294   6.158   1.607  0.6683 -2.7392 -0.5374
 8568TIP3   OH247118   3.641   0.912   5.252 -0.2831  0.3024  0.0816
 8568TIP3    H147119   3.718   0.943   5.299  0.2232 -0.6537 -0.1100
 8568TIP3    H247120   3.652   0.945   5.163  1.1401 -1.8399 -0.5913
 8569TIP3   OH247121   3.186   1.250   3.357 -0.0369  0.0403  0.7194
 8569TIP3    H147122   3.235   1.304   3.295 -0.9414  0.2619  0.1839
 8569TIP3    H247123   3.222   1.274   3.443  2.5486 -1.6696  0.1701
 8570TIP3   OH247124   0.587   3.251  11.481 -0.0114  0.9518  0.1311
 8570TIP3    H147125   0.540   3.244  11.398  2.0122  1.2016 -1.0779
 8570TIP3    H247126   0.608   3.345  11.489  3.0256  0.4251 -0.9695
 8571TIP3   OH247127   1.634   3.347  16.207 -0.2519 -0.3581 -0.4005
 8571TIP3    H147128   1.548   3.373  16.174 -1.0396 -2.3860 -0.0344
 8571TIP3    H247129   1.627   3.356  16.302  0.3821  0.7014 -0.4415
 8572TIP3   OH247130   3.746   0.421   3.107  0.4928 -0.4571  0.3377
 8572TIP3    H147131   3.835   0.411   3.141  0.1400 -0.5701  1.2446
 8572TIP3    H247132   3.758   0.433   3.012  1.4203 -1.3847  0.3200
 8573TIP3   OH247133   5.982   6.603   0.824  0.2700 -0.3720  0.0930
 8573TIP3    H147134   6.045   6.585   0.894  1.1426 -0.2062 -0.6375
 8573TIP3    H247135   5.929   6.675   0.857  0.6817 -0.2900  0.5777
 8574TIP3   OH247136   1.516   4.565   0.408 -0.2634 -0.2926  0.0616
 8574TIP3    H147137   1.497   4.539   0.318  0.9611  2.1846 -0.9828
 8574TIP3    H247138   1.594   4.515   0.432 -0.2046 -0.4722 -0.4993
 8575TIP3   OH247139   5.565   0.079   5.253 -0.0838  0.4160 -0.7337
 8575TIP3    H147140   5.494   0.059   5.314  0.5068  0.4746 -0.0234
 8575TIP3    H247141   5.565   0.174   5.244  1.0860  0.5651  0.7080
 8576TIP3   OH247142   1.401   1.454  17.074  0.2824  0.4602  0.4161
 8576TIP3    H147143   1.434   1.503  17.149  0.6969  0.6349  0.1239
 8576TIP3    H247144   1.354   1.380  17.112  1.5091 -0.1193  0.8280
 8577TIP3   OH247145   6.125   1.110  13.441  0.1659  0.2299 -0.2820
 8577TIP3    H147146   6.191   1.158  13.491  0.5408 -1.2912  0.7152
 8577TIP3    H247147   6.043   1.127  13.487  0.1992  0.4027 -0.2857
 8578TIP3   OH247148   4.700   5.913  17.086 -0.1907 -0.2845 -0.2731
 8578TIP3    H147149   4.670   5.915  17.177 -1.4394 -1.3983 -0.6536
 8578TIP3    H247150   4.665   5.994  17.048 -1.6035 -0.9238 -0.3573
 8579TIP3   OH247151   0.866   1.033  14.768 -0.3995  0.3117  0.0582
 8579TIP3    H147152   0.936   1.054  14.706 -1.1028 -0.9352 -1.1891
 8579TIP3    H247153   0.902   0.960  14.819  0.2400  1.4394  1.2528
 8580TIP3   OH247154   4.793   4.366  14.194 -0.1371  0.3632  0.5854
 8580TIP3    H147155   4.811   4.324  14.278  0.4734  0.2194  0.3823
 8580TIP3    H247156   4.854   4.326  14.133  0.2004  1.2729  0.3116
 8581TIP3   OH247157   3.244   1.015  14.005  0.2040 -0.0638  0.3944
 8581TIP3    H147158   3.329   0.985  13.974 -0.3287 -1.7579  0.4931
 8581TIP3    H247159   3.259   1.037  14.097  1.0230  1.7815 -0.1587
 8582TIP3   OH247160   4.311   0.875   3.200  0.3328 -0.0739  0.6133
 8582TIP3    H147161   4.250   0.811   3.164  2.3586 -1.1395 -1.0987
 8582TIP3    H247162   4.269   0.959   3.186  0.3949 -0.5702 -3.0481
 8583TIP3   OH247163   0.588   5.925   3.064 -0.1753 -0.0943  0.2381
 8583TIP3    H147164   0.598   6.018   3.084 -0.0823  0.5314 -2.5027
 8583TIP3    H247165   0.589   5.882   3.149  3.3624  2.0545  1.3901
 8584TIP3   OH247166   1.565   0.111   5.915 -0.2411  0.4508 -0.1661
 8584TIP3    H147167   1.538   0.149   5.999 -0.2222  1.0071 -0.4097
 8584TIP3    H247168   1.494   0.052   5.890 -0.1754  0.1599  0.3165
 8585TIP3   OH247169   5.695   1.539   2.555 -0.1376 -0.1085  0.0511
 8585TIP3    H147170   5.656   1.507   2.474  2.1032 -2.3652 -0.1669
 8585TIP3    H247171   5.759   1.604   2.527 -1.6322  1.4915  0.2463
 8586TIP3   OH247172   3.127   0.274   1.656 -0.3675 -0.0854  0.4882
 8586TIP3    H147173   3.113   0.330   1.580  0.2440 -0.0832  0.3717
 8586TIP3    H247174   3.107   0.329   1.731  1.4172  0.6731  0.4241
 8587TIP3   OH247175   3.319   4.987   4.499  0.4082 -0.2673 -0.1421
 8587TIP3    H147176   3.288   5.019   4.584 -1.5079  0.0961 -0.9685
 8587TIP3    H247177   3.332   5.066   4.447 -0.0971 -0.5950 -0.7646
 8588TIP3   OH247178   2.303   3.023  10.416 -0.4140 -0.2653  0.0394
 8588TIP3    H147179   2.328   2.999  10.327 -1.7843 -0.9249 -0.1925
 8588TIP3    H247180   2.214   3.056  10.408 -1.1701 -1.8571  1.3656
 8589TIP3   OH247181   6.362   0.200  15.096 -0.3451 -0.0332  0.1362
 8589TIP3    H147182   6.330   0.110  15.099 -2.6657  0.7907  1.2091
 8589TIP3    H247183   6.356   0.231  15.186  0.0812  1.3273 -0.2880
 8590TIP3   OH247184   0.881   1.620  12.071  0.7162  0.2918  0.4296
 8590TIP3    H147185   0.905   1.591  11.983  0.6997  0.5808  0.3296
 8590TIP3    H247186   0.958   1.670  12.101  0.9294 -0.2502  0.7813
 8591TIP3   OH247187   3.115   0.200  16.668 -0.5207  0.0602  0.5871
 8591TIP3    H147188   3.111   0.153  16.751 -0.7383  0.9172  1.0604
 8591TIP3    H247189   3.109   0.293  16.692  1.8792  0.4555 -0.1774
 8592TIP3   OH247190   3.072   0.300  13.328  0.1460  0.2128 -0.1698
 8592TIP3    H147191   3.164   0.310  13.354 -0.5142 -1.6401  3.1095
 8592TIP3    H247192   3.059   0.205  13.326 -1.8738  0.4839 -0.0539
 8593TIP3   OH247193   5.581   5.769   5.519 -0.1335  0.0053  0.2353
 8593TIP3    H147194   5.587   5.768   5.614 -0.9141  0.3703  0.2879
 8593TIP3    H247195   5.550   5.857   5.497 -0.7754 -0.3492 -0.3063
 8594TIP3   OH247196   2.264   1.124   3.072 -0.2136 -0.1417 -0.3909
 8594TIP3    H147197   2.184   1.176   3.081 -0.1416  0.1308 -1.3449
 8594TIP3    H247198   2.331   1.173   3.120 -0.0492  0.8504 -1.6300
 8595TIP3   OH247199   4.383   1.816   0.580  0.7277 -0.0957  0.0333
 8595TIP3    H147200   4.331   1.890   0.610  0.5640  0.0784 -0.6632
 8595TIP3    H247201   4.407   1.769   0.660  1.5315  1.1597  0.5406
 8596TIP3   OH247202   3.478   6.641  13.315 -0.0154 -0.2808 -0.0202
 8596TIP3    H147203   3.544   6.708  13.332 -0.6608  0.1180  0.9393
 8596TIP3    H247204   3.455   6.607  13.402 -2.1679  0.6400 -0.1883
 8597TIP3   OH247205   3.829   1.568  16.886  0.5217  0.1838 -0.0174
 8597TIP3    H147206   3.854   1.644  16.937  1.8235 -1.1484  1.3860
 8597TIP3    H247207   3.903   1.552  16.828  0.1252  0.1522 -0.5251
 8598TIP3   OH247208   1.560   1.845  15.659  0.0284 -1.3362 -0.0451
 8598TIP3    H147209   1.495   1.880  15.597 -0.4119  0.6273  1.4471
 8598TIP3    H247210   1.508   1.820  15.735  0.6688 -2.8607 -0.1117
 8599TIP3   OH247211   4.064   5.436  12.690  0.5469  0.3515 -0.2054
 8599TIP3    H147212   4.132   5.450  12.755  0.5665  0.5689 -0.2753
 8599TIP3    H247213   4.045   5.523  12.655 -0.4483  0.4257  0.4986
 8600TIP3   OH247214   6.569   3.162  14.816 -0.7156  0.1132 -0.7739
 8600TIP3    H147215   6.565   3.211  14.898 -0.5330 -0.2850 -0.5307
 8600TIP3    H247216   6.621   3.084  14.836 -0.5598  0.0788 -1.2968
 8601TIP3   OH247217   4.549   5.950  11.454 -0.3901 -0.2704 -0.1999
 8601TIP3    H147218   4.531   5.968  11.362 -0.8670  1.1665  0.1616
 8601TIP3    H247219   4.641   5.976  11.466  0.5558 -3.1203 -0.9182
 8602TIP3   OH247220   3.541   6.750  16.639  0.0723  0.3288  0.5724
 8602TIP3    H147221   3.576   6.719  16.555  1.9432  0.3629  1.3028
 8602TIP3    H247222   3.478   6.818  16.616  0.2475  0.0300 -0.8202
 8603TIP3   OH247223   4.456   0.934   3.873  0.0177  0.3383 -0.0691
 8603TIP3    H147224   4.439   0.965   3.961 -0.8625  0.1624 -0.1718
 8603TIP3    H247225   4.497   1.009   3.829 -0.4198  0.7458  0.2092
 8604TIP3   OH247226   3.526   5.543   1.668  0.3727  0.3166  0.5009
 8604TIP3    H147227   3.460   5.475   1.668  0.8276 -0.1326 -1.0715
 8604TIP3    H247228   3.609   5.497   1.685  0.4457  0.7262  1.3066
 8605TIP3   OH247229   0.386   0.043  15.699 -0.1757 -0.0261 -0.1063
 8605TIP3    H147230   0.443   0.013  15.769  1.2330  0.7296 -0.8958
 8605TIP3    H247231   0.386   0.139  15.707 -0.7387  0.0161 -0.5677
 8606TIP3   OH247232   3.526   2.887  16.424 -0.6825  0.4461  0.2089
 8606TIP3    H147233   3.540   2.801  16.382  2.7977  1.2708 -0.5214
 8606TIP3    H247234   3.475   2.936  16.360 -0.3382 -0.2111 -0.5956
 8607TIP3   OH247235   3.299   4.256   3.689 -0.0892  0.0098 -0.0267
 8607TIP3    H147236   3.237   4.240   3.618 -0.1221  0.1075 -0.0196
 8607TIP3    H247237   3.287   4.348   3.711 -0.3963 -0.1253  0.4014
 8608TIP3   OH247238   4.216   3.458  11.311 -0.1945 -0.2858 -0.0007
 8608TIP3    H147239   4.198   3.490  11.400  1.1489 -1.8096  0.8349
 8608TIP3    H247240   4.295   3.505  11.284 -0.6297  0.2119 -0.4213
 8609TIP3   OH247241   2.437   3.873   4.479 -0.0575  0.5409 -0.0541
 8609TIP3    H147242   2.451   3.949   4.422 -3.4520  0.3948 -1.1953
 8609TIP3    H247243   2.487   3.893   4.559  1.9840  2.3121 -1.7224
 8610TIP3   OH247244   0.771   4.056   4.237 -0.3871  0.1160  0.3302
 8610TIP3    H147245   0.722   3.986   4.279  1.7187 -0.2300  2.3377
 8610TIP3    H247246   0.863   4.036   4.256  0.3958  2.0289 -1.2443
 8611TIP3   OH247247   5.580   6.191   2.537  0.1031  0.1279  0.9674
 8611TIP3    H147248   5.507   6.147   2.579 -0.3831 -0.3661 -0.3780
 8611TIP3    H247249   5.652   6.128   2.540 -0.5585 -0.7444 -0.8556
 8612TIP3   OH247250   3.814   6.248   1.613  0.2853 -0.6614  0.0307
 8612TIP3    H147251   3.858   6.241   1.528  1.0251 -2.2501  0.5243
 8612TIP3    H247252   3.848   6.329   1.651  1.6285 -1.0641 -0.2686
 8613TIP3   OH247253   6.008   5.116   3.167 -0.0611 -0.7502  0.2308
 8613TIP3    H147254   5.973   5.081   3.085  0.7515 -1.6034  0.2397
 8613TIP3    H247255   5.996   5.046   3.230 -1.2346  0.1294  1.0000
 8614TIP3   OH247256   6.190   4.141  12.839  0.3365 -0.3386  0.3978
 8614TIP3    H147257   6.229   4.226  12.823  0.6076 -0.1104  2.1285
 8614TIP3    H247258   6.169   4.142  12.933 -1.9932 -1.2105 -0.0889
 8615TIP3   OH247259   4.717   2.592   0.301  0.6368  0.3559 -0.5816
 8615TIP3    H147260   4.649   2.531   0.330 -0.5714  1.7110 -0.5063
 8615TIP3    H247261   4.739   2.563   0.213  1.1608 -1.1008  0.0086
 8616TIP3   OH247262   6.132   6.492  16.375 -0.1639 -0.7651  0.1542
 8616TIP3    H147263   6.069   6.425  16.348 -2.1192 -0.8315  4.4367
 8616TIP3    H247264   6.090   6.575  16.353  0.6550 -0.8483 -1.8239
 8617TIP3   OH247265   5.526   0.330   1.632 -0.4149  0.2436  0.4823
 8617TIP3    H147266   5.580   0.337   1.711 -1.0338 -1.0120  1.0335
 8617TIP3    H247267   5.438   0.354   1.662 -0.7740 -0.8503  0.3318
 8618TIP3   OH247268   2.608   0.455  13.966  0.6420 -0.0412 -0.4659
 8618TIP3    H147269   2.684   0.423  13.916 -0.0917  0.3496 -1.8604
 8618TIP3    H247270   2.539   0.392  13.947  0.6479 -0.4603  0.9023
 8619TIP3   OH247271   4.711   0.451   1.528  0.0610  0.0900 -0.2237
 8619TIP3    H147272   4.779   0.476   1.591  0.2098  0.5532 -0.5648
 8619TIP3    H247273   4.759   0.404   1.459  0.0309  0.3973 -0.4538
 8620TIP3   OH247274   3.409   2.918   0.023 -0.4247 -0.3505 -0.5470
 8620TIP3    H147275   3.489   2.868   0.008  1.0901  1.1065  2.1958
 8620TIP3    H247276   3.349   2.856   0.063  1.1658 -0.2667  2.1013
 8621TIP3   OH247277   0.815   5.179  16.335 -0.0739  0.5384 -0.1549
 8621TIP3    H147278   0.814   5.092  16.375  0.7462 -0.5352 -2.3710
 8621TIP3    H247279   0.907   5.204  16.336  0.1834 -0.1825 -2.7073
 8622TIP3   OH247280   2.433   6.604  13.762  0.2417 -0.1449  0.2027
 8622TIP3    H147281   2.344   6.569  13.751  0.1024  0.2127  0.1695
 8622TIP3    H247282   2.490   6.533  13.735 -0.0558 -0.0700 -0.6351
 8623TIP3   OH247283   4.578   2.888   2.683 -0.0260  0.6361 -0.1613
 8623TIP3    H147284   4.544   2.892   2.773 -0.7937 -2.1833 -0.2624
 8623TIP3    H247285   4.653   2.828   2.689 -0.5277 -0.1405 -1.5256
 8624TIP3   OH247286   2.600   0.286   4.897  0.3211  0.4643 -0.4335
 8624TIP3    H147287   2.541   0.340   4.949  0.1503 -1.9037  1.9345
 8624TIP3    H247288   2.543   0.225   4.850  0.6621  0.7822 -1.2824
 8625TIP3   OH247289   6.709   4.682   4.007  0.7881  0.2729  0.5131
 8625TIP3    H147290   6.717   4.749   3.938  1.5111  0.8716  1.1719
 8625TIP3    H247291   6.797   4.646   4.015  1.5083  2.5704  3.4939
 8626TIP3   OH247292   2.092   5.353   3.272  0.2133  0.2284 -0.0837
 8626TIP3    H147293   2.141   5.434   3.258 -0.6793  0.6425 -0.9013
 8626TIP3    H247294   2.037   5.372   3.348 -1.2479  1.0205 -1.2923
 8627TIP3   OH247295   6.229   2.326  11.877  0.8820 -0.2008 -0.5013
 8627TIP3    H147296   6.208   2.419  11.876  1.3607 -0.0271  2.6500
 8627TIP3    H247297   6.318   2.321  11.842  1.1100  0.5921 -0.0484
 8628TIP3   OH247298   0.337   2.952   0.825 -0.0949 -0.1194  0.1643
 8628TIP3    H147299   0.277   2.883   0.851  0.2327 -0.4775 -0.0115
 8628TIP3    H247300   0.281   3.025   0.798 -0.4369 -0.1848  0.7077
 8629TIP3   OH247301   0.320   4.784  11.157 -0.0129 -0.4726  0.4737
 8629TIP3    H147302   0.253   4.797  11.225 -2.2088  3.5794 -2.2434
 8629TIP3    H247303   0.273   4.743  11.084  1.3282 -0.8834 -0.1864
 8630TIP3   OH247304   3.753   5.087  16.217  0.1150  0.4583  0.5591
 8630TIP3    H147305   3.818   5.069  16.285  1.4333  0.4866 -0.6762
 8630TIP3    H247306   3.775   5.175  16.186  0.6813 -0.2839 -1.1769
 8631TIP3   OH247307   2.936   6.712  11.498  0.1317  0.2885 -0.0383
 8631TIP3    H147308   2.948   6.623  11.531 -1.0561  0.5537  1.1798
 8631TIP3    H247309   2.915   6.764  11.576 -2.1159  1.0545 -1.0944
 8632TIP3   OH247310   2.983   2.778  11.576 -0.2825  0.3998  0.1945
 8632TIP3    H147311   2.922   2.740  11.511  0.1023  0.9160 -0.4705
 8632TIP3    H247312   3.054   2.714  11.582 -0.5349  0.1380  0.4434
 8633TIP3   OH247313   5.648   5.251  13.877 -0.2862 -0.5356 -0.0672
 8633TIP3    H147314   5.667   5.331  13.927 -1.1714 -1.9502  2.6471
 8633TIP3    H247315   5.568   5.272  13.828 -0.7322  0.1557  0.9226
 8634TIP3   OH247316   4.360   6.725  14.885  0.0546  0.6102 -0.0874
 8634TIP3    H147317   4.434   6.785  14.880  1.4445 -0.6183  4.0222
 8634TIP3    H247318   4.374   6.664  14.813  1.7198  1.7924 -0.8140
 8635TIP3   OH247319   5.448   3.921  16.767 -0.2758  0.0304 -0.2177
 8635TIP3    H147320   5.415   4.011  16.773 -1.0968 -0.3614  1.2046
 8635TIP3    H247321   5.394   3.871  16.828  0.6450 -1.3019 -0.4761
 8636TIP3   OH247322   2.542   6.503  17.108  0.3563  0.7386 -0.0529
 8636TIP3    H147323   2.570   6.544  17.190  1.2957 -1.3535  0.7415
 8636TIP3    H247324   2.624   6.486  17.061 -0.0341  0.1781 -0.5347
 8637TIP3   OH247325   1.999   0.456  16.537  0.6295 -0.7462  0.3392
 8637TIP3    H147326   1.928   0.512  16.569  1.1014  0.1649 -0.2083
 8637TIP3    H247327   2.005   0.476  16.444  1.3193 -1.1479  0.2965
 8638TIP3   OH247328   2.985   5.282  13.958 -0.4683 -0.3008 -0.0874
 8638TIP3    H147329   3.018   5.201  13.996 -1.5877 -1.0971 -0.8077
 8638TIP3    H247330   2.899   5.294  13.998 -0.2465  0.6224  0.1329
 8639TIP3   OH247331   0.651   5.603  16.311 -0.7253  0.2376 -0.0112
 8639TIP3    H147332   0.578   5.599  16.374 -0.7197 -0.5634 -0.0542
 8639TIP3    H247333   0.619   5.661  16.242 -0.4600  1.7095  1.0657
 8640TIP3   OH247334   6.518   4.951  12.761  0.6484 -0.5836  0.0711
 8640TIP3    H147335   6.538   4.858  12.769  0.2410 -1.0645 -3.7282
 8640TIP3    H247336   6.603   4.994  12.755  0.8085 -0.9181 -0.0180
 8641TIP3   OH247337   6.410   2.736   3.007 -0.6891 -0.2253 -0.1036
 8641TIP3    H147338   6.457   2.693   2.935 -1.5413 -0.6029 -0.4468
 8641TIP3    H247339   6.391   2.665   3.069 -1.5868 -0.2509 -0.3959
 8642TIP3   OH247340   2.431   1.032   0.837 -0.3594 -0.2249  0.1898
 8642TIP3    H147341   2.451   1.023   0.744 -2.3539 -2.2187 -0.1155
 8642TIP3    H247342   2.336   1.017   0.842 -0.6847  2.2373  2.2756
 8643TIP3   OH247343   6.503   3.022   2.206  0.0754 -0.1603 -0.8668
 8643TIP3    H147344   6.564   2.949   2.214 -0.1915 -0.3948 -0.9761
 8643TIP3    H247345   6.447   3.000   2.132  0.0784  0.2173 -0.9838
 8644TIP3   OH247346   3.675   4.079   5.961  0.1200  0.3916 -0.5128
 8644TIP3    H147347   3.668   4.171   5.936 -1.3525  0.5355  0.3409
 8644TIP3    H247348   3.680   4.081   6.057  0.6595 -0.3851 -0.5243
 8645TIP3   OH247349   0.519   2.244  16.188 -0.5100  0.2541  0.2593
 8645TIP3    H147350   0.560   2.165  16.152 -1.7630 -0.5220  0.4887
 8645TIP3    H247351   0.588   2.287  16.238  0.1020 -0.8623  0.3810
 8646TIP3   OH247352   4.215   5.359   1.441  0.2781  0.3423  0.1676
 8646TIP3    H147353   4.293   5.382   1.491  0.6993 -2.3045  0.8046
 8646TIP3    H247354   4.238   5.377   1.350  1.0684  1.0247  0.4994
 8647TIP3   OH247355   5.819   6.756   4.957  0.5167 -0.1035 -0.0314
 8647TIP3    H147356   5.728   6.780   4.938  0.7576  0.7229 -0.1511
 8647TIP3    H247357   5.812   6.679   5.013 -0.2509 -0.4867 -0.6381
 8648TIP3   OH247358   4.836   4.655  12.225  0.6493  0.3486  0.5507
 8648TIP3    H147359   4.744   4.676  12.240  0.7443  0.7678  0.5352
 8648TIP3    H247360   4.885   4.719  12.277  0.9485  0.7515 -0.2178
 8649TIP3   OH247361   5.354   4.240   4.265  0.2626  0.1866 -0.3283
 8649TIP3    H147362   5.410   4.162   4.261  0.2150  0.1374 -0.0228
 8649TIP3    H247363   5.273   4.212   4.224  0.0966 -0.0528  0.1559
 8650TIP3   OH247364   5.701   3.559   1.116  0.0855  0.0364 -0.5276
 8650TIP3    H147365   5.700   3.650   1.088 -1.6153 -0.0493 -0.8043
 8650TIP3    H247366   5.787   3.527   1.091  0.2339  1.2255 -1.5558
 8651TIP3   OH247367   3.147   1.934  14.612  0.0308  0.2355 -0.1133
 8651TIP3    H147368   3.060   1.963  14.586  0.1092  0.0113 -0.6342
 8651TIP3    H247369   3.198   1.935  14.531  0.1650 -0.8747 -0.0599
 8652TIP3   OH247370   5.924   4.945  14.677  0.6852  0.2547 -0.1032
 8652TIP3    H147371   5.933   4.850  14.665  2.6476  0.3164  0.6865
 8652TIP3    H247372   5.956   4.983  14.596 -0.1270  0.2497 -0.4300
 8653TIP3   OH247373   3.707   4.257  15.810  0.0873  0.2900  0.7220
 8653TIP3    H147374   3.763   4.180  15.798 -1.2090 -0.6721  0.6486
 8653TIP3    H247375   3.767   4.328  15.829  1.2381 -1.0379  2.1752
 8654TIP3   OH247376   6.207   1.584   2.129  0.4371 -0.0551  0.2248
 8654TIP3    H147377   6.169   1.671   2.120  1.1978  0.4293  1.5544
 8654TIP3    H247378   6.242   1.582   2.218  1.5102 -1.2862 -0.2043
 8655TIP3   OH247379   1.253   3.865  13.935 -0.4702  0.5246  0.4463
 8655TIP3    H147380   1.244   3.826  14.022 -1.1486  3.5224  1.7912
 8655TIP3    H247381   1.347   3.861  13.917 -0.4531 -1.0827  0.8508
 8656TIP3   OH247382   2.432   1.540   5.050  0.4072 -0.3171  0.2987
 8656TIP3    H147383   2.470   1.522   4.963  2.3582 -0.1718  1.0812
 8656TIP3    H247384   2.413   1.633   5.049  4.4260  0.6495  1.4239
 8657TIP3   OH247385   2.029   4.981  14.391  0.0469  0.1036 -0.3429
 8657TIP3    H147386   1.988   5.006  14.309 -2.3613 -0.3904  0.6548
 8657TIP3    H247387   2.030   5.062  14.443 -1.5836 -0.2902  0.3684
 8658TIP3   OH247388   2.371   4.313   5.348  0.2275 -0.3413  0.3133
 8658TIP3    H147389   2.457   4.343   5.319 -0.3495 -0.2908 -1.3824
 8658TIP3    H247390   2.326   4.392   5.376  1.2019 -0.5322  2.5264
 8659TIP3   OH247391   6.781   0.939   1.245  0.6542  0.1759  0.1454
 8659TIP3    H147392   6.724   1.004   1.287 -0.1245 -1.0461  1.0598
 8659TIP3    H247393   6.845   0.916   1.313  0.5930 -0.3909  0.0150
 8660TIP3   OH247394   2.600   6.093   2.608  0.1572 -0.0166 -0.6913
 8660TIP3    H147395   2.592   6.135   2.693  1.2596 -0.6850 -0.2427
 8660TIP3    H247396   2.674   6.136   2.567 -0.7474  0.7208 -1.5685
 8661TIP3   OH247397   3.542   0.970  13.455  0.1681  0.3188  0.6169
 8661TIP3    H147398   3.563   1.036  13.389  0.4796  0.0971  0.4959
 8661TIP3    H247399   3.454   0.993  13.484  0.1945  0.6656  0.4238
 8662TIP3   OH247400   6.381   3.331  16.873  0.2812 -0.5594  0.2585
 8662TIP3    H147401   6.363   3.261  16.937 -0.7382 -2.7089 -2.2844
 8662TIP3    H247402   6.315   3.398  16.891 -1.3309 -2.0851  0.1383
 8663TIP3   OH247403   5.292   1.332  16.547  0.3575 -0.2443  0.1374
 8663TIP3    H147404   5.385   1.356  16.551  0.1660  0.9200 -1.6183
 8663TIP3    H247405   5.252   1.377  16.621  1.4909 -2.2428  1.9917
 8664TIP3   OH247406   4.650   6.482   5.831 -0.3202 -0.2993 -0.1742
 8664TIP3    H147407   4.625   6.570   5.805  0.1420 -0.2550 -0.4545
 8664TIP3    H247408   4.568   6.432   5.828 -0.5563  0.0865 -0.1369
 8665TIP3   OH247409   4.971   1.526  11.361 -0.0741 -0.2242 -0.3044
 8665TIP3    H147410   4.929   1.591  11.306  1.4591  0.5526 -0.5880
 8665TIP3    H247411   4.910   1.452  11.363 -0.9674  0.4739 -1.5136
 8666TIP3   OH247412   6.700   1.867   0.228 -0.7537  0.6084  0.1443
 8666TIP3    H147413   6.718   1.941   0.170  0.0502 -0.4296 -0.9649
 8666TIP3    H247414   6.610   1.842   0.208 -0.4684  0.2380 -0.6695
 8667TIP3   OH247415   1.714   5.064  13.527  0.0656 -0.6969  0.2990
 8667TIP3    H147416   1.707   5.066  13.432  1.9277 -0.0074  0.1603
 8667TIP3    H247417   1.626   5.041  13.557 -0.7169 -0.2117 -1.5585
 8668TIP3   OH247418   1.984   0.915   3.831  0.1409  0.6891  0.3229
 8668TIP3    H147419   2.057   0.853   3.834 -0.5972 -0.2477 -0.7267
 8668TIP3    H247420   1.938   0.901   3.913 -1.4271 -1.9230 -0.9437
 8669TIP3   OH247421   2.809   6.128   0.167  0.6367 -0.2473  0.1633
 8669TIP3    H147422   2.809   6.047   0.217 -1.5412 -0.0497  0.5467
 8669TIP3    H247423   2.764   6.106   0.085  0.3054  0.4882  0.1415
 8670TIP3   OH247424   3.797   4.774   5.098  0.2975 -0.1241 -0.6149
 8670TIP3    H147425   3.863   4.720   5.141  1.0223 -0.1961 -1.8039
 8670TIP3    H247426   3.829   4.786   5.009 -0.8057  0.6690 -0.9245
 8671TIP3   OH247427   5.833   2.988   3.686  0.0185 -1.1317 -0.2545
 8671TIP3    H147428   5.838   2.926   3.614 -0.9101 -1.7372  0.1857
 8671TIP3    H247429   5.739   3.002   3.699  0.2215  0.5732 -0.5138
 8672TIP3   OH247430   3.133   1.203   0.191 -0.5771 -0.1177 -0.3039
 8672TIP3    H147431   3.090   1.159   0.118 -0.9182 -1.8392  0.8876
 8672TIP3    H247432   3.062   1.239   0.243 -0.3290  1.2085 -0.8798
 8673TIP3   OH247433   1.824   1.368   4.873  0.2773 -0.1957 -0.0855
 8673TIP3    H147434   1.896   1.326   4.920  0.4962 -0.7333 -0.9019
 8673TIP3    H247435   1.866   1.438   4.822  0.3221 -0.9954 -1.1506
 8674TIP3   OH247436   0.636   4.877   4.907  0.2747  0.4145  0.4436
 8674TIP3    H147437   0.669   4.793   4.938 -0.3224  0.4940  1.3103
 8674TIP3    H247438   0.588   4.856   4.826 -2.3355 -0.5329  2.1581
 8675TIP3   OH247439   0.357   5.994  14.139  0.2258 -0.6737 -0.2459
 8675TIP3    H147440   0.431   6.017  14.195  1.1367 -0.3597 -1.5635
 8675TIP3    H247441   0.366   5.900  14.124  0.2747 -0.6671 -0.2626
 8676TIP3   OH247442   3.677   5.403   4.249  0.1434  0.5237 -0.0611
 8676TIP3    H147443   3.652   5.373   4.162  2.6200  1.4830 -1.1358
 8676TIP3    H247444   3.659   5.497   4.249  1.5885  0.8085 -0.0823
 8677TIP3   OH247445   4.243   2.296   3.441  0.0870  0.1021 -1.0031
 8677TIP3    H147446   4.203   2.275   3.525 -0.7185  0.0806 -1.3846
 8677TIP3    H247447   4.209   2.383   3.419  0.0682 -0.0112 -1.4352
 8678TIP3   OH247448   0.282   2.050   5.621  0.4700 -0.0821 -0.6940
 8678TIP3    H147449   0.192   2.078   5.635 -0.0023 -1.8420 -0.0260
 8678TIP3    H247450   0.296   1.982   5.686  1.9067 -0.6235 -1.5435
 8679TIP3   OH247451   6.346   3.343  14.413 -0.5389  0.8789  0.8951
 8679TIP3    H147452   6.379   3.414  14.468 -1.3121  1.8901  0.0615
 8679TIP3    H247453   6.288   3.385  14.350  0.4307 -0.2241 -0.7956
 8680TIP3   OH247454   4.176   5.488   4.332  0.0398 -0.6253  0.6210
 8680TIP3    H147455   4.225   5.532   4.401  2.2536 -3.0342  0.6453
 8680TIP3    H247456   4.148   5.405   4.371  0.0148 -1.3513 -0.9037
 8681TIP3   OH247457   1.282   0.129  11.643 -0.3082 -0.1053 -0.5517
 8681TIP3    H147458   1.229   0.169  11.574  0.4945  2.0277  0.0498
 8681TIP3    H247459   1.222   0.121  11.718  0.1182  2.1027  0.0583
 8682TIP3   OH247460   6.714   3.853  14.257 -0.0169  0.1192 -0.1517
 8682TIP3    H147461   6.676   3.797  14.325 -0.3529  0.8638  0.2806
 8682TIP3    H247462   6.754   3.792  14.195 -0.4904 -0.6036  0.2494
 8683TIP3   OH247463   0.727   5.455   4.532  0.0486 -0.8233  0.3844
 8683TIP3    H147464   0.778   5.442   4.452 -0.3307  0.0603 -0.0025
 8683TIP3    H247465   0.787   5.498   4.592  0.1310 -0.8819  0.3435
 8684TIP3   OH247466   3.186   3.781  11.888 -0.3228 -0.2061 -0.1907
 8684TIP3    H147467   3.190   3.699  11.840 -0.3932  0.6707 -1.7458
 8684TIP3    H247468   3.140   3.841  11.829 -0.4144  0.8983  0.9779
 8685TIP3   OH247469   5.333   0.022  11.319 -0.0277 -0.4720 -0.0036
 8685TIP3    H147470   5.257   0.022  11.260 -0.2208  1.2105  0.2142
 8685TIP3    H247471   5.300  -0.017  11.399 -0.4237 -0.5851 -0.2188
 8686TIP3   OH247472   6.541   5.865   4.229  0.0336 -0.3075  0.1437
 8686TIP3    H147473   6.625   5.909   4.215  0.9373 -1.3672  2.0097
 8686TIP3    H247474   6.475   5.930   4.205  1.3310  2.1882  3.1460
 8687TIP3   OH247475   1.406   1.009   4.380 -0.0165 -0.3402 -0.4383
 8687TIP3    H147476   1.381   1.054   4.300 -1.6268 -2.6326 -1.2822
 8687TIP3    H247477   1.468   1.068   4.423 -1.5285  2.3095 -1.8152
 8688TIP3   OH247478   4.943   6.099  13.333 -0.9015 -0.4219  0.1764
 8688TIP3    H147479   4.931   6.067  13.423  0.3754 -0.5721  0.3020
 8688TIP3    H247480   5.000   6.175  13.342  0.5187 -1.3606 -0.6441
 8689TIP3   OH247481   5.174   5.727   3.171 -0.4161 -0.9167  0.3394
 8689TIP3    H147482   5.100   5.672   3.147 -0.7620 -0.3916  0.1926
 8689TIP3    H247483   5.251   5.671   3.160 -0.3354 -0.0708 -4.1257
 8690TIP3   OH247484   0.516   1.592   0.142  0.4891  0.1429 -0.0908
 8690TIP3    H147485   0.605   1.621   0.125  0.1766  1.9668  1.1510
 8690TIP3    H247486   0.461   1.661   0.105 -0.4071 -0.8240 -0.5918
 8691TIP3   OH247487   5.171   4.508  16.888  0.6126  0.1533  0.3590
 8691TIP3    H147488   5.181   4.595  16.849 -2.6429  0.6573  0.4861
 8691TIP3    H247489   5.077   4.488  16.879  1.1345 -2.9799  1.1160
 8692TIP3   OH247490   6.347   3.174  13.768  0.3291  0.1624 -0.3881
 8692TIP3    H147491   6.395   3.122  13.832  1.3140  0.8554 -0.5483
 8692TIP3    H247492   6.255   3.152  13.783  0.6107 -0.3282  0.6844
 8693TIP3   OH247493   6.196   1.838  10.773 -0.1522  0.1549  0.8365
 8693TIP3    H147494   6.185   1.866  10.682 -0.8792 -1.9955  0.2304
 8693TIP3    H247495   6.119   1.784  10.791  1.3045 -1.6293  1.8706
 8694TIP3   OH247496   3.135   0.699  16.029 -0.3121 -0.0241  0.0644
 8694TIP3    H147497   3.135   0.618  15.978 -3.3822 -0.0346 -0.0170
 8694TIP3    H247498   3.187   0.760  15.977 -0.5965 -1.0422 -1.4533
 8695TIP3   OH247499   5.969   3.430  16.311  0.6359  0.4814  0.2789
 8695TIP3    H147500   5.941   3.476  16.232  0.7016  0.8640  0.4720
 8695TIP3    H247501   6.043   3.377  16.284  1.7593  1.9221  0.4310
 8696TIP3   OH247502   2.542   1.615   4.305  0.1022 -0.4107 -0.0359
 8696TIP3    H147503   2.582   1.579   4.384 -0.8896  0.3538  0.8253
 8696TIP3    H247504   2.499   1.541   4.263 -0.7137 -0.5205  0.9755
 8697TIP3   OH247505   0.141   2.978  14.728  0.1508  0.6623 -0.3443
 8697TIP3    H147506   0.151   3.060  14.776 -0.1737  0.2649  0.4140
 8697TIP3    H247507   0.214   2.978  14.665 -0.7715  2.2545 -1.4415
 8698TIP3   OH247508   2.201   0.311   1.484  0.1960 -0.1908  0.4215
 8698TIP3    H147509   2.111   0.317   1.450  0.1465 -0.8534  0.4338
 8698TIP3    H247510   2.254   0.288   1.408 -0.2468 -4.1276  1.1885
 8699TIP3   OH247511   3.342   5.114   3.018  0.1643  0.2232  0.4628
 8699TIP3    H147512   3.291   5.091   2.940 -2.0572  0.3227  1.8543
 8699TIP3    H247513   3.425   5.149   2.983 -1.1382  1.0922 -1.8698
 8700TIP3   OH247514   1.800   2.142  13.211 -0.2471  0.5478  0.3607
 8700TIP3    H147515   1.873   2.080  13.210 -0.8100 -0.1119  0.2089
 8700TIP3    H247516   1.779   2.154  13.303 -0.7273 -0.1865  0.3519
 8701TIP3   OH247517   2.322   5.425   3.480 -0.5551 -0.0499  0.1154
 8701TIP3    H147518   2.391   5.371   3.519 -1.5046  0.5836  2.7274
 8701TIP3    H247519   2.245   5.367   3.478 -0.3267 -0.3208 -1.5598
 8702TIP3   OH247520   0.961   1.025   1.817  0.0945  0.3332 -0.1811
 8702TIP3    H147521   0.928   0.946   1.860 -0.5082  1.0809  0.7426
 8702TIP3    H247522   0.889   1.088   1.824  0.3367  0.7668 -1.4575
 8703TIP3   OH247523   6.738   1.545   2.232 -0.0590 -0.3247 -0.0805
 8703TIP3    H147524   6.737   1.619   2.292 -1.3418 -0.5649  0.2012
 8703TIP3    H247525   6.660   1.555   2.178  0.5395 -0.6738 -1.0320
 8704TIP3   OH247526   3.657   5.632   2.083 -0.4675 -0.0260  0.0332
 8704TIP3    H147527   3.661   5.536   2.079 -0.0469 -0.0541  1.0474
 8704TIP3    H247528   3.590   5.650   2.149  1.6911  0.3619  2.1717
 8705TIP3   OH247529   1.400   0.753   2.258 -0.6024 -0.0516 -0.0303
 8705TIP3    H147530   1.378   0.693   2.329  1.1621 -0.0240  0.5708
 8705TIP3    H247531   1.466   0.707   2.207 -0.9282  0.4447 -0.9039
 8706TIP3   OH247532   4.398   1.380   5.560  0.4155 -0.7389 -0.4349
 8706TIP3    H147533   4.332   1.439   5.523  0.4134 -1.0465 -0.9268
 8706TIP3    H247534   4.453   1.355   5.486  0.9793 -0.6256 -0.0557
 8707TIP3   OH247535   2.678   3.977   0.833  0.1323  0.3853 -0.0750
 8707TIP3    H147536   2.718   3.915   0.894  0.5764  1.4693  0.7368
 8707TIP3    H247537   2.649   3.922   0.760  0.1712 -0.8374  0.8074
 8708TIP3   OH247538   3.233   0.141   3.613 -0.6640 -0.4751 -0.6016
 8708TIP3    H147539   3.310   0.134   3.669 -0.7595  1.4925 -0.1942
 8708TIP3    H247540   3.169   0.082   3.653 -0.0859 -0.5278  0.2577
 8709TIP3   OH247541   0.742   6.433   1.706 -0.2959 -0.1384  0.0860
 8709TIP3    H147542   0.806   6.487   1.753  0.5241 -0.8187 -0.2213
 8709TIP3    H247543   0.780   6.424   1.618 -0.1716 -1.6126  0.2787
 8710TIP3   OH247544   5.376   3.155   3.132 -0.0330 -0.4427  0.2093
 8710TIP3    H147545   5.456   3.160   3.185  0.4684  1.5917 -0.7067
 8710TIP3    H247546   5.405   3.114   3.051  0.0461  0.0927 -0.0360
 8711TIP3   OH247547   0.909   0.845  12.464 -0.5179 -0.6437 -0.0825
 8711TIP3    H147548   0.964   0.863  12.387 -1.2693  0.1026 -0.4617
 8711TIP3    H247549   0.914   0.750  12.476 -0.5064 -0.7876 -1.1484
 8712TIP3   OH247550   2.342   0.424   4.401 -0.1859  0.8444  0.0609
 8712TIP3    H147551   2.332   0.329   4.404  1.1911  0.6998  0.3175
 8712TIP3    H247552   2.436   0.439   4.412 -0.5060  2.2803  1.0078
 8713TIP3   OH247553   1.801   0.330   2.384 -0.2583  0.4882 -0.3245
 8713TIP3    H147554   1.825   0.421   2.368 -0.3257  0.4048 -0.8855
 8713TIP3    H247555   1.844   0.280   2.315 -1.7939  0.3139 -1.1770
 8714TIP3   OH247556   5.642   4.901   5.800  0.6619 -0.0872  0.5937
 8714TIP3    H147557   5.623   4.942   5.885 -0.8501 -0.0640  0.2500
 8714TIP3    H247558   5.614   4.810   5.810  3.3600 -0.9213  1.1194
 8715TIP3   OH247559   1.737   2.934  11.641 -0.3393  0.1239 -0.5752
 8715TIP3    H147560   1.758   2.905  11.730  0.4411 -0.8192 -1.0640
 8715TIP3    H247561   1.821   2.960  11.604 -0.7390  1.0290 -0.8671
 8716TIP3   OH247562   1.545   3.120   5.109  0.1743  0.3472  0.3126
 8716TIP3    H147563   1.638   3.139   5.122  0.3191 -1.2480  1.7566
 8716TIP3    H247564   1.501   3.204   5.125  1.1668  0.5406  2.1339
 8717TIP3   OH247565   2.659   0.160   1.125  0.0105  0.8017  0.4329
 8717TIP3    H147566   2.593   0.106   1.080 -1.9534  1.4285  2.4753
 8717TIP3    H247567   2.670   0.236   1.067 -0.6058  0.3996 -0.2340
 8718TIP3   OH247568   2.760   6.094  17.133  0.5569 -0.5383  0.5617
 8718TIP3    H147569   2.766   6.000  17.117 -3.7517 -0.8208  0.0700
 8718TIP3    H247570   2.801   6.134  17.056 -0.7157 -2.0204 -0.9096
 8719TIP3   OH247571   6.593   2.229  10.916  0.1192 -0.3833 -0.0520
 8719TIP3    H147572   6.559   2.267  10.835 -1.5355 -0.6886  0.4848
 8719TIP3    H247573   6.669   2.283  10.938  0.4708 -0.1892 -1.7098
 8720TIP3   OH247574   1.499   2.164  15.610 -0.0031 -0.1949  0.0289
 8720TIP3    H147575   1.575   2.155  15.552 -0.6786 -1.0190 -0.7461
 8720TIP3    H247576   1.441   2.092  15.583  0.2861 -1.4536  2.6534
 8721TIP3   OH247577   1.092   4.513  15.082  0.2612 -0.4556  0.7444
 8721TIP3    H147578   1.040   4.577  15.033 -0.9261 -1.2274  0.9611
 8721TIP3    H247579   1.133   4.459  15.015  0.3481 -0.1692  0.5698
 8722TIP3   OH247580   2.058   4.702  12.877  0.2631  0.2343 -0.4458
 8722TIP3    H147581   2.111   4.780  12.868  0.4850  0.1466  0.0628
 8722TIP3    H247582   2.106   4.647  12.939 -0.7216  0.4308  0.5208
 8723TIP3   OH247583   6.780   1.863  12.865 -0.0536  0.4422  0.0587
 8723TIP3    H147584   6.860   1.866  12.814  0.7061  2.1377  1.3112
 8723TIP3    H247585   6.732   1.942  12.841 -0.2114  0.6813  1.1022
 8724TIP3   OH247586   0.339   5.877   0.222  0.2749  0.0809 -0.0562
 8724TIP3    H147587   0.282   5.812   0.262 -0.8792  1.8630  1.2932
 8724TIP3    H247588   0.406   5.826   0.177 -1.3697 -2.0273 -0.1760
 8725TIP3   OH247589   2.947   2.356   4.274  0.3653 -0.3661 -0.4456
 8725TIP3    H147590   2.948   2.300   4.197  0.9527 -0.4606 -0.3706
 8725TIP3    H247591   3.039   2.362   4.301  0.0788 -1.0006  0.7263
 8726TIP3   OH247592   5.145   0.808   2.284 -0.2885 -0.2129 -0.6683
 8726TIP3    H147593   5.120   0.829   2.374 -0.7601  0.0881 -0.8698
 8726TIP3    H247594   5.203   0.879   2.258  0.0931 -0.4606 -0.4976
 8727TIP3   OH247595   1.192   2.654  12.396  0.1255 -0.2686 -0.1756
 8727TIP3    H147596   1.161   2.745  12.393  0.4812 -0.1725 -1.3119
 8727TIP3    H247597   1.113   2.601  12.396 -0.0746  0.0278 -0.4500
 8728TIP3   OH247598   1.285   0.975   3.333  0.3081  0.1042 -0.6192
 8728TIP3    H147599   1.320   0.998   3.247  1.2701  0.2842 -0.1812
 8728TIP3    H247600   1.360   0.939   3.381  0.3034  2.0436  0.8927
 8729TIP3   OH247601   5.520   4.183  16.472  0.3330  0.2379 -0.4020
 8729TIP3    H147602   5.592   4.245  16.485 -0.1217  1.1907 -2.2182
 8729TIP3    H247603   5.562   4.102  16.445  0.8069  0.4798 -0.3989
 8730TIP3   OH247604   5.157   0.871  10.826  0.3985 -0.4170 -0.0994
 8730TIP3    H147605   5.163   0.840  10.735 -1.6662 -0.8552 -0.1052
 8730TIP3    H247606   5.165   0.792  10.879  1.4395 -0.1791  0.1083
 8731TIP3   OH247607   0.762   3.814   1.557 -0.2434  0.1870 -0.6149
 8731TIP3    H147608   0.725   3.868   1.627 -0.6405 -0.7983 -0.0583
 8731TIP3    H247609   0.823   3.756   1.601 -0.8326 -0.7507 -1.0124
 8732TIP3   OH247610   6.098   3.070  13.834  0.1036 -0.0652 -0.6162
 8732TIP3    H147611   6.132   3.011  13.902 -0.5073 -0.6032 -0.7716
 8732TIP3    H247612   6.051   3.012  13.774 -1.4353  0.7154 -0.1847
 8733TIP3   OH247613   3.081   6.186   4.936  0.1024 -0.3553 -0.7019
 8733TIP3    H147614   3.089   6.155   5.027 -0.1942  1.4163 -0.0508
 8733TIP3    H247615   3.058   6.107   4.886  2.7191 -1.8449  0.3468
 8734TIP3   OH247616   3.953   2.948  12.092 -0.5235 -0.4268  0.5381
 8734TIP3    H147617   3.888   2.885  12.124  0.0306  0.1191  2.7883
 8734TIP3    H247618   3.986   2.991  12.170  1.3510  0.5009 -0.7261
 8735TIP3   OH247619   2.332   5.144  13.152  0.0924 -0.0410 -0.3969
 8735TIP3    H147620   2.392   5.078  13.117  1.3251  0.2007  1.2144
 8735TIP3    H247621   2.383   5.191  13.217 -1.3026  1.3959 -0.3091
 8736TIP3   OH247622   2.761   0.557  13.024 -0.2837 -0.1410  0.0030
 8736TIP3    H147623   2.809   0.500  12.964 -0.2835  0.1068 -0.2349
 8736TIP3    H247624   2.829   0.609  13.067 -0.3429  0.2416 -0.3669
 8737TIP3   OH247625   0.898   3.340   2.145 -0.4450  1.0896 -0.2027
 8737TIP3    H147626   0.930   3.251   2.132  0.9652  1.2677  1.7214
 8737TIP3    H247627   0.816   3.330   2.193 -0.5067  0.8118 -0.3677
 8738TIP3   OH247628   6.092   3.859   6.070  0.5554 -0.2464  0.2778
 8738TIP3    H147629   6.002   3.873   6.098  0.3551 -1.9698  0.5408
 8738TIP3    H247630   6.145   3.890   6.143  0.2146  1.5687 -0.2244
 8739TIP3   OH247631   5.283   6.520   4.595 -0.3291  0.0300 -0.4628
 8739TIP3    H147632   5.325   6.600   4.626 -0.7386  0.1366 -0.1776
 8739TIP3    H247633   5.221   6.497   4.664 -2.7520  1.4072 -2.0908
 8740TIP3   OH247634   3.476   2.151  16.794 -0.7867 -0.8216 -0.4032
 8740TIP3    H147635   3.487   2.195  16.879 -0.0000 -0.4353 -0.6935
 8740TIP3    H247636   3.487   2.058  16.814 -0.8307 -0.7513 -0.0435
 8741TIP3   OH247637   2.093   6.330   4.301  0.1527 -0.6972  0.2893
 8741TIP3    H147638   2.084   6.303   4.209 -1.4487 -1.4646  0.6618
 8741TIP3    H247639   2.116   6.423   4.296 -0.2670 -0.6457 -0.8754
 8742TIP3   OH247640   2.369   4.371  15.802  0.0654  0.1344 -0.0577
 8742TIP3    H147641   2.379   4.361  15.707 -2.5998  1.2032 -0.4916
 8742TIP3    H247642   2.415   4.453  15.822  1.8801 -0.8351 -0.1678
 8743TIP3   OH247643   4.393   0.651  14.147 -0.4984 -0.5364 -0.0912
 8743TIP3    H147644   4.437   0.726  14.108 -2.0613 -0.3888 -1.6299
 8743TIP3    H247645   4.376   0.678  14.238 -1.0747  1.0101 -0.6346
 8744TIP3   OH247646   4.118   3.032  12.671 -0.4410  0.0271  0.4817
 8744TIP3    H147647   4.111   3.021  12.576 -0.6313 -0.5629  0.5597
 8744TIP3    H247648   4.057   2.967  12.707 -0.4950  0.3645  1.0037
 8745TIP3   OH247649   3.469   1.938   0.686  0.1056 -0.1315  0.4251
 8745TIP3    H147650   3.476   2.011   0.748  0.4389 -0.7829  1.1667
 8745TIP3    H247651   3.409   1.969   0.619 -0.9620  0.2524  1.5454
 8746TIP3   OH247652   6.603   3.878   5.110  0.1012 -0.2460  0.1643
 8746TIP3    H147653   6.688   3.840   5.132  0.3039  1.1446  1.9245
 8746TIP3    H247654   6.602   3.884   5.015  1.3975 -1.5651  0.0603
 8747TIP3   OH247655   4.487   6.377   1.284  0.6000  0.3085 -0.4055
 8747TIP3    H147656   4.520   6.415   1.366  1.8809 -0.9873 -0.3008
 8747TIP3    H247657   4.565   6.350   1.237 -0.0677  2.0130 -2.5732
 8748TIP3   OH247658   1.079   0.099   4.618 -0.3788  0.4432 -0.5548
 8748TIP3    H147659   1.081   0.112   4.713 -0.3974  1.4910 -0.6868
 8748TIP3    H247660   1.005   0.153   4.589  0.0821  0.7144 -1.2414
 8749TIP3   OH247661   2.614   3.743  11.706 -0.1433 -0.2820  0.4394
 8749TIP3    H147662   2.652   3.779  11.625  1.0927 -0.8689  0.7556
 8749TIP3    H247663   2.560   3.670  11.677 -1.1814  0.6387 -0.0235
 8750TIP3   OH247664   1.748   4.792   5.112  0.3547  0.1128  0.3468
 8750TIP3    H147665   1.699   4.837   5.043  0.5187 -0.5096 -0.1772
 8750TIP3    H247666   1.740   4.850   5.188 -1.7404 -0.3017  0.4713
 8751TIP3   OH247667   0.900   5.518  12.699  0.6888  0.5666  0.0417
 8751TIP3    H147668   0.973   5.504  12.759 -0.5817  0.4334  1.5813
 8751TIP3    H247669   0.825   5.535  12.756 -0.5544  0.3727 -1.5122
 8752TIP3   OH247670   3.727   1.083   1.427 -0.1402  0.3396 -0.7953
 8752TIP3    H147671   3.689   1.061   1.342 -0.4171  1.6561 -1.0169
 8752TIP3    H247672   3.721   1.178   1.432 -0.8801  0.2161  1.0483
 8753TIP3   OH247673   5.249   4.360   2.366 -0.0397  0.0738  0.1731
 8753TIP3    H147674   5.335   4.353   2.324  0.4409 -1.0359  1.3070
 8753TIP3    H247675   5.264   4.334   2.457 -0.7071  4.1368  1.5616
 8754TIP3   OH247676   1.933   6.451   3.377  0.4952  0.2041  0.5564
 8754TIP3    H147677   1.949   6.542   3.352 -1.0382 -0.0368 -1.4115
 8754TIP3    H247678   1.926   6.404   3.294 -1.4493 -1.2163  1.4869
 8755TIP3   OH247679   6.633   3.218   2.716  0.2000 -0.3265  0.1216
 8755TIP3    H147680   6.726   3.210   2.740  0.5320 -3.6805 -2.0654
 8755TIP3    H247681   6.631   3.291   2.654  1.0687  0.8664  1.4404
 8756TIP3   OH247682   2.080   4.627   3.105 -1.0995  0.1848  0.1075
 8756TIP3    H147683   2.151   4.563   3.097 -2.8365 -1.9910  1.3430
 8756TIP3    H247684   2.123   4.708   3.133  0.8011 -1.2790  1.5201
 8757TIP3   OH247685   3.149   0.192  12.738 -0.0756  0.3168 -0.1813
 8757TIP3    H147686   3.057   0.165  12.736  0.1247 -0.2858 -1.5694
 8757TIP3    H247687   3.166   0.210  12.831 -1.2777 -0.6558  0.2500
 8758TIP3   OH247688   1.286   4.386   5.610 -0.3661  0.5669  0.2161
 8758TIP3    H147689   1.339   4.466   5.601 -1.2483  1.4991  2.7085
 8758TIP3    H247690   1.299   4.360   5.701 -0.9602 -1.5419 -0.2943
 8759TIP3   OH247691   1.151   1.519   2.122 -0.1591 -0.4808 -0.3804
 8759TIP3    H147692   1.173   1.570   2.044 -0.8485 -1.6226 -1.3346
 8759TIP3    H247693   1.059   1.495   2.110  0.4461 -2.8767 -0.5125
 8760TIP3   OH247694   1.390   0.802   5.577  0.2819 -0.2036 -0.2166
 8760TIP3    H147695   1.414   0.796   5.670  0.0007  0.5815 -0.0888
 8760TIP3    H247696   1.450   0.866   5.540  1.5466 -1.7900 -0.9850
 8761TIP3   OH247697   1.235   3.102  10.766 -0.2295  0.3849  0.1520
 8761TIP3    H147698   1.187   3.019  10.757  0.2498 -0.4994  4.5649
 8761TIP3    H247699   1.194   3.145  10.841  2.7290  1.8560  0.9982
 8762TIP3   OH247700   6.068   4.521  14.399 -0.1751  0.7109 -0.1580
 8762TIP3    H147701   6.145   4.491  14.351 -0.4129  1.0713 -0.7610
 8762TIP3    H247702   6.009   4.446  14.399  0.4971  0.1693  0.9901
 8763TIP3   OH247703   1.349   0.604  12.688  0.0215  1.0714 -0.1630
 8763TIP3    H147704   1.321   0.552  12.613  0.8151  0.7436 -0.2294
 8763TIP3    H247705   1.363   0.692  12.653 -2.0600  1.5451  0.0923
 8764TIP3   OH247706   5.174   0.865  12.660  0.0975  0.4831  0.2959
 8764TIP3    H147707   5.079   0.859  12.645 -0.0815  0.6065  1.3455
 8764TIP3    H247708   5.182   0.893  12.752  1.1934 -1.8332  0.9221
 8765TIP3   OH247709   0.332   0.092   1.957  0.3816  0.0823 -0.0021
 8765TIP3    H147710   0.320   0.115   1.865 -0.7524 -2.6632 -0.5764
 8765TIP3    H247711   0.422   0.062   1.962 -0.0652 -1.4236 -0.6189
 8766TIP3   OH247712   1.286   4.650   2.774 -0.7553  0.6405 -0.7927
 8766TIP3    H147713   1.249   4.594   2.706 -0.5085  1.3588 -1.5263
 8766TIP3    H247714   1.213   4.707   2.799 -1.8191 -1.7699  1.8940
 8767TIP3   OH247715   1.911   3.961   2.780 -0.3156 -0.3480 -0.2663
 8767TIP3    H147716   1.905   4.003   2.693 -0.0931 -2.3919 -1.2923
 8767TIP3    H247717   1.942   4.031   2.837 -1.1514  1.2424 -1.6848
 8768TIP3   OH247718   4.140   4.857  12.949 -0.5134  0.4170  0.4193
 8768TIP3    H147719   4.175   4.932  12.902  0.8473 -0.6266 -0.2625
 8768TIP3    H247720   4.206   4.838  13.016 -1.4755  0.6284  1.4467
 8769TIP3   OH247721   1.163   4.913  16.471  0.1718  0.0384  0.3665
 8769TIP3    H147722   1.177   4.837  16.528  0.6840 -0.4360 -0.3915
 8769TIP3    H247723   1.143   4.876  16.385 -1.1903  0.7462  0.3590
 8770TIP3   OH247724   3.707   5.455   3.807  0.4974 -0.0468 -0.3672
 8770TIP3    H147725   3.669   5.494   3.885  1.5041  1.8928 -0.8200
 8770TIP3    H247726   3.663   5.370   3.798 -0.3280  0.1485  1.7225
 8771TIP3   OH247727   3.050   2.316   1.893 -0.1639 -0.3451 -0.8738
 8771TIP3    H147728   3.047   2.410   1.910 -1.8979 -0.4680 -0.4223
 8771TIP3    H247729   2.959   2.287   1.896  0.5084 -2.4286  1.1461
 8772TIP3   OH247730   4.589   5.990   4.057  0.5525 -0.1887  0.0232
 8772TIP3    H147731   4.671   6.037   4.073  0.1109  1.3897 -2.1330
 8772TIP3    H247732   4.603   5.903   4.096  3.3491 -0.0580 -0.5874
 8773TIP3   OH247733   0.055   4.903   2.429  0.1125 -0.1663  0.6012
 8773TIP3    H147734   0.078   4.909   2.336  0.5257 -2.6890  0.5197
 8773TIP3    H247735  -0.039   4.921   2.431  0.2057  0.4829 -0.2130
 8774TIP3   OH247736   3.306   1.216   5.055 -0.4863 -0.2715  0.3699
 8774TIP3    H147737   3.339   1.242   5.141 -1.7138  0.5763  0.6098
 8774TIP3    H247738   3.215   1.247   5.054 -1.1672 -2.2460 -0.3880
 8775TIP3   OH247739   5.369   2.313  13.190  0.8076  0.0885 -0.4712
 8775TIP3    H147740   5.301   2.316  13.123  0.4926 -1.0649 -0.2052
 8775TIP3    H247741   5.349   2.235  13.241  1.5344  0.5072  0.4521
 8776TIP3   OH247742   1.917   2.745  15.040 -0.1913  0.0927  0.3234
 8776TIP3    H147743   1.885   2.804  15.109  2.3235  2.5748 -0.5096
 8776TIP3    H247744   1.859   2.762  14.966  0.1026  1.0813  0.3063
 8777TIP3   OH247745   5.349   2.589   0.994  0.0085  0.0161  0.5749
 8777TIP3    H147746   5.406   2.541   1.054  0.5295 -1.9323 -1.4255
 8777TIP3    H247747   5.333   2.528   0.922 -1.9382  1.7234 -0.4829
 8778TIP3   OH247748   2.813   6.204   2.439 -0.1370  0.2858 -0.2342
 8778TIP3    H147749   2.771   6.150   2.372 -0.3213 -0.6253  0.5915
 8778TIP3    H247750   2.798   6.294   2.411 -1.8543 -0.0460 -0.4256
 8779TIP3   OH247751   1.119   1.335  11.485 -0.0765 -0.7229  0.8538
 8779TIP3    H147752   1.034   1.297  11.505 -0.4538  0.8279  2.2899
 8779TIP3    H247753   1.104   1.429  11.483  1.3806 -0.4916 -0.0037
 8780TIP3   OH247754   0.495   6.246  15.189 -0.0380 -0.0942  0.4943
 8780TIP3    H147755   0.473   6.299  15.113  1.0475 -0.8919 -0.3849
 8780TIP3    H247756   0.424   6.182  15.195  0.3898 -0.6807 -0.4791
 8781TIP3   OH247757   2.421   6.291   3.804 -0.4107 -0.5161 -0.1653
 8781TIP3    H147758   2.443   6.360   3.742  2.2557 -1.3718 -0.2430
 8781TIP3    H247759   2.374   6.226   3.752 -1.4846  0.4884 -0.4554
 8782TIP3   OH247760   5.520   2.672   4.891  0.9560 -0.3616  0.2912
 8782TIP3    H147761   5.595   2.731   4.898 -0.0584  0.8797  1.0563
 8782TIP3    H247762   5.499   2.650   4.982  0.3419 -0.6274  0.0871
 8783TIP3   OH247763   2.287   5.668  14.120  0.3771  0.7008 -0.4068
 8783TIP3    H147764   2.201   5.672  14.163 -0.0260 -1.5431 -0.9492
 8783TIP3    H247765   2.343   5.724  14.173 -0.8432  0.3356  1.3202
 8784TIP3   OH247766   5.041   2.772   5.569 -0.1379 -0.2960  0.1739
 8784TIP3    H147767   4.975   2.708   5.596 -0.8576  0.6229  0.6571
 8784TIP3    H247768   5.048   2.761   5.474  0.3926 -1.6892  0.3814
 8785TIP3   OH247769   4.299   2.193  14.808  0.7459 -0.2802  0.5096
 8785TIP3    H147770   4.265   2.145  14.883  2.8633 -1.1111  0.9590
 8785TIP3    H247771   4.363   2.253  14.845 -0.6752  1.7752 -0.2482
 8786TIP3   OH247772   1.359   0.437   2.852  0.1515  0.4704 -0.2716
 8786TIP3    H147773   1.394   0.381   2.921 -0.0170  0.3693 -0.2683
 8786TIP3    H247774   1.346   0.378   2.777  1.3743  0.7905 -0.7457
 8787TIP3   OH247775   5.020   4.088   4.391  0.5328 -0.1918  0.5071
 8787TIP3    H147776   5.069   4.169   4.409  0.5255  0.2375 -1.3224
 8787TIP3    H247777   5.082   4.032   4.345 -0.0078 -0.5504  0.2141
 8788TIP3   OH247778   5.334   2.692  13.617 -0.8109 -0.0477  0.8065
 8788TIP3    H147779   5.394   2.765  13.603 -0.1667 -0.2974  2.2114
 8788TIP3    H247780   5.303   2.703  13.707 -0.3791 -1.7373  1.1871
 8789TIP3   OH247781   4.315   5.545   2.973 -0.0004  0.3577  0.3850
 8789TIP3    H147782   4.265   5.559   3.053 -0.2632  3.2189 -0.2136
 8789TIP3    H247783   4.406   5.537   3.003 -0.3629 -1.0161  1.1516
 8790TIP3   OH247784   5.509   1.081   3.444  0.5056 -0.2635 -0.9279
 8790TIP3    H147785   5.427   1.127   3.421 -0.0053 -0.3241  0.6745
 8790TIP3    H247786   5.569   1.152   3.468 -0.0787 -0.3486  0.9092
 8791TIP3   OH247787   2.046   4.216   4.981  0.3091 -0.0504 -0.0792
 8791TIP3    H147788   1.960   4.188   5.011  0.1793 -0.6918 -1.0021
 8791TIP3    H247789   2.107   4.161   5.029  0.1097 -1.0149 -0.9195
 8792TIP3   OH247790   5.688   2.014   2.458 -0.0018  0.5748 -0.1583
 8792TIP3    H147791   5.655   2.101   2.479 -0.4032  0.3458  0.1608
 8792TIP3    H247792   5.681   1.965   2.541  0.1094  0.2068 -0.3659
 8793TIP3   OH247793   1.699   2.504  16.244 -0.1185 -0.9053  0.8416
 8793TIP3    H147794   1.754   2.577  16.212 -1.9383  0.7291  1.3505
 8793TIP3    H247795   1.627   2.500  16.181  0.3421 -2.7703  0.4128
 8794TIP3   OH247796   3.162   4.576   2.392 -0.2746 -0.0484 -0.0468
 8794TIP3    H147797   3.104   4.561   2.467  0.2886  0.8200  0.5650
 8794TIP3    H247798   3.103   4.580   2.317 -0.8907 -0.4194  0.4139
 8795TIP3   OH247799   6.457   3.114  12.732 -0.3412  0.1932  0.2123
 8795TIP3    H147800   6.530   3.129  12.791 -0.8128  0.2382  0.7887
 8795TIP3    H247801   6.449   3.195  12.682 -1.4344  1.0407  1.7320
 8796TIP3   OH247802   5.328   5.470   1.200  0.5306  0.4622  0.0176
 8796TIP3    H147803   5.239   5.502   1.187  0.6524  0.2161 -1.5354
 8796TIP3    H247804   5.322   5.375   1.186  0.8674  0.3203  0.8283
 8797TIP3   OH247805   4.132   0.928   5.005  0.1072  0.0400  0.1144
 8797TIP3    H147806   4.181   1.010   5.012 -1.0579  0.8303 -0.8954
 8797TIP3    H247807   4.182   0.875   4.943  0.5117  0.2219  0.2843
 8798TIP3   OH247808   5.288   5.398  16.257 -0.5759  0.2337  0.1365
 8798TIP3    H147809   5.252   5.311  16.274  0.2313 -0.2619 -0.6480
 8798TIP3    H247810   5.374   5.381  16.219  0.4114  1.3988  1.7879
 8799TIP3   OH247811   2.189   1.571  15.842  0.3512  0.1054 -0.9168
 8799TIP3    H147812   2.121   1.561  15.776  0.3423  1.3463 -1.1037
 8799TIP3    H247813   2.270   1.545  15.797  0.3873  1.2415 -1.5005
 8800TIP3   OH247814   4.529   2.859  16.636  0.4012 -0.3138  0.2019
 8800TIP3    H147815   4.475   2.877  16.712 -1.4305 -0.6411 -0.9795
 8800TIP3    H247816   4.609   2.820  16.672 -0.5261 -0.6785  1.9320
 8801TIP3   OH247817   5.118   1.412  13.069  0.1173 -0.0387  0.1387
 8801TIP3    H147818   5.086   1.403  13.159 -0.0037 -0.0435  0.0945
 8801TIP3    H247819   5.184   1.343  13.060 -0.2713 -0.3996  0.0460
 8802TIP3   OH247820   1.930   3.052   3.748 -0.3450  0.5438  0.0279
 8802TIP3    H147821   1.904   3.141   3.771 -0.8121  0.4750 -0.2278
 8802TIP3    H247822   1.933   3.006   3.832  2.0660  1.3493  0.4300
 8803TIP3   OH247823   0.201   6.628   3.667  0.5640 -0.2879  0.7004
 8803TIP3    H147824   0.257   6.689   3.715  0.3822 -1.2068  2.1077
 8803TIP3    H247825   0.205   6.547   3.718 -0.4964 -0.9489 -0.2518
 8804TIP3   OH247826   1.529   2.811  10.419 -0.2268 -0.2395  0.3983
 8804TIP3    H147827   1.538   2.889  10.474 -0.8754  0.1271 -0.0142
 8804TIP3    H247828   1.549   2.841  10.330 -0.8075 -0.4612  0.1885
 8805TIP3   OH247829   5.411   1.448   2.615 -0.1365 -0.2695 -0.3646
 8805TIP3    H147830   5.497   1.456   2.571  0.2305 -1.7964  0.0350
 8805TIP3    H247831   5.356   1.405   2.550 -0.0204 -1.1481  0.1149
 8806TIP3   OH247832   4.302   5.009  11.955 -0.0491  0.9078 -0.1526
 8806TIP3    H147833   4.348   5.088  11.927  0.7468  0.6077  0.3011
 8806TIP3    H247834   4.303   4.952  11.879  1.4625  0.3899  0.2437
 8807TIP3   OH247835   5.839   2.433   3.004 -0.2912  0.3152 -0.4618
 8807TIP3    H147836   5.823   2.470   3.090 -0.7063 -0.6314 -0.1212
 8807TIP3    H247837   5.807   2.498   2.942  0.3208  1.1469  0.0868
 8808TIP3   OH247838   1.215   1.617   4.326  0.2845 -0.0674  0.3060
 8808TIP3    H147839   1.220   1.686   4.392 -0.3159  0.5366 -0.2701
 8808TIP3    H247840   1.209   1.536   4.376 -1.9767  0.5097  1.0135
 8809TIP3   OH247841   4.239   2.919  14.162 -0.6027 -0.0173 -0.0924
 8809TIP3    H147842   4.325   2.933  14.203  0.1606 -1.5194 -1.1456
 8809TIP3    H247843   4.179   2.972  14.215  0.9890  1.1822  0.5698
 8810TIP3   OH247844   6.534   6.281  12.192  0.2888 -0.3367  0.5678
 8810TIP3    H147845   6.489   6.257  12.273  1.5491 -1.8189  0.8614
 8810TIP3    H247846   6.477   6.346  12.151 -1.0763 -0.6405  1.9274
 8811TIP3   OH247847   4.232   1.052   4.070 -0.0549 -0.4533  0.1470
 8811TIP3    H147848   4.224   1.041   3.975 -0.8523 -0.4746  0.2205
 8811TIP3    H247849   4.187   0.976   4.107 -0.8135  0.2072  0.5663
 8812TIP3   OH247850   2.916   1.763   3.827 -0.5751  0.5666  0.1651
 8812TIP3    H147851   2.916   1.714   3.909  0.1227  2.6231  1.4294
 8812TIP3    H247852   2.995   1.735   3.782 -2.2438 -2.4603 -1.0098
 8813TIP3   OH247853   0.015   5.433  14.859  0.9416 -0.5239 -0.7488
 8813TIP3    H147854  -0.017   5.382  14.784 -3.5250  2.2228 -0.9003
 8813TIP3    H247855   0.066   5.503  14.820 -1.0751  0.6910 -1.3007
 8814TIP3   OH247856   4.079   6.361  16.815 -0.3610 -0.1939 -0.5603
 8814TIP3    H147857   4.061   6.291  16.878 -0.8134  1.2996  1.0274
 8814TIP3    H247858   3.996   6.376  16.771 -0.7147  0.4928  0.3189
 8815TIP3   OH247859   3.392   2.091   4.821 -0.2908 -0.4385 -1.0063
 8815TIP3    H147860   3.417   2.054   4.736  0.5052 -0.0013 -0.9605
 8815TIP3    H247861   3.449   2.167   4.832 -2.2541  1.1369 -1.3443
 8816TIP3   OH247862   1.355   3.209   3.607 -0.5760 -0.1902 -0.2385
 8816TIP3    H147863   1.337   3.123   3.645 -0.8700  0.0120  0.0716
 8816TIP3    H247864   1.448   3.224   3.625 -0.7654  0.0049  0.5881
 8817TIP3   OH247865   3.265   5.614   4.812 -0.3718 -0.1605 -0.5041
 8817TIP3    H147866   3.311   5.635   4.731  0.2629 -1.5907 -0.5383
 8817TIP3    H247867   3.321   5.548   4.854 -0.6979  0.5505  1.0847
 8818TIP3   OH247868   2.439   5.594   1.254  0.2635  0.1169 -0.1972
 8818TIP3    H147869   2.508   5.538   1.218  0.7262  1.8142 -2.0819
 8818TIP3    H247870   2.486   5.662   1.302 -0.1730  0.2318  0.0625
 8819TIP3   OH247871   5.715   3.744   4.212  0.2858 -0.2266 -0.1685
 8819TIP3    H147872   5.752   3.656   4.202  0.3854 -0.1549 -0.4290
 8819TIP3    H247873   5.695   3.750   4.306 -1.1623 -1.0933 -0.4036
 8820TIP3   OH247874   4.186   5.074   1.050 -0.4207 -0.1054 -0.1642
 8820TIP3    H147875   4.100   5.114   1.061 -0.1244  0.9287 -1.5565
 8820TIP3    H247876   4.247   5.137   1.088 -0.0052  0.5155 -1.8533
 8821TIP3   OH247877   1.143   6.433   3.121 -0.0754 -0.6514 -0.1424
 8821TIP3    H147878   1.063   6.380   3.116 -0.5198 -0.2061  1.9492
 8821TIP3    H247879   1.198   6.388   3.185 -0.2246  1.1016  1.2425
 8822TIP3   OH247880   2.515   3.058   4.121  0.0980 -0.8278 -0.3467
 8822TIP3    H147881   2.514   3.083   4.213  0.0038 -1.1820 -0.2520
 8822TIP3    H247882   2.461   2.979   4.116  2.6231 -2.6330 -0.1564
 8823TIP3   OH247883   0.258   1.479   0.959  0.3797  0.5107  0.2171
 8823TIP3    H147884   0.186   1.429   0.998  0.7336 -2.6445 -2.9204
 8823TIP3    H247885   0.337   1.443   1.001  0.4237  0.6007  0.2106
 8824TIP3   OH247886   2.354   2.784  16.375 -0.4625 -0.3975 -0.7791
 8824TIP3    H147887   2.361   2.735  16.293 -0.7055  0.5023 -1.3427
 8824TIP3    H247888   2.444   2.792  16.407  0.0371  2.1359 -2.6780
 8825TIP3   OH247889   3.219   2.201   1.718  0.5134  0.0295  0.5601
 8825TIP3    H147890   3.177   2.227   1.635 -3.0141 -1.0946  1.8945
 8825TIP3    H247891   3.181   2.260   1.783  2.0776 -0.1421  1.6429
 8826TIP3   OH247892   2.489   4.863  11.773  0.0429 -0.2199 -0.8211
 8826TIP3    H147893   2.437   4.886  11.849 -0.4492 -3.7993  0.0113
 8826TIP3    H247894   2.528   4.946  11.744 -0.5661  1.3655  2.6844
 8827TIP3   OH247895   5.040   0.726   5.164  0.2042 -0.3801 -0.0399
 8827TIP3    H147896   5.038   0.768   5.250 -1.5790 -0.6856  0.0781
 8827TIP3    H247897   5.031   0.632   5.182  2.3844 -0.6918 -0.4157
 8828TIP3   OH247898   3.954   6.334   5.824  0.9692 -0.5323  0.5158
 8828TIP3    H147899   4.009   6.281   5.882  0.0750 -0.3219  1.5598
 8828TIP3    H247900   3.865   6.319   5.853  0.6394  0.9570  0.3466
 8829TIP3   OH247901   1.635   5.510   1.551  0.5227  0.3877  0.1490
 8829TIP3    H147902   1.603   5.600   1.542 -0.4138  0.0864  0.3517
 8829TIP3    H247903   1.567   5.457   1.509 -0.3452 -0.4398  2.4981
 8830TIP3   OH247904   5.880   3.776   3.445  0.6899  0.3376 -0.2160
 8830TIP3    H147905   5.957   3.722   3.463  1.4125 -0.0941 -4.2303
 8830TIP3    H247906   5.806   3.717   3.458  1.2193 -0.2704  0.0802
 8831TIP3   OH247907   2.105   4.237   2.334  0.3228  0.5713  0.0888
 8831TIP3    H147908   2.087   4.146   2.310  0.5773  0.8517 -1.1766
 8831TIP3    H247909   2.188   4.232   2.383  0.2797  0.1104  0.1226
 8832TIP3   OH247910   4.149   1.854  11.779 -0.1362 -0.0261 -0.3079
 8832TIP3    H147911   4.109   1.922  11.725  0.4235  0.4229 -0.1573
 8832TIP3    H247912   4.213   1.900  11.833 -1.5576 -0.2425  1.6607
 8833TIP3   OH247913   2.318   4.501   1.711 -0.2285 -0.1909  0.0889
 8833TIP3    H147914   2.237   4.551   1.699 -0.5596 -0.2501  1.9771
 8833TIP3    H247915   2.382   4.566   1.738  0.1542 -0.2977 -0.5341
 8834TIP3   OH247916   5.736   4.206  13.214  0.7182  0.4630  0.4209
 8834TIP3    H147917   5.722   4.210  13.119  1.6409  0.9148  0.2887
 8834TIP3    H247918   5.742   4.112  13.233  1.1070  0.3791 -0.0728
 8835TIP3   OH247919   1.628   6.113  11.719 -0.8315 -0.4202  0.4628
 8835TIP3    H147920   1.635   6.206  11.702  1.1149 -0.4343  0.9908
 8835TIP3    H247921   1.542   6.088  11.686 -0.7702  1.2591 -1.0165
 8836TIP3   OH247922   6.480   6.575  14.297  0.4460 -0.2761  0.3758
 8836TIP3    H147923   6.422   6.597  14.224 -0.2091 -0.0566  0.9541
 8836TIP3    H247924   6.469   6.481  14.309  0.3946 -0.2766  0.3221
 8837TIP3   OH247925   6.289   1.169   4.701 -0.3907  0.4436  0.6274
 8837TIP3    H147926   6.202   1.193   4.671  0.1518  0.1762 -1.1872
 8837TIP3    H247927   6.334   1.252   4.713 -0.8160  0.5749  1.3755
 8838TIP3   OH247928   1.521   1.868  11.718  0.0223 -0.3394  0.4318
 8838TIP3    H147929   1.499   1.784  11.757  1.0038 -0.2405  1.2082
 8838TIP3    H247930   1.527   1.929  11.792  2.9023 -0.3682  0.2832
 8839TIP3   OH247931   6.643   5.403   6.211 -0.5492 -0.1317 -0.1196
 8839TIP3    H147932   6.564   5.451   6.185 -0.8159 -1.5891 -2.0913
 8839TIP3    H247933   6.623   5.372   6.300 -1.1169  1.7509  0.4483
 8840TIP3   OH247934   3.420   5.874   5.582  0.3374 -0.3014 -0.5908
 8840TIP3    H147935   3.394   5.931   5.655  0.5232  0.0295 -0.7813
 8840TIP3    H247936   3.344   5.872   5.524  0.6280  0.4395 -1.0063
 8841TIP3   OH247937   6.137   0.464  11.202  0.2407  0.0714  0.4061
 8841TIP3    H147938   6.125   0.437  11.111  0.0040 -0.8103  0.6939
 8841TIP3    H247939   6.118   0.385  11.254  1.8702  0.1448  1.1520
 8842TIP3   OH247940   6.758   0.517  11.847  0.0971 -0.3792 -0.2943
 8842TIP3    H147941   6.807   0.437  11.827 -1.0483 -0.8243 -1.4334
 8842TIP3    H247942   6.809   0.561  11.915  0.9425 -1.8953  0.0715
 8843TIP3   OH247943   6.447   2.302   5.972 -0.7684 -0.3556 -0.0529
 8843TIP3    H147944   6.415   2.213   5.962 -1.4323 -0.3496  1.7955
 8843TIP3    H247945   6.501   2.299   6.051  0.9242  0.4225 -1.1567
 8844TIP3   OH247946   5.096   2.983  14.053 -0.1003 -0.0740 -0.7203
 8844TIP3    H147947   5.162   3.035  14.098  0.6303 -1.0575 -0.6462
 8844TIP3    H247948   5.028   3.046  14.029  0.3779  0.7635  0.1128
 8845TIP3   OH247949   5.574   2.476  17.235  0.2662 -0.0069  0.1775
 8845TIP3    H147950   5.590   2.522  17.153  0.2795 -1.2627 -0.5342
 8845TIP3    H247951   5.518   2.535  17.285  0.9587  1.1484 -0.3703
 8846TIP3   OH247952   6.166   2.859   4.879 -0.0585  0.4336  0.3120
 8846TIP3    H147953   6.234   2.861   4.812  0.8618  2.1756  1.2745
 8846TIP3    H247954   6.116   2.779   4.860  2.0512 -0.7076 -0.5878
 8847TIP3   OH247955   0.202   1.102   4.819 -0.2171  0.1457  0.0278
 8847TIP3    H147956   0.207   1.197   4.804  0.9486  0.0154 -0.4555
 8847TIP3    H247957   0.109   1.086   4.839 -0.2262  1.5524  1.2669
 8848TIP3   OH247958   0.777   2.067   2.884  0.1688 -0.0526 -0.3256
 8848TIP3    H147959   0.828   2.059   2.804 -0.1877  1.0585 -0.6656
 8848TIP3    H247960   0.714   2.136   2.866  1.6982  1.9798  1.7742
 8849TIP3   OH247961   4.446   1.527   2.003  0.8733 -0.2559 -0.4551
 8849TIP3    H147962   4.395   1.581   1.943  0.5768 -0.9390 -0.8316
 8849TIP3    H247963   4.450   1.441   1.960  1.7794 -0.3871 -0.1171
 8850TIP3   OH247964   6.535   4.774   2.822 -0.4627  0.1236  0.2404
 8850TIP3    H147965   6.483   4.712   2.771 -1.7182  1.7376 -0.4938
 8850TIP3    H247966   6.494   4.776   2.908  0.1016 -0.6926  0.5325
 8851TIP3   OH247967   4.742   0.388   2.076  0.0536 -0.2136  0.6443
 8851TIP3    H147968   4.756   0.300   2.041 -2.5772 -1.0740  1.6039
 8851TIP3    H247969   4.749   0.446   2.000 -1.7966 -1.6676 -0.6801
 8852TIP3   OH247970   5.199   4.139   5.152 -0.4310  0.1155  0.0968
 8852TIP3    H147971   5.201   4.110   5.244  0.6760  0.3339  0.1443
 8852TIP3    H247972   5.283   4.112   5.117 -0.1775  1.5161 -0.4073
 8853TIP3   OH247973   4.679   6.050  14.469  0.1749  0.4432 -0.4611
 8853TIP3    H147974   4.714   5.966  14.500 -0.0940  1.0319  1.5328
 8853TIP3    H247975   4.747   6.086  14.413  0.5937 -0.7706 -0.7364
 8854TIP3   OH247976   6.298   3.594   0.403 -0.2561  0.5684 -0.5863
 8854TIP3    H147977   6.347   3.616   0.324 -0.6969 -1.3015 -1.4070
 8854TIP3    H247978   6.225   3.541   0.372 -1.1827  0.9165  0.9364
 8855TIP3   OH247979   6.066   1.434  15.112  0.4416 -0.1704 -0.5626
 8855TIP3    H147980   5.971   1.442  15.108  0.5851  1.7577 -0.5857
 8855TIP3    H247981   6.082   1.373  15.184 -0.8212 -1.0203 -0.9827
 8856TIP3   OH247982   2.264   2.683   1.498 -0.1002 -0.4547  0.4798
 8856TIP3    H147983   2.305   2.770   1.499 -2.7074  0.8727 -2.1420
 8856TIP3    H247984   2.337   2.622   1.494  1.7089  1.8005 -2.7974
 8857TIP3   OH247985   6.044   0.995   5.204 -0.6783 -0.5495  0.3296
 8857TIP3    H147986   5.997   1.067   5.246 -1.6565 -0.4608 -0.8988
 8857TIP3    H247987   6.058   1.025   5.114 -0.2038 -1.4954  0.0819
 8858TIP3   OH247988   2.948   2.495  16.099  0.5172 -0.1221  0.3974
 8858TIP3    H147989   2.980   2.519  16.187 -1.0380 -0.5199  1.0980
 8858TIP3    H247990   2.896   2.571  16.072  1.2340  0.1176 -0.3093
 8859TIP3   OH247991   6.200   4.907  12.830 -0.4851 -0.1901 -0.3507
 8859TIP3    H147992   6.212   4.899  12.925 -1.6092  1.2541 -0.0731
 8859TIP3    H247993   6.249   4.986  12.806  0.4294 -0.9750 -1.0994
 8860TIP3   OH247994   4.824   6.071  12.701  0.1004 -0.4512  0.4995
 8860TIP3    H147995   4.792   6.054  12.790  0.0569  0.1377  0.5993
 8860TIP3    H247996   4.788   6.157  12.679  0.2972 -0.4993 -0.0023
 8861TIP3   OH247997   6.731   1.419   0.061  0.1298  0.4541  0.9761
 8861TIP3    H147998   6.774   1.504   0.059  1.8265 -0.4042 -0.6986
 8861TIP3    H247999   6.802   1.356   0.075 -0.4796 -1.0203 -2.1052
 8862TIP3   OH248000   4.781   0.172  15.745 -0.2097 -0.1959  0.1053
 8862TIP3    H148001   4.734   0.142  15.823 -1.4604 -0.6311 -0.7979
 8862TIP3    H248002   4.735   0.251  15.718  0.5549  0.2581  0.1039
 8863TIP3   OH248003   3.926   3.176  16.607 -0.5780 -0.3713  0.3513
 8863TIP3    H148004   3.956   3.213  16.524 -0.2985 -0.5002  0.3976
 8863TIP3    H248005   3.853   3.119  16.583  0.6592 -1.8304 -0.0006
 8864TIP3   OH248006   2.239   0.894  12.587 -0.2611 -0.3364 -0.2028
 8864TIP3    H148007   2.152   0.857  12.599 -1.0299  1.4359 -0.1523
 8864TIP3    H248008   2.278   0.842  12.517 -1.4985 -0.9134 -0.4757
 8865TIP3   OH248009   4.991   1.494   5.879 -0.2777 -0.5111 -0.0468
 8865TIP3    H148010   4.956   1.414   5.840 -1.0695 -0.7333  1.1107
 8865TIP3    H248011   5.071   1.465   5.923  1.4287 -0.0087 -2.6600
 8866TIP3   OH248012   3.411   2.045  15.217 -0.7953  0.0195  0.3881
 8866TIP3    H148013   3.316   2.039  15.228 -0.6920 -1.6589  0.4994
 8866TIP3    H248014   3.436   2.118  15.272 -2.0367  0.5287  0.3041
 8867TIP3   OH248015   2.914   3.418   6.610  0.1821 -0.1297 -0.4906
 8867TIP3    H148016   2.997   3.372   6.616 -0.6668 -1.4440  2.0656
 8867TIP3    H248017   2.849   3.349   6.593 -0.9657  0.1850  2.3011
 8868TIP3   OH248018   3.888   5.717  16.118 -0.1028  0.5395 -0.4661
 8868TIP3    H148019   3.813   5.658  16.108  0.7266 -0.6576  0.2626
 8868TIP3    H248020   3.857   5.784  16.178 -0.7856  0.3800 -0.6324
 8869TIP3   OH248021   3.103   0.180  12.354 -0.2844  0.0979 -0.1794
 8869TIP3    H148022   3.144   0.142  12.432  1.2679  0.7905 -0.6265
 8869TIP3    H248023   3.024   0.128  12.341  1.0553 -2.0673  0.0515
 8870TIP3   OH248024   6.520   0.768   1.578  0.1264  0.5290 -0.5859
 8870TIP3    H148025   6.603   0.721   1.590 -0.3918  0.1344  1.6290
 8870TIP3    H248026   6.453   0.706   1.607 -0.8721  1.2519 -1.3024
 8871TIP3   OH248027   5.436   5.272  13.063  0.2449 -0.1952 -0.3897
 8871TIP3    H148028   5.348   5.290  13.028  0.7480  1.1268 -0.9883
 8871TIP3    H248029   5.488   5.249  12.986  0.2620 -1.6366  0.0504
 8872TIP3   OH248030   3.190   1.980  13.340  0.1061 -0.3490 -0.4830
 8872TIP3    H148031   3.231   1.902  13.377 -1.4003 -2.2821 -2.6793
 8872TIP3    H248032   3.108   1.990  13.388  1.1000  0.9646  0.9876
 8873TIP3   OH248033   6.443   5.841  14.134 -0.0896  0.4353  0.4326
 8873TIP3    H148034   6.420   5.908  14.070 -0.2663  1.6417  1.7524
 8873TIP3    H248035   6.423   5.880  14.219 -0.5023 -1.4011  1.2063
 8874TIP3   OH248036   6.424   3.117   5.732 -0.2591  0.1582 -0.3401
 8874TIP3    H148037   6.438   3.034   5.687  1.2658 -0.2129  0.7901
 8874TIP3    H248038   6.429   3.183   5.663 -2.1442 -0.7249 -1.3435
 8875TIP3   OH248039   6.048   5.857  12.275  0.5306 -0.3586 -0.3781
 8875TIP3    H148040   6.106   5.818  12.209  1.1548 -0.3922  0.1898
 8875TIP3    H248041   5.970   5.881  12.226  0.6427 -1.1796 -0.9766
 8876TIP3   OH248042   4.175   1.578   3.248  0.1374  0.4064 -0.1228
 8876TIP3    H148043   4.105   1.643   3.253 -2.1732 -1.9556 -0.5720
 8876TIP3    H248044   4.230   1.596   3.325 -0.7580  2.5200  0.0452
 8877TIP3   OH248045   5.828   3.148   5.474 -0.1901 -0.9991 -0.1519
 8877TIP3    H148046   5.783   3.074   5.517 -1.5643  0.7770  1.5714
 8877TIP3    H248047   5.829   3.124   5.381 -0.3092 -3.3389  0.4030
 8878TIP3   OH248048   4.733   4.152   0.237 -0.0750  0.5632  0.1474
 8878TIP3    H148049   4.684   4.070   0.241 -2.0882  1.5968 -2.0445
 8878TIP3    H248050   4.693   4.208   0.303  1.9985 -0.5172  2.3995
 8879TIP3   OH248051   6.556   2.357   3.856  0.0585 -0.0073  0.1541
 8879TIP3    H148052   6.603   2.423   3.906  0.3397 -0.0316 -0.0835
 8879TIP3    H248053   6.473   2.346   3.904  1.4298 -1.9880  2.1949
 8880TIP3   OH248054   2.749   0.683  11.190  0.4146  0.0182 -0.2527
 8880TIP3    H148055   2.683   0.631  11.236  1.0663  0.1488  0.8674
 8880TIP3    H248056   2.700   0.738  11.130 -0.4302 -0.4908 -0.0321
 8881TIP3   OH248057   3.404   3.205  11.389 -0.1575  0.3971  0.2883
 8881TIP3    H148058   3.393   3.300  11.378 -0.2478  0.4928  1.1766
 8881TIP3    H248059   3.315   3.170  11.385 -0.1572  0.3907  0.3321
 8882TIP3   OH248060   0.581   0.040   1.555  1.2473 -0.4064  0.0337
 8882TIP3    H148061   0.616   0.128   1.568  3.5129 -1.3243  0.3638
 8882TIP3    H248062   0.631   0.005   1.482 -1.0319 -0.7342 -1.4305
 8883TIP3   OH248063   3.543   6.756  11.998 -0.4027  0.3990 -0.4758
 8883TIP3    H148064   3.484   6.781  12.069 -0.5318 -0.7008 -0.1829
 8883TIP3    H248065   3.499   6.786  11.918 -0.6444  0.9089 -0.1477
 8884TIP3   OH248066   3.042   1.328   5.080  0.0365  0.4244 -0.2994
 8884TIP3    H148067   2.963   1.333   5.027  0.1761 -1.8591 -0.8077
 8884TIP3    H248068   3.073   1.418   5.087 -2.1105  1.2319 -0.8282
 8885TIP3   OH248069   1.153   6.677   4.485 -0.7275  0.2892  0.3235
 8885TIP3    H148070   1.096   6.747   4.517 -0.5064  0.3027  0.6911
 8885TIP3    H248071   1.145   6.608   4.551 -0.9426 -0.0303 -0.0365
 8886TIP3   OH248072   0.939   2.809  13.262  0.3687 -0.2920 -0.4915
 8886TIP3    H148073   0.859   2.822  13.313  1.8256  0.9752  1.5660
 8886TIP3    H248074   1.000   2.770  13.325  1.5132 -0.8381 -1.9218
 8887TIP3   OH248075   4.407   3.632  13.404 -0.5798 -0.3829  0.4263
 8887TIP3    H148076   4.335   3.639  13.340  0.0733 -1.6764 -0.4832
 8887TIP3    H248077   4.441   3.721  13.412 -1.1176 -0.0836 -0.5145
 8888TIP3   OH248078   2.274   1.252   0.462 -0.7500  0.2027  0.5922
 8888TIP3    H148079   2.315   1.219   0.381  1.4183  0.9238  1.3528
 8888TIP3    H248080   2.182   1.228   0.454 -0.5746  0.2723 -2.1133
 8889TIP3   OH248081   3.848   0.218  16.573 -0.4555  0.8630 -0.2498
 8889TIP3    H148082   3.868   0.151  16.639 -0.2119  1.4375  0.2679
 8889TIP3    H248083   3.753   0.220  16.570 -0.4863 -0.9632 -1.7837
 8890TIP3   OH248084   5.201   4.282   4.479  0.0377  0.2488 -0.1880
 8890TIP3    H148085   5.196   4.376   4.494  0.2865  0.2395 -0.0367
 8890TIP3    H248086   5.278   4.270   4.424 -0.3724  0.1956 -0.7549
 8891TIP3   OH248087   4.057   1.882  11.076  0.0800  0.2506  0.1133
 8891TIP3    H148088   3.984   1.885  11.138 -0.7005  1.8335 -0.8527
 8891TIP3    H248089   4.085   1.790  11.076  1.3909  0.5531  4.2548
 8892TIP3   OH248090   0.058   1.418   0.719 -0.8329 -0.5646  0.6434
 8892TIP3    H148091   0.081   1.412   0.812 -1.7947  1.3899  1.0364
 8892TIP3    H248092  -0.035   1.442   0.719 -0.6688  0.1405 -0.8062
 8893TIP3   OH248093   0.888   5.726   2.913  0.2356 -0.2566  0.0624
 8893TIP3    H148094   0.907   5.818   2.932 -1.6319  0.1576 -0.0442
 8893TIP3    H248095   0.974   5.685   2.911  0.9232  0.8559  3.2934
 8894TIP3   OH248096   5.674   3.936   5.080 -0.0656  0.5434 -0.1026
 8894TIP3    H148097   5.700   3.981   5.161 -0.0939  0.1960  0.1026
 8894TIP3    H248098   5.728   3.976   5.012  0.6258  0.1984  0.2387
 8895TIP3   OH248099   5.433   4.520   1.960 -0.6281 -0.3234 -0.5194
 8895TIP3    H148100   5.366   4.582   1.988 -0.9629 -1.2867  0.8683
 8895TIP3    H248101   5.385   4.438   1.946  0.2447 -1.0340  0.5510
 8896TIP3   OH248102   1.647   1.118   4.099 -0.0368 -0.5565 -0.2385
 8896TIP3    H148103   1.695   1.052   4.150  1.8358  0.6234 -0.4011
 8896TIP3    H248104   1.700   1.198   4.109 -1.9987  0.7978 -0.4392
 8897TIP3   OH248105   6.710   6.705  12.266  0.2303 -0.7327  0.7732
 8897TIP3    H148106   6.703   6.671  12.355 -0.9518 -2.9689 -0.1207
 8897TIP3    H248107   6.622   6.738  12.247  1.2681  2.6374  1.4938
 8898TIP3   OH248108   1.253   1.366  16.828 -0.1800 -0.5842 -0.3667
 8898TIP3    H148109   1.328   1.393  16.774 -0.6744 -0.5603 -1.0431
 8898TIP3    H248110   1.286   1.369  16.918  0.5126 -0.1713 -0.6332
 8899TIP3   OH248111   2.540   2.573  17.031  0.0663 -0.3239 -0.6801
 8899TIP3    H148112   2.549   2.668  17.031 -0.8366 -0.2257  0.5618
 8899TIP3    H248113   2.628   2.540  17.049  0.0611  0.3356  0.6288
 8900TIP3   OH248114   1.066   6.666   2.389 -0.4255 -0.9602  0.1225
 8900TIP3    H148115   0.973   6.684   2.378 -0.0924 -0.3528 -1.9033
 8900TIP3    H248116   1.071   6.570   2.390 -1.0307 -1.0018 -0.2863
 8901TIP3   OH248117   2.966   2.217  15.703  0.4022 -0.9028  0.3463
 8901TIP3    H148118   2.920   2.276  15.642  0.4371 -1.0556  0.1732
 8901TIP3    H248119   3.001   2.276  15.770 -1.3619 -0.9266  1.3295
 8902TIP3   OH248120   0.320   4.025  12.259  0.0861 -0.1866 -0.0738
 8902TIP3    H148121   0.317   4.003  12.166 -0.9815  0.0978 -0.1207
 8902TIP3    H248122   0.324   4.121  12.262 -0.7137 -0.1546  0.1720
 8903TIP3   OH248123   5.151   2.952   3.550  0.0028 -0.0516 -0.2735
 8903TIP3    H148124   5.057   2.961   3.535 -0.1912  1.5496  1.7146
 8903TIP3    H248125   5.178   2.881   3.492 -2.2270  0.2109 -1.6876
 8904TIP3   OH248126   6.161   4.978  16.038 -0.0887  0.5199 -0.1930
 8904TIP3    H148127   6.119   5.064  16.038 -0.1317  0.5248 -1.9850
 8904TIP3    H248128   6.103   4.922  15.987 -0.0668 -0.5894  0.9826
 8905TIP3   OH248129   5.250   1.732  16.801  0.4924  0.0221 -0.3494
 8905TIP3    H148130   5.234   1.814  16.849  0.7251 -0.2353  0.1798
 8905TIP3    H248131   5.306   1.757  16.728 -1.6683  0.8161 -1.7970
 8906TIP3   OH248132   2.475   3.596   5.585  0.3537 -0.1220  0.4100
 8906TIP3    H148133   2.451   3.602   5.492 -0.6152 -1.9901  0.5183
 8906TIP3    H248134   2.549   3.535   5.586  0.7663  0.3847  0.7988
 8907TIP3   OH248135   1.820   4.273  11.064 -0.2462  0.1217 -0.1509
 8907TIP3    H148136   1.830   4.368  11.054  2.0013 -0.0170  0.4654
 8907TIP3    H248137   1.802   4.241  10.976 -2.3347  1.2378 -0.1771
 8908TIP3   OH248138   1.162   0.559  14.863 -0.1755  0.5914 -0.5982
 8908TIP3    H148139   1.150   0.570  14.958 -0.7559  0.3442 -0.6402
 8908TIP3    H248140   1.095   0.495  14.838  2.0928 -1.8882 -0.5947
 8909TIP3   OH248141   6.023   5.972   1.251 -0.8476  0.2811  0.1331
 8909TIP3    H148142   6.058   6.021   1.176 -1.8763  1.3286  0.3244
 8909TIP3    H248143   6.096   5.966   1.312 -1.7196  5.0578  1.8630
 8910TIP3   OH248144   5.812   2.364   2.298 -0.3516 -0.8814  0.2844
 8910TIP3    H148145   5.757   2.425   2.248  1.5827  0.1696 -0.6253
 8910TIP3    H248146   5.855   2.311   2.231  0.2631 -1.2240  0.9527
 8911TIP3   OH248147   2.382   6.361   2.962 -0.0471 -0.0050 -0.0844
 8911TIP3    H148148   2.315   6.416   3.001  2.1411  2.8020 -0.1172
 8911TIP3    H248149   2.392   6.394   2.873  0.6199 -1.1199 -0.4369
 8912TIP3   OH248150   3.450   2.802   4.215 -0.3128  0.3950  0.1849
 8912TIP3    H148151   3.405   2.771   4.136 -1.8922  0.0862  1.1891
 8912TIP3    H248152   3.433   2.896   4.217 -1.5257  0.1683  0.9362
 8913TIP3   OH248153   4.723   4.047   4.326 -0.0259  0.7367 -0.3112
 8913TIP3    H148154   4.816   4.024   4.329  0.4239  2.3676 -1.0654
 8913TIP3    H248155   4.677   3.966   4.346  1.6117  0.3813  2.1271
 8914TIP3   OH248156   6.050   3.734  16.204  0.3503  0.7133 -0.2408
 8914TIP3    H148157   6.096   3.800  16.256  2.0497  0.8704 -1.9040
 8914TIP3    H248158   6.094   3.652  16.228 -0.4953  0.4443  0.3984
 8915TIP3   OH248159   0.662   0.121  15.596 -0.2060  0.3627  0.1222
 8915TIP3    H148160   0.590   0.183  15.598 -0.7815 -0.2959 -0.0608
 8915TIP3    H248161   0.734   0.167  15.638 -0.9679  0.7343  1.0423
 8916TIP3   OH248162   6.500   1.505   3.058  0.1425 -0.3256 -0.4338
 8916TIP3    H148163   6.499   1.411   3.040  1.3251 -0.7082  1.3523
 8916TIP3    H248164   6.408   1.529   3.066 -0.0890 -2.1973  3.2572
 8917TIP3   OH248165   1.936   3.690   5.390 -0.1786  0.2977  0.0316
 8917TIP3    H148166   1.922   3.669   5.482 -3.3967 -0.9650 -0.6847
 8917TIP3    H248167   1.980   3.613   5.355  1.0678  0.7876  0.4884
 8918TIP3   OH248168   4.198   4.474   0.345  0.4442 -0.2965  0.3042
 8918TIP3    H148169   4.210   4.491   0.252 -1.8540  2.0953  0.3816
 8918TIP3    H248170   4.286   4.467   0.380  1.4339  3.5298 -1.2231
 8919TIP3   OH248171   1.328   6.571  15.829  0.4928 -0.1813  0.0602
 8919TIP3    H148172   1.385   6.597  15.757 -0.6882  0.6376 -0.5777
 8919TIP3    H248173   1.281   6.494  15.797 -0.1931  0.3153 -0.1131
 8920TIP3   OH248174   0.949   1.224  15.987 -0.1690  0.5167  0.5787
 8920TIP3    H148175   0.931   1.256  15.899 -1.3007 -1.4765  0.0406
 8920TIP3    H248176   0.995   1.141  15.973 -0.6542  0.0153  1.8694
 8921TIP3   OH248177   6.018   3.777   1.006  0.3313 -0.0593 -0.3990
 8921TIP3    H148178   5.967   3.779   1.086 -1.1432 -0.8829 -1.2997
 8921TIP3    H248179   6.066   3.860   1.005 -0.3375  0.3460  0.8582
 8922TIP3   OH248180   3.063   1.627   1.538 -0.2810  0.6767 -0.1625
 8922TIP3    H148181   2.983   1.612   1.488  0.1411  1.5056 -1.0917
 8922TIP3    H248182   3.107   1.698   1.493 -0.9289  2.9502  2.6680
 8923TIP3   OH248183   0.998   1.533   3.877 -0.1989 -0.1872 -0.1891
 8923TIP3    H148184   1.046   1.583   3.943  0.2618 -1.0596  0.1467
 8923TIP3    H248185   1.036   1.560   3.794  1.9248 -1.9513  0.1589
 8924TIP3   OH248186   6.365   2.571   1.220  0.1185 -0.3512 -0.1466
 8924TIP3    H148187   6.352   2.626   1.297 -0.4615 -0.1631 -0.3811
 8924TIP3    H248188   6.454   2.537   1.230  1.0570  1.8426 -0.7772
 8925TIP3   OH248189   5.427   0.667   1.143 -0.3212 -0.1119 -0.0753
 8925TIP3    H148190   5.419   0.617   1.061 -0.6983  2.0642 -1.3927
 8925TIP3    H248191   5.474   0.746   1.119  0.3115  0.1756  2.0188
 8926TIP3   OH248192   3.389   1.835   2.293 -0.8217 -0.3049 -0.1090
 8926TIP3    H148193   3.385   1.742   2.271  0.3646 -1.1333  2.9090
 8926TIP3    H248194   3.323   1.846   2.362  2.3472 -0.0041  3.0026
 8927TIP3   OH248195   5.478   2.550  16.749  0.0048 -0.2630  0.6111
 8927TIP3    H148196   5.471   2.639  16.715  0.7867 -0.6631 -0.6358
 8927TIP3    H248197   5.467   2.494  16.672  1.2208 -1.2034  1.1118
 8928TIP3   OH248198   1.564   6.354   2.031  0.0532 -0.4939 -0.0915
 8928TIP3    H148199   1.633   6.312   1.980  0.1908 -1.3894  0.8206
 8928TIP3    H248200   1.575   6.320   2.119 -0.5344  0.6197  0.4200
 8929TIP3   OH248201   6.051   5.967   2.148  0.1572  0.2511 -0.8233
 8929TIP3    H148202   5.985   5.900   2.166  2.0735 -1.4083  0.2584
 8929TIP3    H248203   6.003   6.036   2.102 -2.0979 -1.3654 -1.0012
 8930TIP3   OH248204   1.265   5.469   3.199 -0.2001 -0.3927  0.8596
 8930TIP3    H148205   1.235   5.380   3.177 -2.5696  0.2649  1.2300
 8930TIP3    H248206   1.282   5.465   3.293 -1.3501 -0.1912  1.0837
 8931TIP3   OH248207   2.953   1.739   1.795  0.2388  0.1185  0.4019
 8931TIP3    H148208   2.999   1.715   1.714 -0.1308  0.2200  0.1616
 8931TIP3    H248209   2.947   1.834   1.791  0.6348  0.1620  0.7760
 8932TIP3   OH248210   1.765   3.158  15.646 -0.6580 -0.3096 -0.5007
 8932TIP3    H148211   1.683   3.134  15.603  0.0411 -0.2676 -1.8714
 8932TIP3    H248212   1.830   3.155  15.577  0.0216  2.3736 -0.0199
 8933TIP3   OH248213   2.910   0.245  15.805  0.3787  0.0858 -0.0456
 8933TIP3    H148214   2.941   0.250  15.714 -0.8221 -0.5745 -0.4999
 8933TIP3    H248215   2.833   0.302  15.807  1.3192  1.3674  0.9703
 8934TIP3   OH248216   4.941   5.797   5.239 -0.3847 -0.1118  0.3394
 8934TIP3    H148217   5.026   5.828   5.269  0.3982 -0.7258 -1.2248
 8934TIP3    H248218   4.960   5.733   5.171 -2.1221  2.1511 -2.3978
 8935TIP3   OH248219   4.957   6.158   5.083 -0.3721  0.0796  0.3658
 8935TIP3    H148220   5.036   6.106   5.071 -1.2111 -2.0244  3.3402
 8935TIP3    H248221   4.885   6.095   5.072 -1.4772  1.0247  2.0429
 8936TIP3   OH248222   0.050   1.707  11.485 -0.0658  0.9343 -0.3523
 8936TIP3    H148223   0.046   1.767  11.412  0.8945  0.6477 -0.6506
 8936TIP3    H248224   0.142   1.708  11.512 -0.7091  2.3556  1.9561
 8937TIP3   OH248225   6.151   0.150   2.751  0.3506  0.3026  0.0181
 8937TIP3    H148226   6.215   0.082   2.770 -0.2380 -0.4745 -0.7863
 8937TIP3    H248227   6.182   0.191   2.670 -0.9705 -1.0844 -1.2223
 8938TIP3   OH248228   0.466   4.286   3.317  0.2618  0.0768  0.3374
 8938TIP3    H148229   0.489   4.342   3.392  2.0107  0.6974 -0.6360
 8938TIP3    H248230   0.550   4.255   3.284 -0.0267  4.0788 -4.6259
 8939TIP3   OH248231   6.384   0.839  12.687  0.2116  0.5619 -0.0961
 8939TIP3    H148232   6.421   0.753  12.701  0.6014  0.7856  0.2460
 8939TIP3    H248233   6.395   0.885  12.770 -0.8495  0.6243  0.0279
 8940TIP3   OH248234   5.475   3.761  15.748 -0.1857 -0.7376  0.0904
 8940TIP3    H148235   5.431   3.680  15.723  0.4828 -0.7965 -0.9420
 8940TIP3    H248236   5.419   3.830  15.715 -0.2079 -0.7905  0.0169
 8941TIP3   OH248237   5.906   6.061   3.337  0.2376 -0.4336  0.1075
 8941TIP3    H148238   5.855   6.073   3.417 -1.0344  0.0055 -0.7436
 8941TIP3    H248239   5.992   6.096   3.358 -0.4884  0.9444  0.8580
 8942TIP3   OH248240   6.325   1.499   2.848  0.0885  0.1418 -0.3271
 8942TIP3    H148241   6.276   1.573   2.884 -0.7723  0.7946 -2.7386
 8942TIP3    H248242   6.383   1.538   2.783  0.2835 -1.1886 -0.9610
 8943TIP3   OH248243   2.955   0.424  12.849  0.1277  0.0062  0.4017
 8943TIP3    H148244   2.992   0.408  12.762 -0.7791 -2.4078  0.4152
 8943TIP3    H248245   3.026   0.401  12.910 -0.7345 -2.8172  0.3841
 8944TIP3   OH248246   5.563   2.539  13.404 -0.4110  0.6804  0.2740
 8944TIP3    H148247   5.619   2.465  13.383 -0.3670  1.1347 -1.2370
 8944TIP3    H248248   5.573   2.550  13.499 -1.2918 -1.9382  0.7221
 8945TIP3   OH248249   4.740   1.549   5.593 -0.0638  0.3675  0.5618
 8945TIP3    H148250   4.670   1.550   5.528  1.3024 -0.8012 -0.9604
 8945TIP3    H248251   4.755   1.456   5.610  0.9223  0.6154  1.0895
 8946TIP3   OH248252   1.756   3.016   4.013 -0.0152 -0.6358  0.4557
 8946TIP3    H148253   1.699   2.978   4.079  0.0063 -0.4928  0.5564
 8946TIP3    H248254   1.699   3.034   3.939  0.0238 -1.1117  0.3085
 8947TIP3   OH248255   0.369   1.118  17.186  0.0199 -0.0331 -0.8473
 8947TIP3    H148256   0.340   1.199  17.228 -0.4850 -0.1669 -0.9261
 8947TIP3    H248257   0.463   1.130  17.171  0.1048  0.2110 -0.1292
 8948TIP3   OH248258   0.867   1.739  12.716  0.4387 -0.0770  0.5651
 8948TIP3    H148259   0.845   1.821  12.672 -0.5266  0.3111  1.7382
 8948TIP3    H248260   0.941   1.704  12.666 -0.0735  0.7773 -0.8152
 8949TIP3   OH248261   2.937   4.710   1.229  0.5380  0.8712  0.1744
 8949TIP3    H148262   2.881   4.788   1.233  0.1879  0.7859 -2.1837
 8949TIP3    H248263   2.901   4.651   1.296 -1.4490  1.3070 -0.4659
 8950TIP3   OH248264   3.197   4.742  11.255  0.1156  0.2776 -0.6244
 8950TIP3    H148265   3.185   4.836  11.264  1.6337  0.2907  1.7268
 8950TIP3    H248266   3.214   4.728  11.161  1.4365  2.5247 -0.7476
 8951TIP3   OH248267   1.451   6.388  13.843  0.4432  0.3334 -0.2434
 8951TIP3    H148268   1.394   6.427  13.909  0.4423  1.9884 -1.1852
 8951TIP3    H248269   1.540   6.399  13.878  0.3751  0.3481 -0.0747
 8952TIP3   OH248270   3.957   4.490  16.595 -0.2533 -0.3580 -0.1317
 8952TIP3    H148271   3.952   4.556  16.526 -1.5838  0.4148  0.6831
 8952TIP3    H248272   3.981   4.539  16.674  2.2295 -1.3754 -0.2287
 8953TIP3   OH248273   0.665   3.194   3.650  0.0895 -0.2297  0.0371
 8953TIP3    H148274   0.619   3.276   3.632 -1.3116 -0.7492  1.1996
 8953TIP3    H248275   0.738   3.219   3.706  0.9955  0.5409 -1.4698
 8954TIP3   OH248276   5.345   6.047   2.662  0.6005 -0.0306 -0.1499
 8954TIP3    H148277   5.281   6.117   2.679  2.0358  1.8251 -2.2089
 8954TIP3    H248278   5.313   6.004   2.583  0.7473 -0.4880  0.0376
 8955TIP3   OH248279   1.069   2.698   1.331  0.1718  0.4449 -0.0402
 8955TIP3    H148280   1.006   2.636   1.367  1.0029 -1.4820 -1.7979
 8955TIP3    H248281   1.154   2.663   1.357  0.6522  0.7615 -1.1373
 8956TIP3   OH248282   1.626   0.067  17.086 -0.5368  0.4118 -0.5400
 8956TIP3    H148283   1.557   0.082  17.021 -1.7547  1.2890  0.9141
 8956TIP3    H248284   1.608   0.132  17.155  0.5983 -0.6270  0.7586
 8957TIP3   OH248285   0.848   6.342   0.006  0.0417  0.2664  0.5290
 8957TIP3    H148286   0.798   6.335  -0.075  1.3187 -2.4609 -0.1171
 8957TIP3    H248287   0.788   6.382   0.068 -2.3504 -1.2517 -0.7018
 8958TIP3   OH248288   3.472   6.098   4.538  0.6353 -0.0124  0.0889
 8958TIP3    H148289   3.389   6.058   4.566  1.1176 -0.7052  0.5718
 8958TIP3    H248290   3.449   6.154   4.465 -0.3654  0.3223  0.6540
 8959TIP3   OH248291   0.786   6.242  15.189 -0.4525 -0.2780  0.5360
 8959TIP3    H148292   0.693   6.219  15.186 -0.6098  0.2123  1.4399
 8959TIP3    H248293   0.787   6.338  15.184 -0.1376 -0.1218  2.9153
 8960TIP3   OH248294   5.338   4.843   4.828  0.1355  0.5684 -0.1311
 8960TIP3    H148295   5.392   4.863   4.904  0.4753  1.3376 -0.5768
 8960TIP3    H248296   5.359   4.752   4.807 -0.0792  0.3010  0.7892
 8961TIP3   OH248297   5.151   5.156  16.250 -0.3607 -0.3620 -0.2428
 8961TIP3    H148298   5.214   5.090  16.219 -0.7812 -1.4564  1.1504
 8961TIP3    H248299   5.081   5.154  16.185 -1.3216 -2.7565  0.7967
 8962TIP3   OH248300   4.095   5.261  15.062  0.3291  0.1540  0.3411
 8962TIP3    H148301   4.171   5.212  15.030 -0.6640 -1.3646  0.2582
 8962TIP3    H248302   4.118   5.353  15.046  1.6470 -0.3455 -0.7906
 8963TIP3   OH248303   5.542   3.392  14.221 -0.0401  0.2330 -0.1605
 8963TIP3    H148304   5.635   3.379  14.204  0.1165  0.5559  0.4728
 8963TIP3    H248305   5.530   3.371  14.313 -0.2402  2.0499  0.2598
 8964TIP3   OH248306   4.534   0.628   4.218 -0.3433  0.3019 -0.3795
 8964TIP3    H148307   4.618   0.651   4.257 -0.4164 -1.1832  0.6889
 8964TIP3    H248308   4.476   0.612   4.293 -0.4992 -2.5148 -1.0473
 8965TIP3   OH248309   6.112   4.811  16.786  0.4339  0.2968 -0.1657
 8965TIP3    H148310   6.022   4.841  16.773  0.1613 -0.3672  0.1991
 8965TIP3    H248311   6.125   4.810  16.880  0.7552  0.1716 -0.2093
 8966TIP3   OH248312   5.523   0.197  15.241  0.2245  0.9001 -0.2150
 8966TIP3    H148313   5.610   0.191  15.280  0.2019 -0.0592 -0.2912
 8966TIP3    H248314   5.465   0.223  15.313  0.3585  0.1969  0.1538
 8967TIP3   OH248315   3.184   5.785   5.888  0.2564  0.2506 -0.0466
 8967TIP3    H148316   3.274   5.753   5.878  0.2481  0.1245  0.2711
 8967TIP3    H248317   3.160   5.760   5.977 -0.8501 -1.6028 -0.8584
 8968TIP3   OH248318   0.919   5.966   6.251  0.6198 -0.1171 -0.3241
 8968TIP3    H148319   0.868   5.921   6.184  0.9971 -2.2289  0.7596
 8968TIP3    H248320   0.914   5.909   6.328 -0.2025  2.4736  1.6202
 8969TIP3   OH248321   4.936   5.353   5.125  0.3378  0.4973 -0.4652
 8969TIP3    H148322   4.910   5.283   5.065 -1.2892  1.1642 -0.5665
 8969TIP3    H248323   4.882   5.340   5.203 -0.9887  2.4085 -1.0088
 8970TIP3   OH248324   5.697   5.256   4.305 -0.2347  0.0180  0.1881
 8970TIP3    H148325   5.729   5.172   4.338  0.8853  1.0779  1.9090
 8970TIP3    H248326   5.655   5.297   4.381  0.3116  1.5357 -0.2994
 8971TIP3   OH248327   4.102   5.697   5.449 -0.1318 -0.3518 -0.0252
 8971TIP3    H148328   4.144   5.661   5.371  0.4611  2.4311 -1.0714
 8971TIP3    H248329   4.164   5.764   5.480 -1.1101 -0.3036  1.8740
 8972TIP3   OH248330   2.181   4.109  10.960 -0.1076 -0.4402 -0.7418
 8972TIP3    H148331   2.220   4.023  10.969 -0.1379 -0.2328  1.7485
 8972TIP3    H248332   2.142   4.109  10.873  0.4093 -2.7141 -0.9995
 8973TIP3   OH248333   4.758   6.657   4.122 -0.1563 -0.3803 -0.2001
 8973TIP3    H148334   4.706   6.619   4.051  0.4804 -1.0053 -0.3388
 8973TIP3    H248335   4.708   6.640   4.201 -0.7570  0.1120 -0.4693
 8974TIP3   OH248336   6.609   3.084  16.157  0.3282  0.3536 -0.1520
 8974TIP3    H148337   6.645   3.134  16.230 -0.4023 -1.0237  1.1753
 8974TIP3    H248338   6.640   2.994  16.171 -0.0856  0.0074 -1.3517
 8975TIP3   OH248339   4.741   6.161   4.776 -0.1989 -0.3320 -0.2557
 8975TIP3    H148340   4.806   6.133   4.840 -0.2501 -0.4141 -0.2393
 8975TIP3    H248341   4.767   6.250   4.753 -0.2148 -0.2803 -0.0764
 8976TIP3   OH248342   0.652   6.099   4.370  0.1826  0.2416  0.7097
 8976TIP3    H148343   0.702   6.038   4.424  1.5512  1.4727  0.8796
 8976TIP3    H248344   0.705   6.110   4.291 -1.0910 -0.4039 -0.2397
 8977TIP3   OH248345   3.184   6.302  12.823 -0.0493 -0.8109  0.3207
 8977TIP3    H148346   3.273   6.274  12.843  0.1946  1.0369  2.0050
 8977TIP3    H248347   3.135   6.281  12.902 -0.1584  2.1429  1.0645
 8978TIP3   OH248348   2.010   1.493  15.625  0.1317  0.1580 -0.5116
 8978TIP3    H148349   2.041   1.433  15.557 -1.2195  0.4635 -1.4237
 8978TIP3    H248350   1.943   1.443  15.672 -1.2620  1.0385 -1.5119
 8979TIP3   OH248351   5.859   0.924  16.047 -0.6314  0.0247 -0.4422
 8979TIP3    H148352   5.913   0.938  15.970 -0.7254  1.8975 -0.1811
 8979TIP3    H248353   5.854   0.829  16.056  2.4232 -0.1977 -0.5995
 8980TIP3   OH248354   4.545   3.262   1.263 -0.0109 -0.7055 -0.1105
 8980TIP3    H148355   4.505   3.184   1.224 -0.0888 -0.8697  0.2952
 8980TIP3    H248356   4.531   3.331   1.199 -0.5887 -0.8559 -0.1504
 8981TIP3   OH248357   3.691   6.134   3.360 -0.2683 -0.1773 -0.3605
 8981TIP3    H148358   3.637   6.096   3.429 -0.4244  0.6577 -0.0180
 8981TIP3    H248359   3.728   6.059   3.314 -0.4190 -0.7335  0.4308
 8982TIP3   OH248360   0.857   4.779  11.449 -0.4594 -0.0575 -0.5842
 8982TIP3    H148361   0.948   4.811  11.446  1.3917 -4.5037  2.3407
 8982TIP3    H248362   0.824   4.811  11.533  0.1364 -2.4955  0.6155
 8983TIP3   OH248363   5.358   0.588   5.134 -0.3353  0.1300  0.1358
 8983TIP3    H148364   5.351   0.683   5.140 -3.0127 -0.0307 -0.0850
 8983TIP3    H248365   5.307   0.554   5.207 -0.5806 -1.1390 -0.5937
 8984TIP3   OH248366   2.127   0.949   2.637 -0.4422 -0.7091 -1.0913
 8984TIP3    H148367   2.166   1.009   2.701  0.1678 -1.4750 -0.7325
 8984TIP3    H248368   2.201   0.915   2.587 -0.7188 -1.5473 -0.9516
 8985TIP3   OH248369   3.979   2.676  15.010 -0.0628 -0.1243 -0.4869
 8985TIP3    H148370   4.008   2.754  15.055 -2.4266 -0.4707  1.7647
 8985TIP3    H248371   4.054   2.616  15.013  0.3553  0.4882  1.5073
 8986TIP3   OH248372   1.311   3.633  15.801 -0.4361  0.1742  0.2115
 8986TIP3    H148373   1.395   3.675  15.783 -0.4388  0.5936  1.1234
 8986TIP3    H248374   1.319   3.545  15.765 -1.0409  1.4744 -3.2639
 8987TIP3   OH248375   5.969   4.539  14.989 -0.2443  0.4365  0.2068
 8987TIP3    H148376   5.983   4.634  14.979 -0.8774  0.5523  0.3939
 8987TIP3    H248377   6.054   4.505  15.014  0.3050  0.7770 -1.1277
 8988TIP3   OH248378   5.147   3.054   1.783 -0.1658  0.5962  0.5336
 8988TIP3    H148379   5.093   3.095   1.850  0.2892  0.6028  0.8957
 8988TIP3    H248380   5.108   3.082   1.700  1.0632  3.0658  0.7460
 8989TIP3   OH248381   1.088   4.155  11.578  0.0245  0.2985  0.1291
 8989TIP3    H148382   1.075   4.067  11.613  0.1033  0.1179 -0.2858
 8989TIP3    H248383   1.013   4.169  11.519  0.5615  0.1038 -0.6036
 8990TIP3   OH248384   1.583   2.218  14.731  0.0247 -0.2432  0.1930
 8990TIP3    H148385   1.509   2.167  14.698 -1.5375  1.9719  0.1418
 8990TIP3    H248386   1.559   2.240  14.821 -0.5902  2.5817 -0.5937
 8991TIP3   OH248387   4.338   5.487  13.877  0.1246  0.1382 -0.4092
 8991TIP3    H148388   4.269   5.421  13.891  1.3209 -0.6377  2.0927
 8991TIP3    H248389   4.398   5.445  13.815  0.7020 -1.0123  0.9068
 8992TIP3   OH248390   3.766   3.966   3.401  0.3802 -0.7056 -0.4585
 8992TIP3    H148391   3.829   3.923   3.342  0.4143 -0.6188 -0.4854
 8992TIP3    H248392   3.715   4.023   3.343 -1.7600 -3.0586 -0.9609
 8993TIP3   OH248393   3.546   3.467   1.111 -0.2348  0.2110 -0.7975
 8993TIP3    H148394   3.551   3.546   1.057  1.2316 -0.0295 -1.0413
 8993TIP3    H248395   3.475   3.416   1.072 -0.6738  1.0568 -1.1194
 8994TIP3   OH248396   6.214   3.265  13.521  0.3790  0.4691  0.7015
 8994TIP3    H148397   6.249   3.247  13.608  1.1237 -1.5841 -0.0001
 8994TIP3    H248398   6.251   3.197  13.466 -1.4065  0.7621 -0.8961
 8995TIP3   OH248399   1.085   1.795   2.742 -0.0118  0.0137  0.3142
 8995TIP3    H148400   0.999   1.764   2.716 -0.8683  1.2174  1.6240
 8995TIP3    H248401   1.128   1.718   2.781 -0.5349 -0.5558 -0.2371
 8996TIP3   OH248402   1.534   0.067   0.947 -0.1834  0.1033 -0.0053
 8996TIP3    H148403   1.602   0.000   0.954 -0.6530 -0.1918  2.0382
 8996TIP3    H248404   1.580   0.145   0.917  0.7211 -0.6022 -0.4746
 8997TIP3   OH248405   3.629   1.054   0.408 -0.1686 -0.1116 -0.3162
 8997TIP3    H148406   3.594   1.047   0.319 -0.0052 -2.5432 -0.2235
 8997TIP3    H248407   3.645   0.964   0.434  1.2056  0.6740  1.6326
 8998TIP3   OH248408   3.681   5.665  14.118 -0.5384 -0.0205  0.3115
 8998TIP3    H148409   3.758   5.634  14.070  0.3221 -0.7024  2.0693
 8998TIP3    H248410   3.620   5.592  14.115 -0.0596 -0.4682  1.1319
 8999TIP3   OH248411   1.543   5.346  13.508 -0.7836 -0.1534  0.0852
 8999TIP3    H148412   1.594   5.320  13.585 -0.2971  1.1806  0.2275
 8999TIP3    H248413   1.602   5.403  13.459 -1.4365 -0.2267 -0.7825
 9000TIP3   OH248414   4.503   0.816   1.709 -1.0455  0.4928 -0.1880
 9000TIP3    H148415   4.473   0.903   1.737  0.3290  0.1494  2.4809
 9000TIP3    H248416   4.535   0.775   1.789  1.2423 -1.3147 -1.9781
 9001TIP3   OH248417   6.342   3.594   1.913 -0.1345  0.7481 -0.4365
 9001TIP3    H148418   6.356   3.583   2.007  0.1156 -0.8501 -0.6560
 9001TIP3    H248419   6.396   3.670   1.891  1.3487 -0.0338  0.3664
 9002TIP3   OH248420   1.775   2.796  15.461  0.0208  0.3145 -0.3886
 9002TIP3    H148421   1.837   2.869  15.460  1.1275 -0.6242 -1.8282
 9002TIP3    H248422   1.805   2.740  15.533  0.1314  0.4581 -0.3210
 9003TIP3   OH248423   0.769   1.687  14.398  0.1237  0.2543 -0.3240
 9003TIP3    H148424   0.734   1.606  14.437 -0.0899 -0.0102 -1.0484
 9003TIP3    H248425   0.845   1.658  14.347  0.5082  0.6230  0.0382
 9004TIP3   OH248426   0.662   6.068   1.813  0.3819  0.4902 -0.0888
 9004TIP3    H148427   0.658   5.984   1.858  1.1587  0.2289 -0.4953
 9004TIP3    H248428   0.575   6.077   1.773  0.1902  0.0283  0.2146
 9005TIP3   OH248429   2.501   5.043   1.333  0.1340 -0.3825 -0.0734
 9005TIP3    H148430   2.471   5.034   1.242  0.6982  2.1381 -0.5531
 9005TIP3    H248431   2.421   5.044   1.385 -0.3538  0.8503 -0.8252
 9006TIP3   OH248432   4.988   3.747   1.586 -0.1966  0.2106  0.0756
 9006TIP3    H148433   4.987   3.755   1.490 -1.8208  0.3381  0.0797
 9006TIP3    H248434   4.939   3.823   1.616 -1.2224 -0.7653  0.9171
 9007TIP3   OH248435   3.023   4.579   2.158  0.3515  0.8558 -0.0602
 9007TIP3    H148436   2.934   4.568   2.193  0.2776  1.7955  0.0479
 9007TIP3    H248437   3.019   4.541   2.070  0.4274 -1.1556  0.7562
 9008TIP3   OH248438   6.029   2.725  16.568 -0.2452  0.0566  0.6322
 9008TIP3    H148439   6.043   2.761  16.480 -0.8943 -1.4100 -0.0877
 9008TIP3    H248440   5.939   2.747  16.589 -0.4045 -0.4471  0.5039
 9009TIP3   OH248441   3.047   4.880  16.404 -0.0923  0.5288  0.4800
 9009TIP3    H148442   3.006   4.949  16.457  2.0301  1.2387  1.2528
 9009TIP3    H248443   3.117   4.925  16.357 -0.0561 -0.7008 -0.6758
 9010TIP3   OH248444   0.883   6.343   5.278 -0.5193 -0.4227  0.7987
 9010TIP3    H148445   0.932   6.261   5.289 -0.4264 -0.2146  2.0225
 9010TIP3    H248446   0.894   6.389   5.362 -1.4577  0.3563  0.5055
 9011TIP3   OH248447   6.242   2.563  16.336  0.1386  0.2190 -0.5861
 9011TIP3    H148448   6.180   2.636  16.333 -0.0464  0.0465 -0.9967
 9011TIP3    H248449   6.248   2.541  16.429  0.1136  0.6849 -0.4679
 9012TIP3   OH248450   6.384   4.676   1.282  0.1421  0.5351 -0.4215
 9012TIP3    H148451   6.401   4.587   1.315 -0.0261  1.4235  2.1989
 9012TIP3    H248452   6.454   4.729   1.321 -1.0732  1.9276 -0.0946
 9013TIP3   OH248453   6.082   4.503   3.894 -0.0802  0.1119  0.5574
 9013TIP3    H148454   6.027   4.457   3.831  1.6446 -0.8233 -0.2781
 9013TIP3    H248455   6.163   4.521   3.847  0.3918  1.3702  1.8164
 9014TIP3   OH248456   4.785   3.936  17.233 -0.9146  0.0591  0.1271
 9014TIP3    H148457   4.875   3.927  17.264 -1.0660  1.0110  0.8584
 9014TIP3    H248458   4.731   3.928  17.311 -1.3269  1.8895  0.0608
 9015TIP3   OH248459   6.585   4.091  13.055 -0.0671 -0.0827  0.0331
 9015TIP3    H148460   6.504   4.117  13.099  1.1457 -0.1622  2.3823
 9015TIP3    H248461   6.577   3.996  13.043 -1.2591  0.2179 -1.7937
 9016TIP3   OH248462   4.311   0.922   1.371 -0.1083 -0.3835  0.6418
 9016TIP3    H148463   4.401   0.902   1.397 -0.7841 -1.3459  2.3257
 9016TIP3    H248464   4.280   0.843   1.327 -0.2171 -0.1571  0.3126
 9017TIP3   OH248465   5.924   0.553  11.728 -0.0028  0.1585 -0.3570
 9017TIP3    H148466   5.852   0.598  11.774 -0.3831 -0.8696  0.0657
 9017TIP3    H248467   5.988   0.535  11.797 -0.3885 -1.0155 -0.2891
 9018TIP3   OH248468   0.900   1.716  16.978 -0.3608 -0.1140  0.1521
 9018TIP3    H148469   0.914   1.808  16.999  0.7906 -0.1646 -0.3548
 9018TIP3    H248470   0.894   1.713  16.883  1.6525 -0.8107  0.0224
 9019TIP3   OH248471   4.949   2.354  16.698 -0.2671  0.1583  0.3836
 9019TIP3    H148472   4.941   2.421  16.767 -1.8660  0.1258  0.2359
 9019TIP3    H248473   4.910   2.276  16.736  0.7764 -0.4545  0.2098
 9020TIP3   OH248474   2.783   5.144   2.669  0.3713 -0.5983  0.4138
 9020TIP3    H148475   2.842   5.129   2.596  1.5723 -0.6636  1.3763
 9020TIP3    H248476   2.739   5.226   2.649  0.0969 -1.0168 -0.7543
 9021TIP3   OH248477   0.699   5.548  15.771  0.2903  0.2153 -0.3155
 9021TIP3    H148478   0.775   5.527  15.716  1.2065  0.2324  0.9087
 9021TIP3    H248479   0.734   5.608  15.837 -1.1980  1.6226 -0.7815
 9022TIP3   OH248480   5.933   3.080  14.246 -0.1402 -0.2740 -0.0405
 9022TIP3    H148481   5.919   3.162  14.198 -2.0862 -1.1726 -1.0338
 9022TIP3    H248482   5.919   3.103  14.338 -0.9449  0.4495 -0.3426
 9023TIP3   OH248483   6.515   4.013  10.681  0.2213  0.2228  0.0293
 9023TIP3    H148484   6.547   3.923  10.672  1.5407  0.5941  0.8195
 9023TIP3    H248485   6.586   4.059  10.725 -0.2584  1.7716 -0.7870
 9024TIP3   OH248486   5.400   3.645  12.617  0.2120 -0.6310  0.4565
 9024TIP3    H148487   5.392   3.682  12.529  0.8794 -0.0163  0.6469
 9024TIP3    H248488   5.381   3.552  12.606 -0.2464 -0.4613 -0.2425
 9025TIP3   OH248489   1.400   1.735  11.136 -0.2023 -0.9704  0.2552
 9025TIP3    H148490   1.371   1.730  11.044  2.1817  1.8681 -0.7480
 9025TIP3    H248491   1.495   1.747  11.130 -0.2652  1.4670  2.9839
 9026TIP3   OH248492   5.969   4.837  11.318  0.3398  0.0384  0.1598
 9026TIP3    H148493   6.028   4.855  11.245  1.2774 -0.2994  0.8222
 9026TIP3    H248494   6.027   4.822  11.392 -0.5829 -0.4134  0.7965
 9027TIP3   OH248495   1.305   2.434   4.267  0.2651  0.1757  0.0879
 9027TIP3    H148496   1.214   2.432   4.297  1.1381  1.6044  3.0765
 9027TIP3    H248497   1.310   2.510   4.209 -0.4839 -0.0027 -0.2103
 9028TIP3   OH248498   1.776   4.815  11.279 -0.0044  0.0289  0.0503
 9028TIP3    H148499   1.793   4.832  11.186 -2.1193  2.1754  0.0117
 9028TIP3    H248500   1.706   4.750  11.280  0.7272 -0.7701  0.1703
 9029TIP3   OH248501   5.743   3.578   6.332 -0.0161 -0.5882 -0.1275
 9029TIP3    H148502   5.732   3.491   6.369 -0.7381 -0.5063 -0.1443
 9029TIP3    H248503   5.765   3.633   6.407 -0.2751 -0.6491 -0.0064
 9030TIP3   OH248504   2.355   0.178   0.516 -0.1668  0.0950  0.0962
 9030TIP3    H148505   2.411   0.255   0.518  0.7963 -0.6106  0.2811
 9030TIP3    H248506   2.292   0.196   0.446 -2.1501  2.5574  2.3787
 9031TIP3   OH248507   0.708   4.143  13.413  0.4781  0.2089 -0.2740
 9031TIP3    H148508   0.781   4.151  13.352  1.2527  3.7373  0.9552
 9031TIP3    H248509   0.630   4.163  13.362  0.7441 -0.2649 -0.8613
 9032TIP3   OH248510   6.058   5.749  15.758  0.4613 -0.1517 -0.5846
 9032TIP3    H148511   6.019   5.734  15.672 -0.3668 -2.5374  0.1550
 9032TIP3    H248512   6.028   5.836  15.784 -2.8062 -1.1318 -0.8807
 9033TIP3   OH248513   0.522   2.774  12.279  0.1630  0.1155 -0.5921
 9033TIP3    H148514   0.613   2.784  12.251 -0.1776  1.9510 -1.1359
 9033TIP3    H248515   0.488   2.863  12.281 -1.4886 -0.5100  0.0905
 9034TIP3   OH248516   5.828   4.419   0.631 -0.6081 -0.0167 -0.5522
 9034TIP3    H148517   5.773   4.410   0.709 -1.5514  0.8572 -1.1049
 9034TIP3    H248518   5.805   4.505   0.595  2.1157  0.9422 -0.0334
 9035TIP3   OH248519   3.543   4.644  11.351 -0.2666 -0.0191  0.3090
 9035TIP3    H148520   3.504   4.560  11.326 -1.4568  0.9262 -1.0584
 9035TIP3    H248521   3.525   4.652  11.444 -1.1077 -0.7649  0.2121
 9036TIP3   OH248522   5.838   5.562   0.657 -0.2910  0.0301  0.0969
 9036TIP3    H148523   5.929   5.567   0.688 -0.3658  0.3350  0.2689
 9036TIP3    H248524   5.842   5.506   0.579  0.0691  0.1769  0.0110
 9037TIP3   OH248525   4.210   4.079  13.975  0.0717  0.5928 -0.1419
 9037TIP3    H148526   4.161   4.003  14.004 -0.8752  1.3642  0.3085
 9037TIP3    H248527   4.213   4.137  14.051  3.9898 -0.5622  0.6935
 9038TIP3   OH248528   3.119   0.676   3.044  0.2850 -0.1124  0.1317
 9038TIP3    H148529   3.024   0.666   3.044  0.4323 -1.6574 -0.2442
 9038TIP3    H248530   3.142   0.686   3.137 -0.3195  1.1595  0.1524
 9039TIP3   OH248531   1.228   4.908  15.456 -0.8482  0.5613 -0.3102
 9039TIP3    H148532   1.207   4.906  15.363  0.5416 -1.7979 -0.6040
 9039TIP3    H248533   1.184   4.831  15.493 -0.0550  0.5723  0.6763
 9040TIP3   OH248534   3.897   5.622  13.962  0.2994  0.3369 -0.0113
 9040TIP3    H148535   3.939   5.551  13.913  1.5085  0.3841  0.9122
 9040TIP3    H248536   3.906   5.699  13.905  2.0144  0.4714  0.3891
 9041TIP3   OH248537   4.516   3.618   4.552 -0.7766 -0.1262  0.1999
 9041TIP3    H148538   4.561   3.682   4.495 -0.8068 -0.5570 -0.3121
 9041TIP3    H248539   4.571   3.540   4.547 -1.1262 -0.3731  0.2607
 9042TIP3   OH248540   5.934   0.877  12.250 -0.0516 -0.2146  0.5157
 9042TIP3    H148541   5.888   0.795  12.232 -0.2107 -0.0331  0.0909
 9042TIP3    H248542   5.993   0.889  12.176 -0.0859  0.0982  0.5368
 9043TIP3   OH248543   6.448   2.180  15.077 -0.1879 -0.4149  0.4489
 9043TIP3    H148544   6.408   2.221  15.000 -0.3424 -1.3507  0.0273
 9043TIP3    H248545   6.435   2.244  15.147 -0.0930  0.4313 -0.2828
 9044TIP3   OH248546   0.675   6.128  12.071  0.0191  0.4814 -0.1630
 9044TIP3    H148547   0.589   6.123  12.113  0.1995  1.0635  0.2928
 9044TIP3    H248548   0.716   6.206  12.110  0.2761  0.9054 -1.2721
 9045TIP3   OH248549   4.443   3.736  13.946 -0.0319 -0.2952  0.2066
 9045TIP3    H148550   4.538   3.744  13.951  0.0195 -1.6064  1.7316
 9045TIP3    H248551   4.419   3.680  14.020 -1.9462 -0.3722 -0.4280
 9046TIP3   OH248552   3.700   3.797   5.276 -0.4167  0.4909 -0.2734
 9046TIP3    H148553   3.697   3.893   5.284 -0.3370  0.6927 -2.3527
 9046TIP3    H248554   3.658   3.779   5.192 -0.4981 -1.3228  0.1378
 9047TIP3   OH248555   1.291   6.478  13.045 -0.6642  0.8793 -0.1442
 9047TIP3    H148556   1.223   6.511  13.104 -0.1489  3.2281 -0.7692
 9047TIP3    H248557   1.262   6.507  12.958  0.8021  1.3662 -0.4790
 9048TIP3   OH248558   4.871   3.110  13.841  0.2824 -0.8907  0.9199
 9048TIP3    H148559   4.862   3.029  13.790 -1.3704 -0.1758  0.0236
 9048TIP3    H248560   4.904   3.174  13.778 -3.1221  0.3634  0.2639
 9049TIP3   OH248561   5.803   3.109  15.522 -0.0865  0.1523 -0.5903
 9049TIP3    H148562   5.797   3.204  15.530 -1.2782 -0.0481  1.3211
 9049TIP3    H248563   5.877   3.085  15.577  0.3138 -0.0140 -1.2025
 9050TIP3   OH248564   5.650   6.760  14.565  0.5712 -0.3410  0.0175
 9050TIP3    H148565   5.644   6.789  14.656  0.6158  0.8346 -0.3450
 9050TIP3    H248566   5.593   6.682  14.561 -0.0352  0.0482  0.8656
 9051TIP3   OH248567   5.256   5.113   1.858  0.2245 -1.1134  0.2722
 9051TIP3    H148568   5.291   5.033   1.896  2.2010  1.0976  3.2885
 9051TIP3    H248569   5.229   5.166   1.933 -1.9061  0.7042 -1.6931
 9052TIP3   OH248570   2.726   5.470   2.204  0.2373  0.6270 -1.3930
 9052TIP3    H148571   2.660   5.515   2.256  0.1101 -2.1097  0.9316
 9052TIP3    H248572   2.809   5.512   2.227  0.0221  0.2244  0.1113
 9053TIP3   OH248573   2.495   4.337   4.013 -0.0507 -0.8228 -0.2983
 9053TIP3    H148574   2.544   4.395   3.956 -2.0529  1.3144  0.1250
 9053TIP3    H248575   2.415   4.316   3.965 -1.0674 -0.1959  1.0874
 9054TIP3   OH248576   2.978   3.726   2.036 -0.1612 -0.2797 -0.2198
 9054TIP3    H148577   2.942   3.814   2.028 -1.1315 -0.6074  0.3608
 9054TIP3    H248578   3.008   3.720   2.127 -2.8449 -1.5136  0.6488
 9055TIP3   OH248579   3.815   2.060  11.522  0.1290 -0.6975 -0.4223
 9055TIP3    H148580   3.758   2.137  11.527  1.4482  0.2632 -0.0594
 9055TIP3    H248581   3.767   1.992  11.569 -0.3971  0.3033  0.4947
 9056TIP3   OH248582   4.318   6.492  16.850 -0.3467  0.6708 -0.0683
 9056TIP3    H148583   4.275   6.571  16.883 -0.4339  1.0334 -1.0507
 9056TIP3    H248584   4.247   6.436  16.820 -0.3655 -0.2349  1.5503
 9057TIP3   OH248585   5.305   1.258  15.079  0.1171 -0.1023  0.3142
 9057TIP3    H148586   5.220   1.261  15.122  0.2055 -0.0528  0.4855
 9057TIP3    H248587   5.310   1.340  15.029  0.6001  0.4877  1.3153
 9058TIP3   OH248588   6.503   1.876  13.855 -0.9890 -0.0391 -0.4199
 9058TIP3    H148589   6.455   1.862  13.774  0.3985  0.9853 -1.4415
 9058TIP3    H248590   6.502   1.971  13.868  0.6128 -0.0134 -0.3801
 9059TIP3   OH248591   6.384   1.622  16.705 -0.0677  0.3341  0.5812
 9059TIP3    H148592   6.467   1.595  16.666  0.4112  2.1416  0.2941
 9059TIP3    H248593   6.378   1.573  16.786  1.2084  0.0664  0.5272
 9060TIP3   OH248594   3.805   3.099  13.835  0.0816  0.3081  0.0466
 9060TIP3    H148595   3.858   3.174  13.809  1.2780 -1.2989 -2.3411
 9060TIP3    H248596   3.746   3.085  13.761 -1.1416 -0.2151  1.1053
 9061TIP3   OH248597   4.279   6.302   4.762  0.1256 -0.3345  0.0785
 9061TIP3    H148598   4.347   6.358   4.724 -0.1404 -1.4250 -2.1256
 9061TIP3    H248599   4.326   6.222   4.788 -0.2871 -1.1303 -1.5431
 9062TIP3   OH248600   6.122   4.722   3.630 -0.4803 -0.2078  0.0281
 9062TIP3    H148601   6.188   4.653   3.621  0.3996  0.3369  2.1767
 9062TIP3    H248602   6.147   4.787   3.564 -0.2425 -1.0607 -0.7474
 9063TIP3   OH248603   1.708   2.180  16.892  0.4869 -0.3499  0.6577
 9063TIP3    H148604   1.732   2.127  16.816  0.5943 -1.4635  1.4609
 9063TIP3    H248605   1.626   2.142  16.924  0.3095  0.2698  0.9576
 9064TIP3   OH248606   1.044   2.283   1.161  0.3820  0.4444  0.0906
 9064TIP3    H148607   1.060   2.262   1.253  1.5763 -0.0338 -0.2148
 9064TIP3    H248608   0.954   2.316   1.159 -0.6324 -2.1571  0.9984
 9065TIP3   OH248609   1.860   3.751   0.996 -0.2622  0.1688  0.0008
 9065TIP3    H148610   1.818   3.818   0.942 -0.4788  1.7023  2.0485
 9065TIP3    H248611   1.795   3.681   1.002 -0.6594  0.4629 -0.7912
 9066TIP3   OH248612   1.694   1.428  13.567 -0.7543 -1.0636 -0.0236
 9066TIP3    H148613   1.605   1.463  13.563 -1.9239 -3.8504  0.6268
 9066TIP3    H248614   1.709   1.390  13.480  0.6171  1.1401 -0.8199
 9067TIP3   OH248615   2.439   3.296  14.277  0.4620 -0.7417 -0.3786
 9067TIP3    H148616   2.438   3.293  14.373  0.5785  1.6113 -0.2813
 9067TIP3    H248617   2.479   3.213  14.252  0.9331 -1.1642  1.6311
 9068TIP3   OH248618   3.866   1.121  11.090  0.1877 -0.2134 -0.6221
 9068TIP3    H148619   3.794   1.089  11.144  2.7046  1.7823  4.2425
 9068TIP3    H248620   3.828   1.194  11.040 -1.3044  0.5960  1.6020
 9069TIP3   OH248621   6.679   2.613   5.185  0.0589  0.0460 -0.0686
 9069TIP3    H148622   6.626   2.605   5.264  0.6660 -0.5754  0.2814
 9069TIP3    H248623   6.759   2.656   5.214  0.0824  0.2607 -0.4423
 9070TIP3   OH248624   4.257   0.555  15.285 -1.0512 -0.2966 -0.7806
 9070TIP3    H148625   4.193   0.539  15.215  1.0754  0.3301 -2.9153
 9070TIP3    H248626   4.275   0.649  15.278 -0.1584 -0.4143  0.0362
 9071TIP3   OH248627   2.904   0.775   3.720  0.2349 -0.3090  0.1881
 9071TIP3    H148628   2.822   0.810   3.684 -0.2961 -1.2269  0.5079
 9071TIP3    H248629   2.969   0.842   3.698 -0.5619  0.3509 -0.2166
 9072TIP3   OH248630   3.870   3.841   3.946 -0.0193 -0.1213  0.2489
 9072TIP3    H148631   3.778   3.819   3.929  0.5271 -1.8101 -0.6823
 9072TIP3    H248632   3.908   3.854   3.860  0.7113  0.2095  0.6156
 9073TIP3   OH248633   1.602   4.096  16.245 -0.3109 -0.1488 -0.0498
 9073TIP3    H148634   1.516   4.058  16.263 -0.1012 -0.2394  0.8104
 9073TIP3    H248635   1.661   4.052  16.307  0.1507  0.7303  0.1473
 9074TIP3   OH248636   0.082   5.034   1.098  0.5186  0.1021  0.0972
 9074TIP3    H148637   0.172   5.008   1.114  0.1470 -0.2491  1.8032
 9074TIP3    H248638   0.088   5.112   1.044  1.8260 -0.1990 -0.2044
 9075TIP3   OH248639   5.444   1.533  13.182  0.5238  0.3470  0.1081
 9075TIP3    H148640   5.452   1.573  13.095  0.0507  0.7603  0.2562
 9075TIP3    H248641   5.535   1.516  13.209  0.6588 -0.0964 -0.6099
 9076TIP3   OH248642   0.115   3.904   0.660  0.0947  0.1322  0.1166
 9076TIP3    H148643   0.155   3.933   0.742  0.6764 -0.3534  0.0088
 9076TIP3    H248644   0.163   3.953   0.592 -2.4810  2.9544  0.2046
 9077TIP3   OH248645   2.935   6.594  15.855 -0.1292 -0.5030  0.1798
 9077TIP3    H148646   2.996   6.596  15.929  0.3047 -0.9182 -0.1574
 9077TIP3    H248647   2.988   6.622  15.780 -1.0825  1.9133  0.3671
 9078TIP3   OH248648   0.526   1.749   2.465 -0.2324  0.4681  0.0207
 9078TIP3    H148649   0.454   1.795   2.422  0.0279 -0.8226 -1.8557
 9078TIP3    H248650   0.503   1.657   2.459  0.1654  0.1965  2.0924
 9079TIP3   OH248651   1.117   3.473  13.818 -0.5182  0.3591 -0.1899
 9079TIP3    H148652   1.096   3.494  13.909  0.3921  2.6267 -0.4737
 9079TIP3    H248653   1.153   3.384  13.821  1.3303  1.1305  1.9319
 9080TIP3   OH248654   5.591   2.016   6.385  0.1787  0.7692  0.9335
 9080TIP3    H148655   5.584   1.926   6.415 -0.9226  0.4765 -0.1824
 9080TIP3    H248656   5.501   2.048   6.381  0.4434  1.4444 -0.0692
 9081TIP3   OH248657   6.336   3.460  13.792 -0.3667  0.0036 -0.6326
 9081TIP3    H148658   6.383   3.381  13.766  0.7030  0.1877  0.7282
 9081TIP3    H248659   6.383   3.532  13.749 -0.2924  0.0607 -0.4547
 9082TIP3   OH248660   4.068   1.102  17.026  0.2358 -0.2000  0.6681
 9082TIP3    H148661   4.018   1.183  17.020  0.6728  0.0470  0.2777
 9082TIP3    H248662   4.146   1.119  16.973  0.0595 -1.0694  0.1253
 9083TIP3   OH248663   1.884   1.796   0.565 -0.1499 -0.3201  0.8057
 9083TIP3    H148664   1.915   1.709   0.538  1.6878  0.2711  0.9485
 9083TIP3    H248665   1.883   1.793   0.660  0.2527 -0.0826  0.8201
 9084TIP3   OH248666   2.308   2.025  15.210 -0.1732 -0.0277 -0.1389
 9084TIP3    H148667   2.280   1.956  15.270 -0.6965 -0.6325 -1.0727
 9084TIP3    H248668   2.312   2.103  15.265  0.5864 -0.8154  0.9755
 9085TIP3   OH248669   4.416   5.066   3.171  0.0546 -0.0682 -0.1621
 9085TIP3    H148670   4.354   5.035   3.237 -0.1170  1.4623  0.4178
 9085TIP3    H248671   4.501   5.065   3.215 -0.1300  1.4256  0.2827
 9086TIP3   OH248672   1.811   5.847   1.253  0.3188 -0.6092 -0.4449
 9086TIP3    H148673   1.856   5.920   1.211  1.5459 -1.3312 -0.3941
 9086TIP3    H248674   1.881   5.787   1.278 -0.5785 -1.1854  0.7062
 9087TIP3   OH248675   1.504   3.473  13.350 -0.5414 -0.0311  0.0658
 9087TIP3    H148676   1.573   3.407  13.341 -0.6512 -0.4369  2.0208
 9087TIP3    H248677   1.436   3.444  13.290  0.2452 -0.6118 -0.5549
 9088TIP3   OH248678   1.751   5.281   5.986  0.0856  0.5776 -0.4515
 9088TIP3    H148679   1.817   5.231   6.033 -1.6042 -2.0919 -0.7661
 9088TIP3    H248680   1.693   5.315   6.054  0.3760  0.8107 -0.3212
 9089TIP3   OH248681   3.633   4.977  17.205 -0.3573  0.3031 -0.0903
 9089TIP3    H148682   3.649   5.070  17.214 -2.1826  0.6909 -0.5826
 9089TIP3    H248683   3.606   4.947  17.292  0.3706  0.2034  0.1022
 9090TIP3   OH248684   1.386   1.100   5.570 -0.7329 -0.5171 -0.7490
 9090TIP3    H148685   1.319   1.050   5.617 -0.2178 -0.0388  0.5175
 9090TIP3    H248686   1.374   1.076   5.479 -2.9988 -0.0411 -0.6049
 9091TIP3   OH248687   4.167   4.964  11.373 -0.8039 -0.9183 -0.4598
 9091TIP3    H148688   4.136   5.053  11.389 -1.2509 -0.5787 -2.9097
 9091TIP3    H248689   4.256   4.963  11.409 -0.9496  0.3873 -0.0289
 9092TIP3   OH248690   2.280   5.966   3.944  0.6017 -0.4234  0.0668
 9092TIP3    H148691   2.368   5.947   3.976 -0.0097 -1.0156  1.4012
 9092TIP3    H248692   2.255   6.047   3.989  0.1601 -0.6719  0.2654
 9093TIP3   OH248693   1.109   3.926  14.968  0.2546 -0.1540  0.1977
 9093TIP3    H148694   1.018   3.948  14.990 -0.4224 -2.1826 -0.4202
 9093TIP3    H248695   1.154   3.924  15.052 -0.5248 -0.2521  0.6244
 9094TIP3   OH248696   1.287   3.353   6.175 -0.3146  0.5403 -0.0418
 9094TIP3    H148697   1.341   3.341   6.253 -0.0258 -2.6576 -0.6806
 9094TIP3    H248698   1.216   3.290   6.184 -0.3355  0.1815 -2.3181
 9095TIP3   OH248699   1.577   4.994  11.242 -0.0889 -0.0055  0.4745
 9095TIP3    H148700   1.647   4.940  11.278  2.1307  2.5649  0.1252
 9095TIP3    H248701   1.609   5.023  11.157 -1.7769  0.8011  0.0809
 9096TIP3   OH248702   1.099   6.470   6.105  0.1729 -0.3715 -0.0116
 9096TIP3    H148703   1.113   6.448   6.197 -0.1221  1.8954  0.6042
 9096TIP3    H248704   1.103   6.386   6.059  1.0241 -1.4434  1.9771
 9097TIP3   OH248705   0.432   1.193  13.555 -0.4981  0.0064  0.1413
 9097TIP3    H148706   0.377   1.237  13.490  1.7363  0.9874 -1.1390
 9097TIP3    H248707   0.522   1.209  13.525  0.4849 -1.9169  1.9475
 9098TIP3   OH248708   3.468   3.775   3.520 -0.3841 -0.0100  0.4075
 9098TIP3    H148709   3.558   3.747   3.539 -1.4999 -2.5414  2.3317
 9098TIP3    H248710   3.455   3.853   3.573  0.3976 -0.1595  0.8226
 9099TIP3   OH248711   0.282   4.312   1.525  0.2297  0.5773 -0.1720
 9099TIP3    H148712   0.339   4.314   1.602 -0.0278  1.5384 -0.0013
 9099TIP3    H248713   0.338   4.345   1.454  1.4899 -3.3252 -1.1168
 9100TIP3   OH248714   3.280   5.285  15.959 -0.8170  0.0556 -0.1846
 9100TIP3    H148715   3.265   5.295  16.053  0.6691 -0.2653  0.0864
 9100TIP3    H248716   3.281   5.374  15.925  1.4092  0.3329  0.5425
 9101TIP3   OH248717   5.959   3.763  16.590 -0.1090 -0.4274  0.5808
 9101TIP3    H148718   6.014   3.819  16.536 -0.3228 -0.6068  0.1737
 9101TIP3    H248719   5.978   3.674  16.560 -2.6762 -0.3464 -1.5459
 9102TIP3   OH248720   3.190   2.579   0.580  0.5728  0.3436 -0.1421
 9102TIP3    H148721   3.151   2.664   0.563  0.3317 -0.0645 -1.6966
 9102TIP3    H248722   3.281   2.587   0.552 -0.0265 -0.5656 -2.4446
 9103TIP3   OH248723   3.232   0.170  14.099  0.2037 -0.2557 -0.1322
 9103TIP3    H148724   3.277   0.212  14.026 -0.4643  0.6438 -0.0448
 9103TIP3    H248725   3.240   0.076  14.082  3.2119 -0.1568  0.5838
 9104TIP3   OH248726   1.657   1.203  15.566 -0.4206 -0.3512  0.0218
 9104TIP3    H148727   1.595   1.245  15.506 -0.6244 -0.6128  0.0479
 9104TIP3    H248728   1.736   1.191  15.513 -0.0991  0.7449  0.2356
 9105TIP3   OH248729   6.012   3.217  12.893  0.1621  0.6651  0.5503
 9105TIP3    H148730   6.059   3.221  12.977  0.9043 -2.0999  0.3326
 9105TIP3    H248731   5.968   3.132  12.895  0.2089  0.5614 -1.8743
 9106TIP3   OH248732   6.631   4.884  15.573  0.2689 -0.0192 -0.0904
 9106TIP3    H148733   6.605   4.974  15.591 -1.4487 -0.3058 -1.0356
 9106TIP3    H248734   6.576   4.832  15.632 -0.9832 -0.6116 -1.7570
 9107TIP3   OH248735   6.674   3.738  12.684 -0.9450  0.1430  0.0844
 9107TIP3    H148736   6.582   3.725  12.660 -0.5777  2.2651 -2.8160
 9107TIP3    H248737   6.674   3.819  12.735 -0.6623  0.4483 -0.3870
 9108TIP3   OH248738   0.277   2.920   4.739  0.1100  0.3016 -0.4594
 9108TIP3    H148739   0.285   2.999   4.792 -0.8773  0.2910 -0.2900
 9108TIP3    H248740   0.219   2.863   4.789 -0.8627  0.3056 -1.5706
 9109TIP3   OH248741   2.968   4.977  14.539  0.3770  0.0482  0.0223
 9109TIP3    H148742   2.940   5.052  14.488 -0.5008  1.6388  2.7477
 9109TIP3    H248743   2.906   4.973  14.612  1.6055 -2.1166  0.9933
 9110TIP3   OH248744   2.122   2.475   2.769  0.1672  0.1351 -0.3161
 9110TIP3    H148745   2.123   2.380   2.783 -0.9590 -0.0434 -1.3887
 9110TIP3    H248746   2.045   2.490   2.714  1.2547  1.4899 -1.4795
 9111TIP3   OH248747   2.718   5.769  10.938  0.0580 -0.6466  0.3777
 9111TIP3    H148748   2.812   5.778  10.928 -0.2192 -1.2955 -3.8220
 9111TIP3    H248749   2.699   5.680  10.908 -2.2227  0.6382 -2.2814
 9112TIP3   OH248750   1.048   1.882   2.095  0.7035  0.2769  0.2852
 9112TIP3    H148751   1.005   1.945   2.037 -0.6915 -0.1130  0.8896
 9112TIP3    H248752   1.094   1.823   2.036  2.2574  2.0027 -0.2869
 9113TIP3   OH248753   4.574   0.871   3.333  0.0024 -0.6619  0.2532
 9113TIP3    H148754   4.480   0.872   3.319  0.0082  0.7591  0.1669
 9113TIP3    H248755   4.603   0.957   3.302  0.8912  0.1313  3.2047
 9114TIP3   OH248756   4.659   6.651  16.203 -1.0338  0.0161  0.0421
 9114TIP3    H148757   4.619   6.568  16.226 -1.2153  0.4387  1.2554
 9114TIP3    H248758   4.611   6.680  16.125 -1.4412 -0.6624  0.0391
 9115TIP3   OH248759   6.229   1.917  16.749 -0.0396 -0.3808  0.2290
 9115TIP3    H148760   6.146   1.966  16.755 -0.2928 -0.5535 -1.6250
 9115TIP3    H248761   6.221   1.849  16.815 -1.4192 -0.4493  0.0061
 9116TIP3   OH248762   4.582   3.567   5.224  0.5495  0.0785 -0.0049
 9116TIP3    H148763   4.552   3.614   5.302 -0.7664 -0.4985 -0.1461
 9116TIP3    H248764   4.503   3.556   5.171  0.6153 -2.9950  0.4037
 9117TIP3   OH248765   1.343   6.468  14.090 -0.2170 -0.7712  0.1556
 9117TIP3    H148766   1.361   6.406  14.160  1.1688 -0.8537 -0.2488
 9117TIP3    H248767   1.274   6.525  14.124  0.3483 -0.8889  1.5322
 9118TIP3   OH248768   3.359   4.232  13.536  0.6783 -0.2290 -0.1726
 9118TIP3    H148769   3.338   4.175  13.463 -1.8528  0.3167  0.0827
 9118TIP3    H248770   3.287   4.295  13.539  1.3451  0.4793  2.0655
 9119TIP3   OH248771   0.345   1.042   0.574  0.1605  0.1298  0.1728
 9119TIP3    H148772   0.404   1.100   0.622  0.4947  0.7233 -0.9382
 9119TIP3    H248773   0.281   1.101   0.535  0.7395 -0.2208 -1.3075
 9120TIP3   OH248774   0.033   4.689  10.951  0.5607 -0.2211  0.2882
 9120TIP3    H148775   0.081   4.772  10.950  2.4232 -1.2683  1.1846
 9120TIP3    H248776   0.081   4.632  10.891  1.4403 -1.7871  2.3984
 9121TIP3   OH248777   2.143   5.600   4.699  1.2811 -0.0972  0.1683
 9121TIP3    H148778   2.223   5.652   4.705 -0.5460  2.9446 -0.7068
 9121TIP3    H248779   2.112   5.615   4.610 -1.6588  0.9415  1.3323
 9122TIP3   OH248780   1.164   2.795   4.864  0.0820  0.0131  0.7151
 9122TIP3    H148781   1.235   2.817   4.926 -0.0023  0.1474  0.7641
 9122TIP3    H248782   1.089   2.777   4.920  0.2083 -0.6190  0.6835
 9123TIP3   OH248783   3.955   0.232  14.179  0.2151  0.1390 -0.9398
 9123TIP3    H148784   3.980   0.207  14.268 -0.0732 -1.0694 -1.1979
 9123TIP3    H248785   3.866   0.266  14.189  0.5112  0.8492 -0.6354
 9124TIP3   OH248786   3.668   4.174  14.282 -0.3696 -0.3228  0.2312
 9124TIP3    H148787   3.642   4.128  14.362 -0.2407  1.0580  1.0778
 9124TIP3    H248788   3.761   4.192  14.294 -0.1708 -0.7800 -0.5741
 9125TIP3   OH248789   6.384   0.984  10.948 -0.0917 -0.3177 -0.0914
 9125TIP3    H148790   6.380   0.892  10.920 -0.0066 -0.1473 -0.6623
 9125TIP3    H248791   6.443   1.026  10.885 -2.6152  0.8319 -1.7661
 9126TIP3   OH248792   5.611   2.066  14.556  0.4402  0.3555  0.0445
 9126TIP3    H148793   5.547   2.018  14.609 -1.2278  0.7323 -1.5840
 9126TIP3    H248794   5.611   2.021  14.472  1.9930  0.6668 -0.1410
 9127TIP3   OH248795   5.176   5.323   4.130 -0.0212  0.4029 -0.4293
 9127TIP3    H148796   5.263   5.307   4.167 -1.0557 -2.5324  0.8975
 9127TIP3    H248797   5.176   5.278   4.045 -0.8012 -1.2305  0.4011
 9128TIP3   OH248798   5.031   3.461  15.676  0.0510 -0.3777 -0.4084
 9128TIP3    H148799   5.080   3.488  15.597  1.7100  1.4476  1.1934
 9128TIP3    H248800   5.006   3.543  15.717  0.7508 -1.3003  1.9126
 9129TIP3   OH248801   2.776   0.786   4.771 -0.1967  0.7517 -0.1528
 9129TIP3    H148802   2.855   0.758   4.819 -0.7535  0.6254  0.6962
 9129TIP3    H248803   2.738   0.704   4.739 -2.3245  0.3699  3.1017
 9130TIP3   OH248804   4.937   5.693  16.062 -0.1229 -0.5770  0.4883
 9130TIP3    H148805   4.992   5.672  16.138 -0.2593  1.0800  1.0649
 9130TIP3    H248806   4.998   5.731  15.998  0.1502 -2.7624 -0.6089
 9131TIP3   OH248807   2.362   5.770   2.302  0.1054  0.0180  0.8246
 9131TIP3    H148808   2.337   5.861   2.316 -1.0117 -0.6646  3.7024
 9131TIP3    H248809   2.457   5.769   2.313  0.1335  0.8698  0.6782
 9132TIP3   OH248810   4.783   6.170  10.610  0.4078 -0.6103 -0.1773
 9132TIP3    H148811   4.712   6.105  10.613  0.2528 -0.4069  0.7915
 9132TIP3    H248812   4.804   6.186  10.702  0.2419  0.9333 -0.3992
 9133TIP3   OH248813   0.090   5.135   0.706  0.7068 -0.4072 -0.1217
 9133TIP3    H148814   0.031   5.205   0.735 -1.3610 -2.5942  1.1743
 9133TIP3    H248815   0.176   5.162   0.737 -0.0170  1.6470  0.1877
 9134TIP3   OH248816   2.461   4.005   1.951  0.2719 -0.0873  0.0865
 9134TIP3    H148817   2.441   4.062   1.876  1.3475 -0.1293 -0.2413
 9134TIP3    H248818   2.478   3.919   1.911 -0.9449 -0.5490  0.5440
 9135TIP3   OH248819   0.223   5.043   3.701  0.5078 -0.2762 -0.1861
 9135TIP3    H148820   0.165   5.059   3.626 -0.6766 -1.5930  0.4390
 9135TIP3    H248821   0.310   5.034   3.662  0.2203  1.0852 -1.1971
 9136TIP3   OH248822   6.309   3.656   3.979 -0.0096  0.2640  0.1871
 9136TIP3    H148823   6.331   3.743   4.013  0.2241  1.1312 -2.0798
 9136TIP3    H248824   6.230   3.671   3.927  0.3102 -0.7944 -0.6097
 9137TIP3   OH248825   6.133   5.640  13.444  0.3670  0.2633 -0.3307
 9137TIP3    H148826   6.097   5.645  13.532 -0.8234 -0.1810 -0.7770
 9137TIP3    H248827   6.217   5.686  13.449  0.3394  0.1641  1.0428
 9138TIP3   OH248828   6.332   1.963  15.472 -0.2568 -0.4629  0.7081
 9138TIP3    H148829   6.404   2.000  15.421 -1.0423 -1.0303 -0.8383
 9138TIP3    H248830   6.368   1.883  15.511  0.3709  0.0192  1.1213
 9139TIP3   OH248831   3.560   1.018  11.511  0.2622 -0.3408 -0.1315
 9139TIP3    H148832   3.505   1.043  11.586 -0.4177 -2.9193  0.2496
 9139TIP3    H248833   3.581   1.102  11.469  0.1412  1.1134  2.5698
 9140TIP3   OH248834   2.234   0.169   5.131 -0.2552 -0.0364  0.0092
 9140TIP3    H148835   2.284   0.245   5.161 -1.2071  1.1303 -1.2852
 9140TIP3    H248836   2.292   0.123   5.070 -0.0573  0.2208  0.0049
 9141TIP3   OH248837   0.607   5.848  11.570  0.1816  0.3005 -0.0198
 9141TIP3    H148838   0.600   5.851  11.474 -0.8935  0.0817  0.0471
 9141TIP3    H248839   0.559   5.769  11.595  0.9292  0.0527  0.6659
 9142TIP3   OH248840   1.830   6.205  13.601  0.0362  0.4526 -0.0300
 9142TIP3    H148841   1.741   6.206  13.564 -0.3413  3.2210  0.8874
 9142TIP3    H248842   1.855   6.113  13.597 -1.7230  0.0257 -3.0282
 9143TIP3   OH248843   6.661   5.591  15.502  0.8971 -0.2037  0.0902
 9143TIP3    H148844   6.618   5.508  15.483  1.1387 -0.0708 -1.0902
 9143TIP3    H248845   6.723   5.571  15.572  2.0675 -1.3841 -1.2415
 9144TIP3   OH248846   4.115   1.379   4.795 -0.8134 -0.3839  0.0876
 9144TIP3    H148847   4.186   1.331   4.839 -1.0139 -1.1267 -0.3785
 9144TIP3    H248848   4.108   1.336   4.709 -1.3681  0.1308 -0.1226
 9145TIP3   OH248849   0.893   0.204  12.770 -0.2140 -0.1616  0.5393
 9145TIP3    H148850   0.922   0.206  12.679  0.0250  1.3854  0.6308
 9145TIP3    H248851   0.812   0.254  12.771  1.1386  2.1433  1.5891
 9146TIP3   OH248852   5.952   5.762  15.502  0.0795  0.2777  0.1647
 9146TIP3    H148853   5.903   5.680  15.506 -1.0321  0.8229 -1.8405
 9146TIP3    H248854   6.004   5.755  15.422 -2.3885  2.8096 -1.7325
 9147TIP3   OH248855   6.781   0.198  13.923  0.2631 -0.0679  0.0722
 9147TIP3    H148856   6.865   0.229  13.958  0.1048 -0.7648  1.1002
 9147TIP3    H248857   6.794   0.104  13.912 -0.1053 -0.0397 -0.5832
 9148TIP3   OH248858   2.732   4.675   1.933 -0.4260 -0.3946 -0.0008
 9148TIP3    H148859   2.808   4.617   1.937 -0.6145 -0.6688 -0.4031
 9148TIP3    H248860   2.726   4.713   2.021  0.5741  0.1381 -0.1570
 9149TIP3   OH248861   4.500   1.740  12.579  0.0511  0.3972 -0.1308
 9149TIP3    H148862   4.432   1.673  12.583 -0.2034  0.5866 -1.0211
 9149TIP3    H248863   4.568   1.702  12.525 -0.4587  1.1532 -1.3420
 9150TIP3   OH248864   3.327   4.511   3.040 -0.2313  0.1156  0.2876
 9150TIP3    H148865   3.404   4.474   3.084  0.0124 -1.4900 -1.3810
 9150TIP3    H248866   3.363   4.558   2.965 -0.7653  0.8831  0.5133
 9151TIP3   OH248867   6.729   5.484   2.656 -0.3089 -0.7324 -0.4068
 9151TIP3    H148868   6.817   5.445   2.662  0.0329 -0.0043 -0.6188
 9151TIP3    H248869   6.671   5.409   2.646  0.3170 -1.2135 -0.5234
 9152TIP3   OH248870   0.145   0.162   0.642 -0.0529 -0.2267 -0.1296
 9152TIP3    H148871   0.078   0.094   0.634 -1.6933  1.3950 -0.4508
 9152TIP3    H248872   0.181   0.171   0.553  1.2417 -1.6993  0.2137
 9153TIP3   OH248873   2.487   3.279   3.835  0.6811 -0.1058 -0.2817
 9153TIP3    H148874   2.409   3.239   3.874  0.4628  1.1852  0.6445
 9153TIP3    H248875   2.464   3.290   3.742 -0.2825  0.3771  0.0056
 9154TIP3   OH248876   0.335   1.102   1.011  0.1479 -0.1983 -0.1565
 9154TIP3    H148877   0.288   1.166   1.063 -0.0668  0.1007 -0.7203
 9154TIP3    H248878   0.320   1.019   1.057 -0.1436  0.0395  0.1850
 9155TIP3   OH248879   2.128   5.673  16.068 -0.6083  0.4226  0.1082
 9155TIP3    H148880   2.170   5.632  16.144 -0.2636  0.1221 -0.2441
 9155TIP3    H248881   2.133   5.606  16.000  0.0822  1.1156 -0.5160
 9156TIP3   OH248882   1.840   2.744  15.880  0.3258 -0.1966 -0.2895
 9156TIP3    H148883   1.863   2.802  15.807  1.6551  0.2201  0.4484
 9156TIP3    H248884   1.751   2.770  15.904  0.5352  0.8586 -0.6126
 9157TIP3   OH248885   2.709   1.110   1.310 -0.3055  0.0744  0.3982
 9157TIP3    H148886   2.751   1.033   1.347 -1.2790 -0.5350  0.2589
 9157TIP3    H248887   2.648   1.076   1.245  1.3629  1.1367 -1.8025
 9158TIP3   OH248888   1.576   3.604  13.583 -0.0592 -0.1468  0.7653
 9158TIP3    H148889   1.489   3.613  13.622  0.1609 -1.3974  1.5880
 9158TIP3    H248890   1.561   3.599  13.489 -0.7256  1.4098  0.7816
 9159TIP3   OH248891   0.931   5.915   4.368 -0.0517 -0.0903 -0.0846
 9159TIP3    H148892   0.936   5.973   4.445  0.9973  0.1410 -0.3218
 9159TIP3    H248893   0.929   5.975   4.293  2.1301 -0.3689 -0.3804
 9160TIP3   OH248894   4.196   1.078   0.323 -0.3888  0.3090 -0.4516
 9160TIP3    H148895   4.160   1.144   0.264  1.4517  1.1339 -0.6754
 9160TIP3    H248896   4.286   1.067   0.295  0.6428  1.0237  2.4256
 9161TIP3   OH248897   2.760   2.876   3.010  0.0534  0.2501 -0.2252
 9161TIP3    H148898   2.724   2.942   3.068 -0.0074 -0.2943  0.3692
 9161TIP3    H248899   2.695   2.806   3.010  0.4868 -0.1561 -0.2030
 9162TIP3   OH248900   3.434   1.319   1.345  0.1998  0.2442  0.1965
 9162TIP3    H148901   3.432   1.411   1.320  1.0771  0.4033  0.6759
 9162TIP3    H248902   3.518   1.308   1.390  1.1916 -1.3479 -1.9812
 9163TIP3   OH248903   1.325   0.196  12.620 -0.1408 -0.0733  0.5313
 9163TIP3    H148904   1.238   0.160  12.603  0.7065 -1.1370 -1.7545
 9163TIP3    H248905   1.321   0.285  12.586 -0.5328  0.0977  1.0235
 9164TIP3   OH248906   1.279   3.834  13.198  0.3292 -0.2032  0.4222
 9164TIP3    H148907   1.340   3.762  13.183 -0.0940 -0.5348  0.2834
 9164TIP3    H248908   1.330   3.900  13.245  1.2634  0.2042 -1.1167
 9165TIP3   OH248909   6.122   2.841  16.331 -0.8002  0.0822  0.0898
 9165TIP3    H148910   6.113   2.936  16.343  0.8540  0.3623 -0.7276
 9165TIP3    H248911   6.212   2.829  16.303 -1.4657 -1.5781 -1.4394
 9166TIP3   OH248912   2.479   1.453   5.602 -0.1357 -0.2183 -0.1126
 9166TIP3    H148913   2.406   1.394   5.620  0.9639 -1.5865 -0.1342
 9166TIP3    H248914   2.464   1.481   5.511 -0.4481 -0.7370 -0.2218
 9167TIP3   OH248915   6.691   4.029   0.505 -0.2710  0.5473  0.2295
 9167TIP3    H148916   6.756   3.976   0.552  1.0664  0.4891 -1.6111
 9167TIP3    H248917   6.614   3.972   0.499  0.2914 -0.2581  0.4476
 9168TIP3   OH248918   0.706   1.549  12.594  0.5010 -0.1799  0.5281
 9168TIP3    H148919   0.745   1.606  12.660 -0.3141  0.3616  0.5521
 9168TIP3    H248920   0.743   1.579  12.511  0.6966 -0.1520  0.6265
 9169TIP3   OH248921   0.125   4.381   4.543 -0.0085  0.5405 -0.8892
 9169TIP3    H148922   0.201   4.325   4.561  0.1328  1.1214  0.3114
 9169TIP3    H248923   0.064   4.324   4.496  0.1055 -0.6407  0.3818
 9170TIP3   OH248924   3.954   4.216   3.316  0.1240 -0.3024 -0.5449
 9170TIP3    H148925   3.940   4.274   3.391 -1.8001  0.7356 -1.6908
 9170TIP3    H248926   3.867   4.197   3.283  0.9605 -0.4570 -2.7649
 9171TIP3   OH248927   6.258   1.802  16.131  0.2408  0.7564  0.1832
 9171TIP3    H148928   6.324   1.862  16.096  0.8080  0.7390  1.2034
 9171TIP3    H248929   6.300   1.762  16.207 -0.8752  0.5743  0.7142
 9172TIP3   OH248930   1.890   5.529   6.126  0.3988 -0.5643  0.1935
 9172TIP3    H148931   1.844   5.485   6.197 -0.5949  0.3219  0.1087
 9172TIP3    H248932   1.821   5.569   6.073  1.3275  2.0646  0.8852
 9173TIP3   OH248933   3.405   1.250   4.017  0.2359 -0.2738 -0.6790
 9173TIP3    H148934   3.377   1.167   3.978 -0.4487 -1.2347  1.7464
 9173TIP3    H248935   3.338   1.270   4.082  1.4170  1.1561  0.1358
 9174TIP3   OH248936   6.109   6.585   3.992  0.0926  0.5092  0.4544
 9174TIP3    H148937   6.067   6.670   3.982  2.2010  1.4527 -0.6535
 9174TIP3    H248938   6.078   6.534   3.917 -0.8222  0.4295  0.8777
 9175TIP3   OH248939   4.054   0.973   1.645  0.0006 -0.1539 -0.0551
 9175TIP3    H148940   4.080   0.934   1.729  3.3254  0.5083 -0.7209
 9175TIP3    H248941   4.004   0.904   1.601  0.3250 -1.3745  1.4397
 9176TIP3   OH248942   0.514   1.366   1.972  0.6939 -0.4983  0.3243
 9176TIP3    H148943   0.606   1.386   1.957  0.7059  0.2699  1.3500
 9176TIP3    H248944   0.491   1.417   2.049 -1.6868  2.5354 -2.2950
 9177TIP3   OH248945   4.438   4.862   4.506 -0.0970  0.0644  0.4018
 9177TIP3    H148946   4.389   4.782   4.488  3.0781 -2.0249  0.5778
 9177TIP3    H248947   4.422   4.881   4.598 -2.0531  0.5239 -0.0131
 9178TIP3   OH248948   5.271   2.390   1.813 -0.2157  0.1033  0.0737
 9178TIP3    H148949   5.245   2.366   1.724  1.1827  2.6591 -1.0630
 9178TIP3    H248950   5.268   2.486   1.815  1.2366  0.1606  2.3216
 9179TIP3   OH248951   0.353   2.923  16.671 -0.0254  0.2889 -0.0675
 9179TIP3    H148952   0.353   2.925  16.576  1.7132 -1.7845 -0.1394
 9179TIP3    H248953   0.440   2.956  16.696  0.1552 -0.7887  0.7399
 9180TIP3   OH248954   4.335   2.722  13.048  0.0107  0.0297  0.3507
 9180TIP3    H148955   4.370   2.781  12.980 -0.6235  1.3133  1.1221
 9180TIP3    H248956   4.263   2.771  13.088 -0.9077 -1.5127  0.6259
 9181TIP3   OH248957   2.104   5.984   6.197 -0.2198  0.4251 -0.2605
 9181TIP3    H148958   2.185   5.973   6.247 -0.4057 -0.6280 -0.1698
 9181TIP3    H248959   2.045   6.028   6.258 -0.4582 -0.8981  0.4919
 9182TIP3   OH248960   5.397   1.958   0.480  0.5200 -0.3398  0.3642
 9182TIP3    H148961   5.319   1.904   0.476  0.9141 -0.9301  0.6039
 9182TIP3    H248962   5.460   1.906   0.529  1.1467  0.0205 -0.0474
 9183TIP3   OH248963   6.106   2.537  11.379 -0.3327 -0.0902  0.3780
 9183TIP3    H148964   6.119   2.570  11.291 -1.1720  0.4042  0.4331
 9183TIP3    H248965   6.144   2.449  11.378  0.5419  0.2973 -0.1917
 9184TIP3   OH248966   1.552   2.806  14.773  0.5768 -0.1359 -0.0876
 9184TIP3    H148967   1.463   2.831  14.800  1.4710  1.1602  1.7967
 9184TIP3    H248968   1.548   2.711  14.763 -1.4774  0.0951 -1.8566
 9185TIP3   OH248969   5.136   2.636  12.334 -0.1063  0.1329  0.0011
 9185TIP3    H148970   5.211   2.577  12.338 -0.7467 -0.6429  0.7354
 9185TIP3    H248971   5.085   2.615  12.412 -0.8486  0.9761 -0.2503
 9186TIP3   OH248972   2.845   0.286   1.747  0.5381  0.8544 -0.2331
 9186TIP3    H148973   2.893   0.369   1.750  0.8109  0.6948 -0.1877
 9186TIP3    H248974   2.787   0.289   1.822  0.4759  1.0497 -0.2891
 9187TIP3   OH248975   1.533   0.012  11.573  0.1284  0.7436 -0.0779
 9187TIP3    H148976   1.466   0.056  11.625  0.6936 -1.8664  3.0857
 9187TIP3    H248977   1.526  -0.080  11.598  4.6331  0.3170  0.1339
 9188TIP3   OH248978   5.266   6.463  16.458 -0.4985 -0.1000 -0.1778
 9188TIP3    H148979   5.246   6.513  16.379  0.4376 -1.4755 -1.3101
 9188TIP3    H248980   5.187   6.413  16.475 -0.6595  0.1002 -0.3378
 9189TIP3   OH248981   5.446   0.827   3.518  0.2033  0.5502  0.2235
 9189TIP3    H148982   5.479   0.917   3.524  1.1642  0.2493 -0.4356
 9189TIP3    H248983   5.520   0.772   3.542 -0.0971 -0.0991 -0.3238
 9190TIP3   OH248984   0.760   0.641   6.592 -0.1724 -0.3168  0.1082
 9190TIP3    H148985   0.815   0.612   6.666  2.0146 -0.2683 -1.4462
 9190TIP3    H248986   0.755   0.565   6.535 -0.5740  0.1116 -0.4256
 9191TIP3   OH248987   4.318   5.934  14.678 -0.6177  0.0623 -0.1938
 9191TIP3    H148988   4.377   5.933  14.602  1.9784  2.7254  1.6709
 9191TIP3    H248989   4.247   5.994  14.653 -1.2835 -1.2558 -1.5343
 9192TIP3   OH248990   2.045   1.197   2.116  0.4173  0.5040  0.1568
 9192TIP3    H148991   2.113   1.243   2.163 -0.4599  1.0917  0.8646
 9192TIP3    H248992   2.067   1.104   2.126  0.5050  0.6430  1.3253
 9193TIP3   OH248993   5.476   2.213   0.513  0.2795  0.1681  0.4468
 9193TIP3    H148994   5.569   2.224   0.533  0.0357 -0.5301  1.9703
 9193TIP3    H248995   5.466   2.120   0.494  0.1018  0.4445 -0.8922
 9194TIP3   OH248996   6.377   4.414   0.167  0.4422  0.5017  0.3569
 9194TIP3    H148997   6.286   4.433   0.145  0.4175  1.9987  1.5783
 9194TIP3    H248998   6.395   4.328   0.129 -1.2762  0.4912 -0.4523
 9195TIP3   OH248999   4.473   4.465  12.078 -0.0163  0.4135 -0.3815
 9195TIP3    H149000   4.418   4.543  12.082  0.2960  0.7312 -1.8232
 9195TIP3    H249001   4.445   4.412  12.152 -1.2214  1.2587 -0.2121
 9196TIP3   OH249002   2.613   5.431  12.534 -0.0372 -0.4747  0.3686
 9196TIP3    H149003   2.684   5.482  12.574  1.3485 -0.8190 -1.5803
 9196TIP3    H249004   2.629   5.341  12.563  1.2383 -0.7997 -1.2849
 9197TIP3   OH249005   6.540   2.099   1.254 -0.1178  0.0495 -0.7049
 9197TIP3    H149006   6.458   2.146   1.265 -1.0615 -1.5495 -0.7196
 9197TIP3    H249007   6.606   2.168   1.240 -1.0392  1.4705  1.6780
 9198TIP3   OH249008   1.078   1.430   3.568  0.4078 -0.0052 -0.3798
 9198TIP3    H149009   1.067   1.385   3.484 -0.0805  1.4397 -1.1238
 9198TIP3    H249010   1.118   1.366   3.625  0.2806 -1.1797 -1.5841
 9199TIP3   OH249011   6.175   1.271  10.580 -0.5442  0.1928 -0.1182
 9199TIP3    H149012   6.223   1.347  10.613 -1.3446  0.5485  0.2642
 9199TIP3    H249013   6.201   1.199  10.637  0.5835  0.0769 -0.7829
 9200TIP3   OH249014   2.292   6.302  12.669 -0.1219 -0.8098 -0.4216
 9200TIP3    H149015   2.348   6.233  12.632  0.5810  0.0069 -0.8997
 9200TIP3    H249016   2.214   6.256  12.700  0.8362 -1.9664  0.2786
 9201TIP3   OH249017   2.076   1.523   3.075  0.1110  0.0707 -0.0327
 9201TIP3    H149018   2.115   1.460   3.135 -0.2959  1.4818  1.7354
 9201TIP3    H249019   2.129   1.516   2.996  0.0868 -2.4579  0.1271
 9202TIP3   OH249020   4.921   5.555  11.295  0.0950 -0.0642  0.6462
 9202TIP3    H149021   4.995   5.496  11.279  0.6874  0.9295 -0.3038
 9202TIP3    H249022   4.864   5.506  11.354  0.4434 -1.7259 -0.3613
 9203TIP3   OH249023   5.764   1.880   6.817  0.5833  0.5202  0.3984
 9203TIP3    H149024   5.709   1.828   6.759 -0.5627  0.1060  1.8418
 9203TIP3    H249025   5.832   1.819   6.846 -0.4600 -0.0450  1.6826
 9204TIP3   OH249026   3.947   5.196  13.157 -0.4798  0.5594 -0.1497
 9204TIP3    H149027   3.938   5.116  13.107 -1.3812 -0.2022  1.2121
 9204TIP3    H249028   3.904   5.178  13.240  2.9837  0.9982  1.8350
 9205TIP3   OH249029   2.000   1.586   0.247 -0.1790  0.2864  0.0316
 9205TIP3    H149030   1.996   1.679   0.269  1.2697  0.4325 -0.2691
 9205TIP3    H249031   1.988   1.541   0.331  0.1943  0.7653  0.3432
 9206TIP3   OH249032   1.316   3.249  15.925 -0.1148  0.5980 -0.3157
 9206TIP3    H149033   1.400   3.222  15.890 -0.7052 -1.4783 -0.1903
 9206TIP3    H249034   1.318   3.223  16.017 -0.1333  2.3669  0.2087
 9207TIP3   OH249035   5.790   2.918   1.276  0.1279  0.4577  0.2993
 9207TIP3    H149036   5.726   2.913   1.205 -1.3068 -0.0545  1.5884
 9207TIP3    H249037   5.864   2.864   1.246 -1.8953 -2.6510  0.6225
 9208TIP3   OH249038   4.648   6.152   0.954  0.1731 -0.2673 -0.3629
 9208TIP3    H149039   4.687   6.085   1.010  0.1545  0.5983  0.7067
 9208TIP3    H249040   4.684   6.235   0.986 -1.7262  0.4654 -0.0058
 9209TIP3   OH249041   6.694   5.940  16.072 -0.2549  0.1519 -0.0634
 9209TIP3    H149042   6.664   5.885  15.999  0.7236 -1.3339  0.6379
 9209TIP3    H249043   6.693   5.882  16.148  2.3377  0.6423  0.3815
 9210TIP3   OH249044   0.730   6.117  12.382  0.6260 -0.4625  0.8037
 9210TIP3    H149045   0.677   6.085  12.455  1.4212 -1.1398  1.0923
 9210TIP3    H249046   0.758   6.037  12.336  0.4698 -0.0590  0.0083
 9211TIP3   OH249047   4.563   5.902   6.676 -0.2852  0.2738 -0.2739
 9211TIP3    H149048   4.471   5.887   6.659  0.3291 -0.3052 -3.2792
 9211TIP3    H249049   4.596   5.818   6.709 -0.5114  0.0764 -0.5596
 9212TIP3   OH249050   1.573   1.863  14.896  0.0642 -0.1489  0.5554
 9212TIP3    H149051   1.502   1.918  14.930 -0.7911 -2.0998  2.0449
 9212TIP3    H249052   1.638   1.862  14.967  0.8605  0.3131 -0.1558
 9213TIP3   OH249053   0.194   2.336  12.515 -0.3721  0.3880 -0.3940
 9213TIP3    H149054   0.272   2.286  12.491  0.4864  1.4540  0.1319
 9213TIP3    H249055   0.131   2.317  12.446  0.7444  0.4097 -1.4259
 9214TIP3   OH249056   1.955   0.530   6.946 -0.2898 -0.4494  0.3793
 9214TIP3    H149057   1.880   0.483   6.910 -0.9001  0.8975 -0.1243
 9214TIP3    H249058   2.028   0.509   6.888 -0.9302  0.5187 -0.7944
 9215TIP3   OH249059   6.239   5.086  13.371 -0.2526  0.9250  0.1552
 9215TIP3    H149060   6.152   5.117  13.398 -0.4693  2.0119 -1.6698
 9215TIP3    H249061   6.299   5.128  13.432 -1.0268 -0.1123  1.6559
 9216TIP3   OH249062   2.391   1.592  15.657  0.5512  0.4220  0.0177
 9216TIP3    H149063   2.473   1.565  15.697 -0.1377 -1.0916  0.4501
 9216TIP3    H249064   2.387   1.542  15.575 -0.1131  0.2008  0.1854
 9217TIP3   OH249065   2.788   5.216   3.517  0.6402 -0.1754  0.3648
 9217TIP3    H149066   2.820   5.176   3.598 -2.3768 -1.1112  1.1484
 9217TIP3    H249067   2.792   5.146   3.453  1.8656  0.2332 -0.0299
 9218TIP3   OH249068   3.841   4.690   0.433 -0.0347 -0.4537 -0.0635
 9218TIP3    H149069   3.860   4.758   0.368  0.6759 -1.4639 -0.9278
 9218TIP3    H249070   3.759   4.719   0.473 -1.1313 -0.4088 -2.2563
 9219TIP3   OH249071   1.519   0.464  16.450 -0.7350 -0.0754  0.0717
 9219TIP3    H149072   1.462   0.412  16.394 -2.1024  1.5365 -0.0725
 9219TIP3    H249073   1.466   0.539  16.476  0.9381  0.8587  0.9062
 9220TIP3   OH249074   1.123   0.629  14.417 -0.4541 -0.0095 -0.5096
 9220TIP3    H149075   1.031   0.605  14.428 -0.0910 -0.5986  1.3177
 9220TIP3    H249076   1.125   0.724  14.431 -0.8462  0.0804 -1.0366
 9221TIP3   OH249077   3.092   3.577  15.008  0.9190  0.0021  0.8077
 9221TIP3    H149078   3.047   3.659  15.029  0.0149 -0.0748 -0.7120
 9221TIP3    H249079   3.183   3.591  15.035  1.0614  1.9778 -0.5740
 9222TIP3   OH249080   4.675   6.075   2.297 -0.4875 -0.3442 -0.2933
 9222TIP3    H149081   4.706   6.146   2.241 -0.3914 -0.8995 -0.9470
 9222TIP3    H249082   4.628   6.119   2.368  1.8820  0.5314  0.7996
 9223TIP3   OH249083   5.977   0.122  14.007  0.6102 -0.4882  0.0627
 9223TIP3    H149084   5.956   0.031  14.026  0.3690 -0.5331 -0.4173
 9223TIP3    H249085   5.952   0.170  14.086  1.3706 -0.9243  0.5787
 9224TIP3   OH249086   1.936   4.613  13.185 -0.6342  0.1511 -0.7191
 9224TIP3    H149087   2.025   4.583  13.207 -0.1825  0.2057 -2.3908
 9224TIP3    H249088   1.935   4.704  13.212  0.3041  0.5472 -1.9396
 9225TIP3   OH249089   4.414   3.312   4.963  0.1080  0.1412 -0.0032
 9225TIP3    H149090   4.320   3.323   4.972  0.1954 -0.3521  1.6795
 9225TIP3    H249091   4.449   3.401   4.959 -0.5246  0.3306 -2.0651
 9226TIP3   OH249092   5.660   2.590   2.318  0.3066  0.7771 -0.1665
 9226TIP3    H149093   5.706   2.615   2.397  1.3836 -0.1574 -0.4848
 9226TIP3    H249094   5.568   2.581   2.345  0.4601  1.6690  0.6786
 9227TIP3   OH249095   3.871   2.936  11.330  0.3306 -0.1436  0.6406
 9227TIP3    H149096   3.933   2.880  11.283 -0.3250 -0.0885 -0.2872
 9227TIP3    H249097   3.816   2.975  11.262 -1.0979 -0.6279  1.4831
 9228TIP3   OH249098   5.921   3.574  16.846  0.1697  0.5494  0.3422
 9228TIP3    H149099   5.948   3.628  16.771 -1.2024 -3.0106 -2.9015
 9228TIP3    H249100   5.826   3.586  16.851 -0.0674 -1.1092 -0.0625
 9229TIP3   OH249101   5.923   1.928   2.075  0.3389 -0.0453  0.0982
 9229TIP3    H149102   5.842   1.931   2.126  0.1632 -2.3304  0.0117
 9229TIP3    H249103   5.896   1.903   1.987  0.9490  1.1386 -0.4378
 9230TIP3   OH249104   3.998   3.135  16.079 -0.5005 -0.0499 -0.4587
 9230TIP3    H149105   3.997   3.159  16.172 -1.1096 -1.9565  0.0437
 9230TIP3    H249106   3.913   3.094  16.064  0.3627 -1.5397 -1.3890
 9231TIP3   OH249107   6.035   0.844   2.647  0.7195  0.5468  0.0550
 9231TIP3    H149108   6.064   0.789   2.574 -1.7957 -2.1086  0.9676
 9231TIP3    H249109   6.058   0.793   2.725 -1.9075  0.6485  0.9191
 9232TIP3   OH249110   5.728   0.319  14.596  0.1359 -0.6466 -0.0243
 9232TIP3    H149111   5.775   0.241  14.566  3.4455  0.5406  1.8170
 9232TIP3    H249112   5.783   0.392  14.571 -3.1570  1.2322 -2.1400
 9233TIP3   OH249113   3.104   4.751  11.601  0.0025 -0.3067  0.1143
 9233TIP3    H149114   3.198   4.736  11.594  0.1275  0.3192  0.4607
 9233TIP3    H249115   3.095   4.845  11.618 -0.6854 -0.3535  0.0442
 9234TIP3   OH249116   0.219   4.442  12.887 -0.3448 -0.5168  0.1490
 9234TIP3    H149117   0.132   4.413  12.912 -1.2287  1.9639  0.0705
 9234TIP3    H249118   0.215   4.451  12.792  1.0826 -3.7646 -0.2684
 9235TIP3   OH249119   4.655   2.978  15.372 -0.0015 -0.0710 -0.1382
 9235TIP3    H149120   4.622   3.068  15.380  0.2742 -0.1678  2.3725
 9235TIP3    H249121   4.701   2.978  15.288  1.2056  2.5586  0.4410
 9236TIP3   OH249122   5.167   5.739  16.601 -0.0487 -0.3258 -0.4888
 9236TIP3    H149123   5.101   5.699  16.656 -0.6413 -0.4678 -1.2871
 9236TIP3    H249124   5.121   5.809  16.555  0.7926  0.7725  0.3106
 9237TIP3   OH249125   3.949   3.356  11.697 -0.1856  0.0090 -0.0658
 9237TIP3    H149126   3.950   3.289  11.630 -0.2575 -0.2069  0.1496
 9237TIP3    H249127   3.899   3.318  11.769  2.1256 -0.8180  1.1824
 9238TIP3   OH249128   1.501   3.447  11.238  0.2611  0.1640 -0.3587
 9238TIP3    H149129   1.561   3.514  11.206  1.2396 -1.1421 -1.3102
 9238TIP3    H249130   1.455   3.489  11.311  0.1847  2.1744 -1.5250
 9239TIP3   OH249131   4.850   0.636  16.472 -0.1966  0.0905 -0.1491
 9239TIP3    H149132   4.788   0.610  16.541 -0.2584 -0.3948 -0.3905
 9239TIP3    H249133   4.924   0.577  16.484 -0.6642 -0.7262 -1.1844
 9240TIP3   OH249134   0.769   2.541  12.289  0.0831  0.0070 -0.3254
 9240TIP3    H149135   0.861   2.513  12.288  0.0944  0.0483 -0.4008
 9240TIP3    H249136   0.771   2.630  12.252 -0.1578 -0.4708 -1.4795
 9241TIP3   OH249137   3.782   0.881  17.148  0.2396 -0.6288 -0.0567
 9241TIP3    H149138   3.847   0.932  17.197  1.6505 -2.1138 -0.3547
 9241TIP3    H249139   3.791   0.792  17.181 -2.8848 -0.5650  1.1614
 9242TIP3   OH249140   3.481   6.600   1.077  0.0828 -0.3597  0.0276
 9242TIP3    H149141   3.467   6.578   0.985  0.3118  1.1842 -0.3976
 9242TIP3    H249142   3.395   6.590   1.117  0.1375 -1.7570 -0.1930
 9243TIP3   OH249143   0.032   4.578   5.557 -0.0836  0.2227 -0.2677
 9243TIP3    H149144   0.055   4.572   5.650  1.4379 -1.0159 -0.6922
 9243TIP3    H249145  -0.054   4.620   5.555 -0.3786 -0.2653  1.7300
 9244TIP3   OH249146   4.670   0.295   3.074  0.3841  0.5056  0.3383
 9244TIP3    H149147   4.608   0.291   3.001  0.6322  0.5884  0.1188
 9244TIP3    H249148   4.635   0.363   3.132  0.1609  0.4071  0.3192
 9245TIP3   OH249149   4.604   4.354   6.018  0.4837 -0.1181 -0.0010
 9245TIP3    H149150   4.668   4.284   6.019 -0.6342 -1.2002 -1.8568
 9245TIP3    H249151   4.576   4.363   6.109 -0.1058 -2.7938  0.1171
 9246TIP3   OH249152   1.860   0.030  16.749 -0.3738 -0.5159 -0.1495
 9246TIP3    H149153   1.955   0.042  16.748 -0.5331  0.9704  0.3495
 9246TIP3    H249154   1.841  -0.005  16.835 -0.3608  0.0746  0.0985
 9247TIP3   OH249155   4.203   4.655   1.436  0.3553 -0.2125 -0.3024
 9247TIP3    H149156   4.262   4.646   1.362  0.0464 -0.7850 -0.4831
 9247TIP3    H249157   4.179   4.748   1.437  2.0009  0.2255  0.3504
 9248TIP3   OH249158   3.285   1.462   0.382  0.1579  0.8490 -0.6593
 9248TIP3    H149159   3.290   1.366   0.380 -1.1836  0.7552 -0.5029
 9248TIP3    H249160   3.193   1.481   0.361 -0.7947  1.8975  3.8599
 9249TIP3   OH249161   5.551   2.150   3.058 -0.0236  0.0158  0.2085
 9249TIP3    H149162   5.606   2.125   2.984  1.3622  0.1450  1.1905
 9249TIP3    H249163   5.489   2.213   3.020  0.0432 -0.6494 -1.0486
 9250TIP3   OH249164   3.601   5.275  15.990 -0.1057  0.6925  0.1408
 9250TIP3    H149165   3.693   5.286  16.013  0.4018 -1.0688 -0.8645
 9250TIP3    H249166   3.554   5.284  16.072  1.2613 -1.3907  1.2051
 9251TIP3   OH249167   1.503   4.221   2.105 -0.1655 -0.3901  0.3559
 9251TIP3    H149168   1.484   4.311   2.079 -1.3221 -0.7940 -0.2297
 9251TIP3    H249169   1.439   4.168   2.058 -0.4297 -1.3940  1.8112
 9252TIP3   OH249170   1.144   2.429  13.259  0.2760  0.1047  0.5400
 9252TIP3    H149171   1.138   2.523  13.278 -0.8144  0.3874 -1.0946
 9252TIP3    H249172   1.101   2.419  13.174  1.5081 -1.6864  0.0948
 9253TIP3   OH249173   0.015   6.373  14.604 -0.1453 -0.1969  0.2208
 9253TIP3    H149174   0.002   6.468  14.600 -1.3334 -0.3391  0.6872
 9253TIP3    H249175   0.104   6.360  14.569 -0.1003  1.0492 -0.1563
 9254TIP3   OH249176   6.701   0.932   4.903 -0.3401 -0.0126 -0.1158
 9254TIP3    H149177   6.741   0.845   4.903  0.4163  0.3289 -0.9171
 9254TIP3    H249178   6.662   0.940   4.816 -3.1856 -0.7994  1.0480
 9255TIP3   OH249179   6.454   6.611  12.834  0.2823  0.0252 -0.0338
 9255TIP3    H149180   6.363   6.616  12.862 -0.1222 -0.9019 -1.1657
 9255TIP3    H249181   6.499   6.676  12.888 -0.7319 -0.7502  1.7944
 9256TIP3   OH249182   1.853   5.121  15.810  0.2008  0.0902 -0.4941
 9256TIP3    H149183   1.808   5.141  15.728 -0.4368  1.5695  0.2062
 9256TIP3    H249184   1.788   5.135  15.878  1.2706  0.7726  0.4194
 9257TIP3   OH249185   1.957   2.966   1.790  0.4111  0.1292 -0.0371
 9257TIP3    H149186   2.020   3.021   1.838  0.9869  0.3928 -1.0889
 9257TIP3    H249187   1.988   2.967   1.700 -0.0478 -1.2577 -0.2269
 9258TIP3   OH249188   5.033   3.292  13.126  0.4892  0.4862  0.1114
 9258TIP3    H149189   5.107   3.351  13.112  0.2660  0.3785 -1.5898
 9258TIP3    H249190   4.971   3.314  13.057  0.8581 -2.4507 -1.2303
 9259TIP3   OH249191   6.060   4.723   3.015 -0.1794  0.2421 -0.3928
 9259TIP3    H149192   6.082   4.815   3.030 -0.6243  0.6233 -1.9740
 9259TIP3    H249193   6.014   4.723   2.932 -1.4694 -1.2481  0.3045
 9260TIP3   OH249194   4.264   5.697  14.795 -0.2390 -0.3469 -0.3218
 9260TIP3    H149195   4.265   5.780  14.746  0.4558  0.6468  1.3213
 9260TIP3    H249196   4.191   5.707  14.857 -0.2062 -1.0005 -0.1734
 9261TIP3   OH249197   6.053   0.402   1.240 -0.3177  0.4262  0.4802
 9261TIP3    H149198   6.130   0.346   1.225  0.0393  0.7043  1.2370
 9261TIP3    H249199   6.063   0.473   1.177  0.2298  0.6370  0.7939
 9262TIP3   OH249200   3.330   1.904  11.920  0.2272  0.5933 -0.0679
 9262TIP3    H149201   3.312   1.935  11.831  1.0747  0.8970 -0.1334
 9262TIP3    H249202   3.323   1.982  11.974  2.7558  1.0188 -0.2853
 9263TIP3   OH249203   0.457   6.008   4.124  0.2083  0.2451 -0.4329
 9263TIP3    H149204   0.476   6.021   4.031  0.1082  1.0716 -0.3417
 9263TIP3    H249205   0.534   5.962   4.158 -0.0654 -0.6989 -1.0721
 9264TIP3   OH249206   3.838   5.273  11.576 -0.1299  0.7919 -0.1286
 9264TIP3    H149207   3.779   5.335  11.618 -1.1748  0.5284 -1.1883
 9264TIP3    H249208   3.792   5.189  11.581  0.1179  0.5933 -1.0262
 9265TIP3   OH249209   0.029   5.214   0.380  0.5477  0.5957  0.0032
 9265TIP3    H149210   0.061   5.140   0.431  1.5918  0.4008 -0.9189
 9265TIP3    H249211   0.080   5.212   0.299 -2.0731  0.0179 -1.7110
 9266TIP3   OH249212   5.383   6.490  11.373  0.4933  0.9446  0.2078
 9266TIP3    H149213   5.335   6.451  11.447  0.7779 -1.6099 -0.8899
 9266TIP3    H249214   5.316   6.535  11.322 -0.2933 -0.2143  0.1970
 9267TIP3   OH249215   6.257   0.591  15.047 -0.4596 -0.7098  0.1144
 9267TIP3    H149216   6.222   0.522  14.990  1.4014 -1.1048 -0.5765
 9267TIP3    H249217   6.329   0.629  14.997 -1.3836  1.6786  0.5474
 9268TIP3   OH249218   3.727   4.350   2.667  0.3367 -0.3822  0.8407
 9268TIP3    H149219   3.639   4.383   2.647 -0.2448 -1.2489  1.9414
 9268TIP3    H249220   3.781   4.428   2.673  0.2281  0.0426 -2.5578
 9269TIP3   OH249221   0.650   1.167   1.178 -0.0492 -0.3250 -0.1779
 9269TIP3    H149222   0.597   1.088   1.178 -0.4559 -0.0675 -1.5936
 9269TIP3    H249223   0.736   1.138   1.147 -0.0857 -0.2915 -0.3123
 9270TIP3   OH249224   4.819   2.889   1.424 -0.0026 -0.2914 -0.0503
 9270TIP3    H149225   4.909   2.875   1.393  0.4280  0.7837  0.6561
 9270TIP3    H249226   4.825   2.968   1.479 -1.4366 -0.0328 -0.2407
 9271TIP3   OH249227   6.426   4.818  15.264 -0.0696 -0.0331  0.4547
 9271TIP3    H149228   6.432   4.797  15.171  0.1804  1.2419  0.1701
 9271TIP3    H249229   6.434   4.913  15.267  1.1800 -0.1601  1.8820
 9272TIP3   OH249230   4.696   5.494  17.122  0.1625 -0.3703  0.0127
 9272TIP3    H149231   4.701   5.428  17.191 -0.6353  0.0727  0.5146
 9272TIP3    H249232   4.703   5.444  17.041 -1.6972 -1.2497  0.3438
 9273TIP3   OH249233   5.803   2.106  11.574  0.1110  0.1491  0.7567
 9273TIP3    H149234   5.731   2.121  11.512  1.1864  0.2452 -0.5068
 9273TIP3    H249235   5.762   2.065  11.650 -1.8587  3.6042  1.6271
 9274TIP3   OH249236   5.178   0.157   1.060 -0.2573  0.3802  0.1231
 9274TIP3    H149237   5.086   0.173   1.079  0.0091  2.7710 -0.4886
 9274TIP3    H249238   5.224   0.179   1.141 -0.1958 -0.6309  0.3692
 9275TIP3   OH249239   2.069   4.557   2.009  0.3464  0.0858 -0.5341
 9275TIP3    H149240   2.029   4.633   2.051 -0.4145 -0.6026 -0.0176
 9275TIP3    H249241   2.164   4.572   2.017  0.1993  0.5445  0.3239
 9276TIP3   OH249242   2.571   5.094  14.906 -0.0885 -0.6872 -0.3399
 9276TIP3    H149243   2.482   5.129  14.915 -0.1817  0.0650 -3.6074
 9276TIP3    H249244   2.559   4.999  14.900 -0.4650 -0.7536  1.1385
 9277TIP3   OH249245   2.362   5.749   4.743  0.7913  0.1153 -0.3598
 9277TIP3    H149246   2.392   5.813   4.679  3.3297  0.0314  0.6810
 9277TIP3    H249247   2.425   5.756   4.815 -1.9719  0.2051  2.1409
 9278TIP3   OH249248   5.315   3.496   1.889  0.0999  0.0527 -0.0491
 9278TIP3    H149249   5.372   3.460   1.821 -1.4320  0.4276 -1.5593
 9278TIP3    H249250   5.276   3.573   1.849 -2.3713 -0.8548  0.5256
 9279TIP3   OH249251   1.246   3.895   3.486 -0.1370 -0.2526  0.2620
 9279TIP3    H149252   1.220   3.981   3.453 -0.3206 -0.1527  0.6711
 9279TIP3    H249253   1.287   3.852   3.411  1.5818  0.8724  0.5274
 9280TIP3   OH249254   4.548   3.499   1.856  0.0073  0.1279  0.5683
 9280TIP3    H149255   4.585   3.587   1.861 -1.1549  0.6946 -0.3028
 9280TIP3    H249256   4.467   3.511   1.807  0.1424 -1.5389 -0.0783
 9281TIP3   OH249257   0.297   3.086   5.184  0.2089 -0.2393  0.1648
 9281TIP3    H149258   0.346   3.131   5.253 -0.3065  0.7707 -0.1095
 9281TIP3    H249259   0.206   3.112   5.199  0.1371  0.2897 -1.1040
 9282TIP3   OH249260   6.501   2.146  13.868  0.0371 -0.5150 -0.0966
 9282TIP3    H149261   6.545   2.231  13.869 -1.2795  0.1925 -0.8820
 9282TIP3    H249262   6.412   2.165  13.840 -0.1491 -2.2181 -0.7758
 9283TIP3   OH249263   3.447   1.344  14.842  0.2354  0.1084  0.2288
 9283TIP3    H149264   3.481   1.433  14.846  1.2617 -0.3704  2.5782
 9283TIP3    H249265   3.359   1.354  14.805  0.8363  1.9307 -0.7834
 9284TIP3   OH249266   4.841   1.104   1.327 -0.1091 -0.1105  0.3095
 9284TIP3    H149267   4.912   1.042   1.315  0.3872  0.5212 -0.0728
 9284TIP3    H249268   4.765   1.062   1.285  0.7391  0.4714 -1.9077
 9285TIP3   OH249269   5.524   0.568   3.383  0.0144  0.2908  0.1912
 9285TIP3    H149270   5.535   0.568   3.478  2.8549 -0.1297 -0.1021
 9285TIP3    H249271   5.538   0.658   3.357 -0.0332  0.2682  0.0890
 9286TIP3   OH249272   5.129   0.426  14.015 -0.3481 -0.0013 -0.2212
 9286TIP3    H149273   5.146   0.332  14.016 -1.0401 -0.1271 -0.3768
 9286TIP3    H249274   5.131   0.452  14.107  3.9944  0.5933 -0.3550
 9287TIP3   OH249275   1.820   4.155   5.532 -0.8497 -0.7886 -0.0323
 9287TIP3    H149276   1.876   4.078   5.525 -0.9254 -0.6684 -2.2966
 9287TIP3    H249277   1.872   4.217   5.582  1.4337 -0.4176 -2.7176
 9288TIP3   OH249278   4.762   4.476  11.094  0.3179  0.4337 -0.2299
 9288TIP3    H149279   4.711   4.484  11.174 -0.0609 -0.6024 -0.3617
 9288TIP3    H249280   4.767   4.565  11.059 -0.2334  0.7481  0.4987
 9289TIP3   OH249281   3.587   6.377   6.754  0.5950 -0.0948 -0.9281
 9289TIP3    H149282   3.625   6.445   6.698  0.2349  0.1843 -0.8423
 9289TIP3    H249283   3.516   6.422   6.800 -0.4699 -0.8341 -1.8000
 9290TIP3   OH249284   0.731   6.569  14.431  0.1919 -0.3849 -0.1234
 9290TIP3    H149285   0.774   6.653  14.444  1.7411 -1.1152 -0.4203
 9290TIP3    H249286   0.733   6.527  14.517 -0.5002 -0.1744  0.0033
 9291TIP3   OH249287   2.468   0.087   5.309  0.0411  0.0269  0.1663
 9291TIP3    H149288   2.435   0.020   5.250 -0.3474  0.3834 -0.0159
 9291TIP3    H249289   2.563   0.072   5.312 -0.2226 -1.4929  1.3057
 9292TIP3   OH249290   1.480   5.894  12.727  0.2450  0.5050 -0.1420
 9292TIP3    H149291   1.536   5.839  12.673 -0.2415 -0.6672  0.5124
 9292TIP3    H249292   1.394   5.852  12.722  0.5934 -0.7214  2.9949
 9293TIP3   OH249293   0.482   3.875   4.822  0.0554 -0.1248 -0.7885
 9293TIP3    H149294   0.470   3.787   4.856 -1.7872 -0.3610 -1.9182
 9293TIP3    H249295   0.400   3.921   4.844 -0.1335  0.4651 -2.5505
 9294TIP3   OH249296   2.427   3.616   5.321  0.2213 -0.2753 -0.0652
 9294TIP3    H149297   2.428   3.657   5.235 -0.5202 -0.7523 -0.3014
 9294TIP3    H249298   2.479   3.536   5.310  1.1604  0.2793  0.2458
 9295TIP3   OH249299   6.484   1.004  15.100 -0.7395 -0.0092 -0.1965
 9295TIP3    H149300   6.533   0.922  15.106 -1.7300 -0.8939 -3.4545
 9295TIP3    H249301   6.552   1.071  15.099  0.2748 -1.0328 -1.5241
 9296TIP3   OH249302   1.569   5.641   2.370 -0.1678 -0.1111  0.4898
 9296TIP3    H149303   1.649   5.684   2.399  0.1477 -0.2479 -0.1719
 9296TIP3    H249304   1.562   5.563   2.426  0.5805 -0.5190  0.0312
 9297TIP3   OH249305   4.555   0.463  15.355 -0.8499  0.0903 -0.1614
 9297TIP3    H149306   4.578   0.371  15.363  0.8335  0.4659 -0.4375
 9297TIP3    H249307   4.461   0.467  15.373 -1.0097 -1.7268 -0.6029
 9298TIP3   OH249308   1.755   2.279   4.141  0.1157 -0.2897 -1.0009
 9298TIP3    H149309   1.672   2.284   4.095 -0.7460  2.6765  0.7297
 9298TIP3    H249310   1.748   2.345   4.210  3.0511 -1.5258  0.5745
 9299TIP3   OH249311   1.515   5.071  10.285  0.3853  0.0983  0.2254
 9299TIP3    H149312   1.537   5.000  10.225  0.8600 -0.1109  0.6492
 9299TIP3    H249313   1.589   5.077  10.345  0.1999  0.7306  0.4025
 9300TIP3   OH249314   0.881   6.608   5.838  0.1210 -0.3409  0.2466
 9300TIP3    H149315   0.813   6.666   5.804 -0.8603 -1.9143 -0.5269
 9300TIP3    H249316   0.844   6.572   5.919 -0.1460 -1.4701 -0.3573
 9301TIP3   OH249317   1.271   1.660  16.520  0.4647 -0.2712  0.2645
 9301TIP3    H149318   1.296   1.662  16.612  0.7534 -0.3244  0.1868
 9301TIP3    H249319   1.218   1.581  16.512 -1.3133  0.8163  0.8406
 9302TIP3   OH249320   5.132   0.045  11.130 -0.2024 -0.2577 -0.1704
 9302TIP3    H149321   5.096   0.018  11.046  0.0400 -4.7678  1.0624
 9302TIP3    H249322   5.061   0.095  11.172 -1.4637 -0.7225 -1.7180
 9303TIP3   OH249323   3.889   2.356   5.985 -0.3443 -0.5001 -0.1024
 9303TIP3    H149324   3.977   2.380   5.954 -0.8469  1.0902 -0.3196
 9303TIP3    H249325   3.840   2.337   5.905 -0.4269 -0.5951 -0.0294
 9304TIP3   OH249326   3.416   1.175  12.159 -0.4882  0.3143 -0.2838
 9304TIP3    H149327   3.362   1.142  12.087 -1.6850  2.5615 -0.4476
 9304TIP3    H249328   3.381   1.262  12.178  1.3049  0.6930  1.4786
 9305TIP3   OH249329   5.983   5.654  16.574 -0.3835 -0.3423 -0.3112
 9305TIP3    H149330   5.974   5.639  16.480 -0.8666 -0.2225 -0.2851
 9305TIP3    H249331   6.015   5.571  16.608  0.6505 -0.1077 -0.7071
 9306TIP3   OH249332   5.495   1.629   0.156  0.2738 -0.4728 -0.4664
 9306TIP3    H149333   5.501   1.595   0.245 -0.7915  1.6475  0.4564
 9306TIP3    H249334   5.583   1.660   0.137  0.2684  0.0155  0.2621
 9307TIP3   OH249335   4.960   1.577  14.260 -0.1267 -0.6048 -0.8221
 9307TIP3    H149336   4.953   1.513  14.330  0.7326 -2.5316 -2.4418
 9307TIP3    H249337   4.879   1.567  14.210  0.6726 -1.5360 -1.9627
 9308TIP3   OH249338   2.941   0.025   1.609 -0.1083 -0.4572 -0.8424
 9308TIP3    H149339   3.007   0.081   1.568  2.4204 -0.3446  3.1879
 9308TIP3    H249340   2.899   0.080   1.674  1.1035 -2.6295  1.8738
 9309TIP3   OH249341   0.446   1.691  16.503 -0.9151 -0.4222  0.0901
 9309TIP3    H149342   0.390   1.755  16.547 -0.2242  0.4280 -0.2531
 9309TIP3    H249343   0.414   1.606  16.533 -0.5308  0.1433  2.1484
 9310TIP3   OH249344   6.374   4.248   2.562  0.1604  0.0644  0.3920
 9310TIP3    H149345   6.284   4.275   2.576 -0.0203 -0.7562  0.8988
 9310TIP3    H249346   6.367   4.163   2.518  0.6913  0.4032 -0.3478
 9311TIP3   OH249347   0.237   2.609   3.029 -0.5754  0.3273  0.5752
 9311TIP3    H149348   0.172   2.677   3.045 -0.2364  0.8331 -0.1665
 9311TIP3    H249349   0.262   2.621   2.937  0.9728  0.5052  1.0020
 9312TIP3   OH249350   6.202   6.658  11.983 -0.3753  0.6596 -0.2282
 9312TIP3    H149351   6.218   6.749  11.961 -0.4765  0.3724 -1.5461
 9312TIP3    H249352   6.118   6.638  11.941  0.1112 -0.3027 -0.7523
 9313TIP3   OH249353   4.822   5.675  15.797  0.0735  0.0497  0.4460
 9313TIP3    H149354   4.853   5.684  15.887  1.2437  0.0559  0.0502
 9313TIP3    H249355   4.870   5.599  15.763 -0.5602 -0.1174 -0.0932
 9314TIP3   OH249356   5.087   2.831   1.939  0.1469 -0.2279  0.6856
 9314TIP3    H149357   5.113   2.889   1.868  1.5098 -0.8609  0.6466
 9314TIP3    H249358   5.025   2.883   1.991 -0.8033  0.2605 -0.8956
 9315TIP3   OH249359   2.296   4.925   5.400 -0.0782  0.4943 -0.4171
 9315TIP3    H149360   2.223   4.864   5.405  0.3309 -0.0801 -1.3091
 9315TIP3    H249361   2.286   4.967   5.315  2.3164 -1.7759 -1.8949
 9316TIP3   OH249362   6.704   0.612   0.376 -0.2080  0.0569 -0.0470
 9316TIP3    H149363   6.694   0.529   0.329  2.0857  0.2916 -1.0322
 9316TIP3    H249364   6.706   0.586   0.468 -3.1104 -0.5758 -0.1160
 9317TIP3   OH249365   3.831   5.074  15.310 -0.3078 -0.0876 -0.2856
 9317TIP3    H149366   3.915   5.119  15.323  0.2952 -1.7523  1.6837
 9317TIP3    H249367   3.766   5.145  15.309  0.9918  1.1175 -0.7958
 9318TIP3   OH249368   0.564   2.283   5.442 -0.0135 -0.0743  0.1152
 9318TIP3    H149369   0.511   2.207   5.419 -0.6344  0.0923  1.0175
 9318TIP3    H249370   0.649   2.246   5.465 -0.2931 -0.4870  0.4881
 9319TIP3   OH249371   3.545   1.236  13.288 -0.4169  0.1139  0.3897
 9319TIP3    H149372   3.455   1.219  13.261 -0.0139 -0.1539 -0.8011
 9319TIP3    H249373   3.540   1.316  13.340 -1.4811 -0.4283  1.1578
 9320TIP3   OH249374   1.442   0.200   2.232 -0.3194  0.4417  0.0881
 9320TIP3    H149375   1.438   0.259   2.156 -0.1979 -0.8992 -0.9933
 9320TIP3    H249376   1.414   0.115   2.197  2.0892 -0.7693  0.9492
 9321TIP3   OH249377   4.224   6.153   5.480  0.4083  0.0696  0.6945
 9321TIP3    H149378   4.278   6.075   5.467 -1.1611 -1.3384  2.3235
 9321TIP3    H249379   4.171   6.133   5.557 -1.9051  1.6915 -0.4040
 9322TIP3   OH249380   3.216   1.663  14.988 -0.0822  0.1011 -0.4085
 9322TIP3    H149381   3.177   1.616  14.913 -0.8150  0.4390 -0.2471
 9322TIP3    H249382   3.299   1.696  14.954  0.5875 -1.5665 -0.4356
 9323TIP3   OH249383   6.044   5.364  17.097 -0.1807  0.1744 -0.0601
 9323TIP3    H149384   6.054   5.459  17.091  1.2821 -0.0624 -2.0585
 9323TIP3    H249385   6.011   5.348  17.185 -1.3596  2.6071 -0.0279
 9324TIP3   OH249386   0.802   4.208  15.306  0.4268 -0.5078 -0.1770
 9324TIP3    H149387   0.821   4.157  15.385  1.0305 -0.0562 -0.0300
 9324TIP3    H249388   0.795   4.298  15.338  2.8071 -0.0135 -0.9524
 9325TIP3   OH249389   2.392   6.285   0.121 -0.4831  0.1767 -0.2154
 9325TIP3    H149390   2.345   6.259   0.201 -0.7158  0.8834 -0.1149
 9325TIP3    H249391   2.447   6.210   0.100 -2.4039 -1.0917 -0.9084
 9326TIP3   OH249392   5.324   0.923  11.401 -0.8497  0.3703 -0.0556
 9326TIP3    H149393   5.340   0.974  11.322  1.4525  3.6482  2.4103
 9326TIP3    H249394   5.400   0.866  11.409  1.0268  3.0040  1.9023
 9327TIP3   OH249395   2.802   5.828  17.075  0.2674  0.0319 -0.0196
 9327TIP3    H149396   2.819   5.769  17.149 -0.5702  0.2454  0.3520
 9327TIP3    H249397   2.875   5.814  17.015  0.7712 -0.3979  0.6919
 9328TIP3   OH249398   0.477   0.705   5.253  0.0584  0.3199  0.1448
 9328TIP3    H149399   0.468   0.801   5.257 -0.7345  0.2234  0.9092
 9328TIP3    H249400   0.572   0.690   5.248  0.1633  1.1591 -0.5846
 9329TIP3   OH249401   5.191   1.324  11.424  0.1715  0.4142  0.1590
 9329TIP3    H149402   5.122   1.335  11.359 -0.4892  0.1843  0.8159
 9329TIP3    H249403   5.263   1.282  11.376 -0.5732 -0.4033 -0.2619
 9330TIP3   OH249404   6.498   1.006   1.699 -0.0191  0.4451 -0.1372
 9330TIP3    H149405   6.588   1.033   1.679 -0.2211 -0.5969 -2.6483
 9330TIP3    H249406   6.487   0.923   1.652 -1.4029 -0.8745  2.4024
 9331TIP3   OH249407   3.675   5.432   2.333 -0.7622 -0.0653  0.0620
 9331TIP3    H149408   3.691   5.484   2.412 -0.2847 -0.4878  0.2439
 9331TIP3    H249409   3.742   5.364   2.335 -0.2446  0.4035 -1.1374
 9332TIP3   OH249410   1.884   6.282  12.154  0.7225 -0.3490 -0.3208
 9332TIP3    H149411   1.927   6.361  12.186 -1.0323  0.7005 -0.5157
 9332TIP3    H249412   1.791   6.304  12.153  0.3811 -1.7826 -2.1865
 9333TIP3   OH249413   5.341   3.341   4.224 -0.0184  0.2871 -0.2363
 9333TIP3    H149414   5.265   3.294   4.258  0.1590  0.5290  0.5013
 9333TIP3    H249415   5.384   3.278   4.166  0.0041 -0.3448  0.4532
 9334TIP3   OH249416   2.229   0.163   3.161  0.2192  0.3487  0.5353
 9334TIP3    H149417   2.247   0.235   3.221 -0.6739  1.0072  0.0214
 9334TIP3    H249418   2.313   0.119   3.151  0.9499  1.7861  0.2434
 9335TIP3   OH249419   1.003   2.991   5.014  0.0042 -0.4919 -0.3767
 9335TIP3    H149420   0.913   2.962   5.004  0.1049 -1.6243  1.5853
 9335TIP3    H249421   1.001   3.049   5.091  0.5871  1.1620 -1.5906
 9336TIP3   OH249422   3.185   3.230  10.956 -0.2788  0.5707  0.1685
 9336TIP3    H149423   3.094   3.213  10.983 -1.0146  3.3362 -0.3832
 9336TIP3    H249424   3.217   3.294  11.020  0.0367  2.4074 -1.7531
 9337TIP3   OH249425   3.960   0.936   5.742  0.4358  0.3905 -0.1783
 9337TIP3    H149426   3.892   0.891   5.794  1.8285 -1.4656  0.1140
 9337TIP3    H249427   3.955   1.027   5.770  0.6491 -0.4249  2.7470
 9338TIP3   OH249428   1.631   4.822   5.378  0.6635  0.2903  0.1175
 9338TIP3    H149429   1.593   4.909   5.393  0.5859  0.0448  1.3856
 9338TIP3    H249430   1.569   4.778   5.321  0.7153  1.0690 -0.5598
 9339TIP3   OH249431   4.605   2.338   0.303 -0.1907  0.1851  0.2846
 9339TIP3    H149432   4.666   2.273   0.337 -0.5027  0.0893  0.6580
 9339TIP3    H249433   4.609   2.326   0.208  0.6985  0.4772  0.2736
 9340TIP3   OH249434   2.292   6.361  16.006  0.5384  0.6306  0.4328
 9340TIP3    H149435   2.298   6.283  15.951  0.7169  0.5645  0.5461
 9340TIP3    H249436   2.250   6.427  15.951 -0.8727  0.0435  0.7822
 9341TIP3   OH249437   5.854   6.443  13.280 -0.0896  0.5138  0.1383
 9341TIP3    H149438   5.890   6.356  13.297 -0.8548 -0.1353 -1.5429
 9341TIP3    H249439   5.760   6.429  13.269 -0.3190  1.6581  0.4877
 9342TIP3   OH249440   0.106   5.350  11.695 -0.2210  0.0979 -0.0989
 9342TIP3    H149441   0.165   5.331  11.622  0.3816 -0.0278  0.4173
 9342TIP3    H249442   0.089   5.444  11.687  2.4158  0.7469  1.4779
 9343TIP3   OH249443   0.137   3.051   0.359 -0.8932 -0.2508  0.1232
 9343TIP3    H149444   0.050   3.090   0.355 -0.2184  1.3884  0.9773
 9343TIP3    H249445   0.189   3.114   0.409  0.4217 -1.9037  0.8709
 9344TIP3   OH249446   0.834   1.388  11.618  0.4199  0.1454 -0.2530
 9344TIP3    H149447   0.877   1.473  11.612  0.3691  0.1698 -0.2685
 9344TIP3    H249448   0.755   1.397  11.566  1.2107 -0.4182 -1.5947
 9345TIP3   OH249449   0.645   2.377   5.114 -0.0435 -0.3753  0.1269
 9345TIP3    H149450   0.607   2.421   5.190  1.2758 -1.3597  1.4046
 9345TIP3    H249451   0.728   2.341   5.147  1.5704  0.9615 -2.3309
 9346TIP3   OH249452   5.203   5.123   6.423 -0.3602  0.4086 -0.3528
 9346TIP3    H149453   5.245   5.117   6.508 -0.2816 -0.1439 -0.4284
 9346TIP3    H249454   5.276   5.118   6.360 -0.3309  1.7408 -0.4319
 9347TIP3   OH249455   1.456   2.930   1.615  0.1219 -0.1878  0.3801
 9347TIP3    H149456   1.538   2.968   1.585  0.0646  0.5563  1.1819
 9347TIP3    H249457   1.472   2.905   1.706 -0.0126 -1.5744  0.0411
 9348TIP3   OH249458   4.503   3.887  11.366  0.3599  0.0169 -0.8785
 9348TIP3    H149459   4.439   3.868  11.298  0.5928  1.8701 -1.6481
 9348TIP3    H249460   4.520   3.981  11.357 -1.1940  0.7963  3.0981
 9349TIP3   OH249461   4.519   5.133  12.802  0.4730  0.0041  0.3805
 9349TIP3    H149462   4.546   5.043  12.781  0.4238  0.0082  0.3019
 9349TIP3    H249463   4.601   5.181  12.813  0.5175  0.6738 -2.5772
 9350TIP3   OH249464   2.554   6.454   2.006 -0.1569  0.7270 -0.7305
 9350TIP3    H149465   2.648   6.456   1.989  0.4128 -0.4399  2.0120
 9350TIP3    H249466   2.531   6.361   2.004 -0.9557  0.8957  0.0730
 9351TIP3   OH249467   5.463   3.005   0.032 -0.1592  0.2867 -0.5628
 9351TIP3    H149468   5.375   2.987  -0.003  0.0288 -0.6373 -0.5851
 9351TIP3    H249469   5.522   2.957  -0.027  0.1307 -1.8144  1.3429
 9352TIP3   OH249470   1.191   2.107   2.299  0.0545 -0.1848 -0.8481
 9352TIP3    H149471   1.179   2.160   2.220 -2.1259 -0.6998 -0.8982
 9352TIP3    H249472   1.124   2.138   2.360  2.8043  1.3928  1.4915
 9353TIP3   OH249473   3.305   6.335  11.491  0.8607 -0.3839  0.6026
 9353TIP3    H149474   3.372   6.268  11.501  0.1960 -1.3414 -1.0435
 9353TIP3    H249475   3.232   6.304  11.544  1.3057  0.0758  1.4788
 9354TIP3   OH249476   2.516   0.363   2.734  0.9560  0.1172  0.4080
 9354TIP3    H149477   2.453   0.392   2.669  2.7276  0.4057 -1.2155
 9354TIP3    H249478   2.468   0.366   2.817 -0.9753  0.8645 -0.7077
 9355TIP3   OH249479   5.993   4.489  15.963  0.2451 -0.3223 -0.3544
 9355TIP3    H149480   6.059   4.459  15.900 -0.1012 -0.4325 -0.6650
 9355TIP3    H249481   5.911   4.455  15.929  0.4410 -3.2790  1.9228
 9356TIP3   OH249482   2.966   0.322  15.013 -0.4599  0.2785 -0.1878
 9356TIP3    H149483   2.950   0.229  14.999 -0.1622  0.5516 -2.6743
 9356TIP3    H249484   2.919   0.366  14.942  0.2365  1.9470  0.3449
 9357TIP3   OH249485   1.389   4.903   1.074 -0.4761  0.1937 -0.1385
 9357TIP3    H149486   1.476   4.940   1.090 -0.7501  1.2244 -0.9850
 9357TIP3    H249487   1.337   4.977   1.043 -1.8042 -0.2956  0.8712
 9358TIP3   OH249488   5.055   2.546   2.462  0.3737 -0.5852  0.3334
 9358TIP3    H149489   5.133   2.498   2.434  0.1006 -0.4490 -0.6579
 9358TIP3    H249490   5.068   2.559   2.557  1.1218 -1.3537  0.3416
 9359TIP3   OH249491   4.733   4.191  13.740 -0.1223 -0.5046  0.8156
 9359TIP3    H149492   4.794   4.123  13.769 -0.4243 -0.8546  0.6380
 9359TIP3    H249493   4.649   4.166  13.779 -0.5578 -1.0566 -0.4626
 9360TIP3   OH249494   1.791   1.543   1.108 -0.1596 -0.4306  0.9219
 9360TIP3    H149495   1.858   1.493   1.060  1.3082 -0.4765  2.9370
 9360TIP3    H249496   1.713   1.535   1.054  1.0689 -1.6288 -0.7744
 9361TIP3   OH249497   5.116   2.618  11.783 -0.1555  1.0218  0.1488
 9361TIP3    H149498   5.119   2.713  11.792 -0.5473  1.1161 -0.6318
 9361TIP3    H249499   5.091   2.604  11.691  0.7517  0.1681  0.0223
 9362TIP3   OH249500   0.013   6.733  17.002  0.6177  0.6588  0.2625
 9362TIP3    H149501   0.031   6.666  16.936 -1.2924  0.0066  0.3888
 9362TIP3    H249502   0.031   6.690  17.085 -2.9476 -0.5623  0.5017
 9363TIP3   OH249503   2.629   5.718  12.744 -0.2811  0.3442 -0.4915
 9363TIP3    H149504   2.544   5.694  12.707  0.3214 -0.9675 -1.0642
 9363TIP3    H249505   2.613   5.728  12.837 -0.7932 -1.3089 -0.3784
 9364TIP3   OH249506   0.301   0.756  14.543 -0.1495 -0.1720 -0.0954
 9364TIP3    H149507   0.268   0.722  14.626  0.0409  1.1891  0.5642
 9364TIP3    H249508   0.280   0.849  14.546  0.6803  0.0612 -1.1688
 9365TIP3   OH249509   5.924   6.222   2.647  0.4060 -0.1624 -0.4453
 9365TIP3    H149510   5.929   6.130   2.621  2.3524 -0.0759 -0.4809
 9365TIP3    H249511   5.983   6.228   2.723  1.0911  1.2426 -1.0635
 9366TIP3   OH249512   0.044   2.687  10.354  0.3709  0.5974  0.2120
 9366TIP3    H149513  -0.027   2.722  10.408 -0.3250  0.8715 -0.8618
 9366TIP3    H249514   0.090   2.764  10.321  0.7778  0.4302  0.3818
 9367TIP3   OH249515   5.100   5.010   3.545  0.1964 -0.5186 -0.3031
 9367TIP3    H149516   5.043   5.077   3.582 -0.0235 -0.9285  0.1202
 9367TIP3    H249517   5.185   5.025   3.587 -0.0770 -1.0411  0.4641
 9368TIP3   OH249518   1.593   2.272   2.154  0.6411 -0.8844 -0.1406
 9368TIP3    H149519   1.643   2.332   2.209 -1.2176  0.8680 -0.3285
 9368TIP3    H249520   1.630   2.186   2.173 -0.0138 -0.3700  3.9912
 9369TIP3   OH249521   4.593   0.300   2.448 -0.6546 -0.1928  0.7455
 9369TIP3    H149522   4.554   0.368   2.393 -0.1514 -0.5253 -0.0305
 9369TIP3    H249523   4.603   0.225   2.389 -1.9702 -1.2225  1.7977
 9370TIP3   OH249524   0.820   3.764   3.792  0.1032 -0.0292 -0.5420
 9370TIP3    H149525   0.890   3.704   3.819 -0.6113 -0.8594 -0.5187
 9370TIP3    H249526   0.813   3.751   3.697  1.2527  1.4282 -0.8358
 9371TIP3   OH249527   2.274   6.619  11.764 -0.1342  0.2949  0.1096
 9371TIP3    H149528   2.314   6.692  11.717 -1.0136  0.7131  0.0084
 9371TIP3    H249529   2.292   6.638  11.856 -0.8265  0.9185  0.1186
 9372TIP3   OH249530   4.239   3.539   4.237 -0.2141 -0.2887  0.2898
 9372TIP3    H149531   4.164   3.543   4.179 -0.6313 -2.0295  0.6934
 9372TIP3    H249532   4.252   3.630   4.266 -2.4578 -0.0488  0.6043
 9373TIP3   OH249533   2.888   0.790  11.438 -0.4304  0.2074 -0.5384
 9373TIP3    H149534   2.895   0.777  11.343 -1.1048  0.7667 -0.6673
 9373TIP3    H249535   2.883   0.701  11.474 -0.9899  0.0135 -1.0894
 9374TIP3   OH249536   1.509   4.354  16.271 -0.2266 -0.5805 -0.4011
 9374TIP3    H149537   1.549   4.282  16.222 -1.2371 -0.7476 -0.9826
 9374TIP3    H249538   1.415   4.336  16.269 -0.3178 -0.4791  1.4003
 9375TIP3   OH249539   4.880   1.647   4.317  0.2063 -0.4218 -0.2798
 9375TIP3    H149540   4.847   1.639   4.406  1.5377 -1.3166  0.1572
 9375TIP3    H249541   4.820   1.596   4.264 -0.5514  0.0555  0.1137
 9376TIP3   OH249542   2.401   1.363  13.776  0.1223 -0.3340 -0.1656
 9376TIP3    H149543   2.459   1.387  13.848  0.4695 -0.0134 -0.5487
 9376TIP3    H249544   2.322   1.329  13.819  0.3290 -0.1536  0.3634
 9377TIP3   OH249545   6.766   2.538   3.921  0.1581  0.4708  0.0172
 9377TIP3    H149546   6.736   2.593   3.993  0.3056 -0.3709  0.7405
 9377TIP3    H249547   6.736   2.582   3.842 -0.8996  0.8657  0.6347
 9378TIP3   OH249548   0.760   4.976   0.643 -0.1284  0.4110 -0.1077
 9378TIP3    H149549   0.684   4.997   0.588 -0.5127 -2.0014 -0.5878
 9378TIP3    H249550   0.722   4.944   0.725  0.3701 -0.5869 -0.2634
 9379TIP3   OH249551   1.139   0.397   2.481  0.0261 -0.0833 -0.6740
 9379TIP3    H149552   1.233   0.390   2.496 -0.0765  0.1230  0.1021
 9379TIP3    H249553   1.106   0.307   2.487 -0.2019  0.1111  1.7390
 9380TIP3   OH249554   6.072   6.763  13.071  0.1420 -0.3072 -0.6900
 9380TIP3    H149555   6.107   6.706  13.140  1.5630  0.1417 -1.0174
 9380TIP3    H249556   5.979   6.769  13.090  0.1407 -1.9211 -0.0517
 9381TIP3   OH249557   3.632   6.543  11.344  0.2518 -0.4255 -0.4262
 9381TIP3    H149558   3.612   6.583  11.260 -1.6724 -1.5404 -0.5326
 9381TIP3    H249559   3.631   6.449  11.327  1.4250 -0.6211  0.5080
 9382TIP3   OH249560   2.663   4.745  14.616  0.6306 -0.0205 -0.1067
 9382TIP3    H149561   2.686   4.673  14.675  0.4337 -0.7949 -0.9623
 9382TIP3    H249562   2.594   4.709  14.560 -0.3198  1.2248  0.2473
 9383TIP3   OH249563   2.747   6.450   2.387 -0.1610  1.2154  0.1182
 9383TIP3    H149564   2.736   6.515   2.456  0.5116  0.3425  1.0709
 9383TIP3    H249565   2.658   6.427   2.361 -0.4523  0.6901  1.5306
 9384TIP3   OH249566   3.020   4.972  14.027  0.2932 -0.2399 -0.1404
 9384TIP3    H149567   3.080   4.899  14.044  1.1208 -0.2582 -2.8933
 9384TIP3    H249568   3.049   5.041  14.088  2.1975 -0.7616 -0.4216
 9385TIP3   OH249569   1.440   3.873   2.886  0.0836  0.4553 -0.1846
 9385TIP3    H149570   1.403   3.796   2.843  0.1864  0.2378  0.1118
 9385TIP3    H249571   1.370   3.938   2.884  0.2865  0.6455 -1.2012
 9386TIP3   OH249572   6.649   5.904   2.576 -0.4123  0.2064  0.1413
 9386TIP3    H149573   6.638   5.979   2.635 -0.0436  0.8043 -0.5540
 9386TIP3    H249574   6.728   5.924   2.526  0.6548 -1.4261  1.1117
 9387TIP3   OH249575   3.804   2.852  14.261  0.0169 -0.5447 -0.3175
 9387TIP3    H149576   3.858   2.867  14.338 -0.7157 -0.8756  0.2624
 9387TIP3    H249577   3.800   2.936  14.216 -0.6878 -0.0129  0.7312
 9388TIP3   OH249578   1.267   5.274  12.764 -0.0428  0.1039  0.3030
 9388TIP3    H149579   1.213   5.257  12.686 -1.5073  1.4937  0.9842
 9388TIP3    H249580   1.206   5.309  12.828  1.5000  0.6929  1.4802
 9389TIP3   OH249581   3.271   4.688   4.890 -0.2270 -0.0107  0.1079
 9389TIP3    H149582   3.285   4.755   4.956  1.1665 -0.8734  0.7114
 9389TIP3    H249583   3.268   4.606   4.939  0.0885 -0.5868 -0.8144
 9390TIP3   OH249584   6.698   3.021  16.412 -0.2736  0.5511  0.4856
 9390TIP3    H149585   6.610   2.990  16.433 -0.5122  1.6072  1.0423
 9390TIP3    H249586   6.755   2.949  16.439 -1.0707 -0.8860 -1.4927
 9391TIP3   OH249587   4.802   5.180   4.441  0.4218 -0.2611  0.3443
 9391TIP3    H149588   4.809   5.218   4.529  0.8735 -1.7036  0.9546
 9391TIP3    H249589   4.886   5.198   4.400  0.3882 -0.0105  0.3841
 9392TIP3   OH249590   2.028   4.768   6.305  0.1357 -0.0742  0.0401
 9392TIP3    H149591   2.112   4.734   6.333 -0.3774 -0.9720  0.5153
 9392TIP3    H249592   2.013   4.845   6.360 -0.6865 -1.5927  1.9853
 9393TIP3   OH249593   5.682   6.676  16.314 -0.1183 -0.2691  0.0798
 9393TIP3    H149594   5.649   6.586  16.318 -0.2571 -0.1939  0.5977
 9393TIP3    H249595   5.604   6.728  16.293 -0.1387 -0.2048  0.3219
 9394TIP3   OH249596   5.137   4.549  12.164 -0.8352 -0.0976  0.1353
 9394TIP3    H149597   5.098   4.482  12.108  0.8855 -0.7902 -0.2808
 9394TIP3    H249598   5.074   4.621  12.163 -1.4004 -0.5858 -1.7027
 9395TIP3   OH249599   2.635   1.513  15.208 -0.2989 -0.3904  0.7114
 9395TIP3    H149600   2.575   1.550  15.144  0.1888 -0.3743  0.2566
 9395TIP3    H249601   2.601   1.425  15.224  0.8512 -1.2663 -1.3193
 9396TIP3   OH249602   5.797   1.524   0.750  0.2939 -0.3306  0.3223
 9396TIP3    H149603   5.734   1.467   0.706 -0.8473  1.1175  0.0403
 9396TIP3    H249604   5.747   1.566   0.819  1.0094  0.6529  0.2561
 9397TIP3   OH249605   3.186   2.206  17.002 -0.2705 -0.2509  0.4118
 9397TIP3    H149606   3.205   2.112  16.993  0.8821 -0.1067  1.2622
 9397TIP3    H249607   3.228   2.246  16.926 -2.4531 -0.6330 -1.0366
 9398TIP3   OH249608   1.431   3.241   0.316 -0.6982 -0.2100 -0.5224
 9398TIP3    H149609   1.503   3.231   0.255  0.1226 -1.1509  0.5779
 9398TIP3    H249610   1.458   3.313   0.374 -0.5914 -0.6243 -0.0508
 9399TIP3   OH249611   4.897   3.412  12.530 -0.1151 -0.0972 -0.2567
 9399TIP3    H149612   4.913   3.500  12.566  0.1092  0.1805 -1.0123
 9399TIP3    H249613   4.813   3.386  12.565 -1.0220  1.1663 -1.4166
 9400TIP3   OH249614   1.373   2.677   1.456  0.7356  0.1320  0.5959
 9400TIP3    H149615   1.358   2.689   1.363  1.0116  0.4965  0.5955
 9400TIP3    H249616   1.465   2.701   1.468  1.0226 -1.0307  0.7635
 9401TIP3   OH249617   5.579   1.456  15.204  0.2644 -0.3770  0.3407
 9401TIP3    H149618   5.585   1.536  15.257  0.2329  1.6038 -2.4786
 9401TIP3    H249619   5.493   1.420  15.225 -1.7627  2.9476 -1.7110
 9402TIP3   OH249620   2.654   6.496   5.211 -0.1775 -0.1596  0.1085
 9402TIP3    H149621   2.689   6.447   5.137  1.6160  1.5608 -0.2092
 9402TIP3    H249622   2.634   6.429   5.277  0.4612 -1.4701 -1.0141
 9403TIP3   OH249623   4.882   6.641  12.797 -0.4455  0.4122 -0.5436
 9403TIP3    H149624   4.827   6.586  12.852 -0.8834 -1.1111 -2.4603
 9403TIP3    H249625   4.968   6.638  12.839 -0.9329 -0.1368  0.4388
 9404TIP3   OH249626   1.934   1.819   3.360  0.7146  0.1870  0.1021
 9404TIP3    H149627   1.981   1.887   3.312  1.4014  1.0141  1.8993
 9404TIP3    H249628   1.947   1.841   3.452 -1.5079 -0.7235  0.6798
 9405TIP3   OH249629   0.077   5.643  16.584  0.3462 -0.4656 -0.3525
 9405TIP3    H149630   0.146   5.603  16.637 -1.3703 -2.5497  0.4195
 9405TIP3    H249631   0.033   5.704  16.643  0.6436 -0.1817 -0.4259
 9406TIP3   OH249632   6.033   0.213  13.513 -0.0825 -0.2182 -0.2211
 9406TIP3    H149633   6.102   0.228  13.448 -0.2281  1.8495  0.0574
 9406TIP3    H249634   6.080   0.178  13.589  0.4523 -0.2171 -0.5444
 9407TIP3   OH249635   3.034   0.441   2.182  0.3946 -0.2023 -0.1880
 9407TIP3    H149636   3.045   0.470   2.273  0.2738  0.5223 -0.4029
 9407TIP3    H249637   3.115   0.469   2.139 -0.5360  1.5553 -0.8459
 9408TIP3   OH249638   1.957   1.901   4.634 -0.6152 -0.1560  0.0103
 9408TIP3    H149639   1.923   1.819   4.598  0.2279  0.2407 -1.7481
 9408TIP3    H249640   2.021   1.874   4.700 -0.6865 -0.9184 -0.2262
 9409TIP3   OH249641   1.992   4.139  13.158 -0.2519 -0.0699 -0.0556
 9409TIP3    H149642   2.015   4.052  13.126 -1.9792  0.1340 -1.9605
 9409TIP3    H249643   1.965   4.125  13.249 -1.3521 -1.6874 -0.6090
 9410TIP3   OH249644   0.397   2.816   5.667 -0.8273  0.2002 -0.5511
 9410TIP3    H149645   0.489   2.794   5.652 -1.1731 -0.4003 -1.8642
 9410TIP3    H249646   0.356   2.803   5.582 -2.1549  0.3232  0.0705
 9411TIP3   OH249647   6.086   1.607   0.840  0.3579 -0.4564 -0.0845
 9411TIP3    H149648   6.001   1.567   0.820  0.0986 -0.3286  0.7578
 9411TIP3    H249649   6.121   1.632   0.754 -0.0787 -1.2647 -0.5071
 9412TIP3   OH249650   3.358   4.224  14.656 -0.0911  0.3656 -0.0937
 9412TIP3    H149651   3.295   4.166  14.699  1.0937 -1.1995 -0.4234
 9412TIP3    H249652   3.370   4.186  14.569 -1.1135  2.4963 -1.2131
 9413TIP3   OH249653   5.498   2.588  16.291 -0.5726 -0.5560 -0.3879
 9413TIP3    H149654   5.522   2.547  16.208 -0.8450  0.0193 -0.7487
 9413TIP3    H249655   5.578   2.632  16.319 -1.3777  1.9858 -1.9643
 9414TIP3   OH249656   6.614   4.123  16.334  0.6783 -0.2652  0.2520
 9414TIP3    H149657   6.652   4.036  16.324 -0.2022 -0.5087 -1.0908
 9414TIP3    H249658   6.689   4.183  16.332  1.2907 -0.9807  1.2753
 9415TIP3   OH249659   4.683   6.485   1.773  0.2978 -0.4685  0.4806
 9415TIP3    H149660   4.775   6.460   1.765  0.5265  0.3129  0.6844
 9415TIP3    H249661   4.640   6.405   1.805  0.5078 -1.5616 -1.8425
 9416TIP3   OH249662   5.549   2.636   1.605 -0.3032 -0.2606  0.1829
 9416TIP3    H149663   5.531   2.548   1.638  1.0580  0.2652  2.4357
 9416TIP3    H249664   5.642   2.635   1.582 -0.8910 -0.1864 -2.4268
 9417TIP3   OH249665   3.593   4.785   5.510 -0.5232  0.2859  0.2944
 9417TIP3    H149666   3.534   4.860   5.513  0.5641  1.0989  2.4846
 9417TIP3    H249667   3.541   4.712   5.546 -0.6298  0.7090  1.0189
 9418TIP3   OH249668   4.637   2.417   1.265 -0.6578  0.0012  0.6092
 9418TIP3    H149669   4.623   2.464   1.183  2.7718  0.8533  0.4497
 9418TIP3    H249670   4.673   2.482   1.324 -0.0531 -1.3819  1.7962
 9419TIP3   OH249671   5.394   2.627   0.120 -0.2176  0.8997  0.0799
 9419TIP3    H149672   5.345   2.613   0.039  0.2249  2.6124 -0.4961
 9419TIP3    H249673   5.333   2.600   0.189 -0.0848 -2.0003 -0.8423
 9420TIP3   OH249674   5.509   2.775  16.556  0.2662 -0.0293  0.2716
 9420TIP3    H149675   5.419   2.792  16.531  0.3544 -2.2436 -1.7303
 9420TIP3    H249676   5.551   2.861  16.557 -1.2782  0.7642 -1.1181
 9421TIP3   OH249677   5.698   6.735   3.918  0.0193 -0.8142 -0.0671
 9421TIP3    H149678   5.758   6.725   3.844  0.1532 -3.4252  0.3509
 9421TIP3    H249679   5.647   6.655   3.918 -0.9174 -0.2412  1.8641
 9422TIP3   OH249680   5.199   6.287   0.565 -0.3730 -0.2113 -0.1139
 9422TIP3    H149681   5.273   6.265   0.622 -0.1315 -1.0508 -0.7271
 9422TIP3    H249682   5.149   6.206   0.559 -1.7445  0.5671  0.8795
 9423TIP3   OH249683   4.633   3.843   1.221  0.1853  0.3105  0.3282
 9423TIP3    H149684   4.662   3.780   1.155  1.4056  1.0279  0.1609
 9423TIP3    H249685   4.560   3.799   1.266 -0.2565 -0.4204 -1.0810
 9424TIP3   OH249686   2.504   1.660   2.124 -0.7471 -0.1663 -0.2785
 9424TIP3    H149687   2.540   1.741   2.087  0.4093  0.3417  1.8677
 9424TIP3    H249688   2.436   1.633   2.062 -0.0654  1.5871 -1.8320
 9425TIP3   OH249689   5.674   0.888  13.040  0.0935  0.3973 -0.0084
 9425TIP3    H149690   5.715   0.864  13.123  0.8241  2.2654  0.1992
 9425TIP3    H249691   5.592   0.931  13.065  0.1833  0.7163 -0.2520
 9426TIP3   OH249692   1.100   1.611   2.383 -0.0977  0.0471 -0.0640
 9426TIP3    H149693   1.092   1.567   2.299 -0.8842 -0.4627  0.2702
 9426TIP3    H249694   1.037   1.567   2.439  1.6170 -0.7507  1.2816
 9427TIP3   OH249695   1.560   6.712  13.021 -0.1524  0.4001 -0.1020
 9427TIP3    H149696   1.477   6.757  13.029 -0.4300 -0.1453  0.1033
 9427TIP3    H249697   1.612   6.767  12.963  0.0723  1.7767  1.3722
 9428TIP3   OH249698   5.163   0.647  16.537  0.1887 -0.4170  0.4573
 9428TIP3    H149699   5.167   0.701  16.616  0.4002 -2.1020  1.6132
 9428TIP3    H249700   5.155   0.710  16.466  2.7547  1.2634  1.5980
 9429TIP3   OH249701   0.951   3.258   1.611 -0.0296 -0.0962 -0.4977
 9429TIP3    H149702   0.977   3.186   1.552  1.3555  0.4501 -0.5689
 9429TIP3    H249703   0.882   3.220   1.666 -0.3320 -1.0431 -1.5016
 9430TIP3   OH249704   1.370   5.545  16.166 -0.1403 -0.0739  0.0788
 9430TIP3    H149705   1.460   5.574  16.149 -0.2470  0.2012 -0.0088
 9430TIP3    H249706   1.340   5.513  16.081 -0.9568  2.0514 -0.4352
 9431TIP3   OH249707   2.853   4.500   4.095 -0.0135  0.8037  0.2578
 9431TIP3    H149708   2.928   4.445   4.071 -0.7896  0.5418 -1.7099
 9431TIP3    H249709   2.810   4.519   4.011 -1.6031  1.7363  1.2581
 9432TIP3   OH249710   1.698   5.500   1.060 -0.2144  0.9427 -0.0616
 9432TIP3    H149711   1.701   5.422   1.116  1.2090 -0.7258 -2.3646
 9432TIP3    H249712   1.605   5.520   1.052 -0.5945 -0.4794  0.5890
 9433TIP3   OH249713   4.501   4.493   0.206 -0.1454 -0.0829 -0.0272
 9433TIP3    H149714   4.543   4.451   0.132  0.0726  1.9878 -1.1267
 9433TIP3    H249715   4.412   4.514   0.176  0.3050  1.7908 -0.1435
 9434TIP3   OH249716   6.440   2.459   3.110  0.5695 -0.3058 -0.0768
 9434TIP3    H149717   6.377   2.388   3.099 -0.5170  1.0852 -3.1565
 9434TIP3    H249718   6.498   2.452   3.034  0.1740  2.3635 -0.6560
 9435TIP3   OH249719   2.308   4.612  11.926 -0.1812  0.7957  0.9386
 9435TIP3    H149720   2.308   4.673  12.000 -0.1921  0.1517  1.4709
 9435TIP3    H249721   2.255   4.538  11.955  0.9358 -0.0757  0.8132
 9436TIP3   OH249722   4.508   2.884  14.270  0.0027 -0.0353 -0.1124
 9436TIP3    H149723   4.574   2.817  14.290 -1.0714 -0.4396  2.1960
 9436TIP3    H249724   4.527   2.909  14.180  0.4627 -3.4096 -1.0398
 9437TIP3   OH249725   6.083   6.119  14.938  0.4219 -0.3002 -0.0651
 9437TIP3    H149726   6.014   6.064  14.902  1.0194 -0.8906 -0.3281
 9437TIP3    H249727   6.037   6.186  14.988 -0.4544  0.7453 -2.2082
 9438TIP3   OH249728   4.401   5.756  13.970 -0.3911 -0.0884 -0.3822
 9438TIP3    H149729   4.480   5.752  13.915  0.2241 -0.2413  0.5040
 9438TIP3    H249730   4.374   5.665  13.981  0.5000 -0.1954  1.0082
 9439TIP3   OH249731   2.836   5.598  13.161  0.0472 -0.1401 -0.0168
 9439TIP3    H149732   2.854   5.600  13.067 -0.4155 -1.8431 -0.1594
 9439TIP3    H249733   2.835   5.505  13.183 -1.9922  0.1381  1.2433
 9440TIP3   OH249734   4.514   3.456  15.791  0.2652  0.2089 -0.0278
 9440TIP3    H149735   4.595   3.456  15.740 -0.3051 -0.5632 -0.9718
 9440TIP3    H249736   4.450   3.498  15.733 -0.1156  0.4026  0.5324
 9441TIP3   OH249737   0.360   0.903   4.639 -0.3900 -0.8188  0.0028
 9441TIP3    H149738   0.296   0.963   4.677 -0.3891 -0.9564  0.2225
 9441TIP3    H249739   0.334   0.895   4.547  0.9622  1.3030 -0.6058
 9442TIP3   OH249740   5.672   5.479   2.726  0.3558  0.5113 -0.2343
 9442TIP3    H149741   5.613   5.535   2.775  0.7533  0.3529  0.4350
 9442TIP3    H249742   5.655   5.391   2.759 -0.3760  0.2031 -1.3872
 9443TIP3   OH249743   5.019   3.640  12.800  0.2398  0.1473 -0.1808
 9443TIP3    H149744   5.096   3.685  12.834  0.2911 -0.1366  0.0813
 9443TIP3    H249745   5.005   3.677  12.713  1.4728 -0.7639 -0.7749
 9444TIP3   OH249746   6.344   2.983  14.710  0.0682  0.0851  0.2634
 9444TIP3    H149747   6.385   3.067  14.734  0.0759  0.0946  0.2174
 9444TIP3    H249748   6.321   2.943  14.793  1.3428 -0.5004  0.3448
 9445TIP3   OH249749   3.162   4.611   5.309  0.7935 -0.2177 -0.4354
 9445TIP3    H149750   3.082   4.658   5.283  0.2736 -0.7719  0.1638
 9445TIP3    H249751   3.225   4.680   5.327  0.6895  0.2143 -1.6654
 9446TIP3   OH249752   0.389   4.583   2.753  0.0842  0.2591  0.0817
 9446TIP3    H149753   0.313   4.635   2.726 -1.7835 -1.8913  0.9928
 9446TIP3    H249754   0.355   4.494   2.762  2.5172 -0.5928  1.4092
 9447TIP3   OH249755   5.346   2.458   4.850  0.2712 -0.1825 -0.3726
 9447TIP3    H149756   5.395   2.538   4.830 -0.5777  0.5464  0.4012
 9447TIP3    H249757   5.342   2.456   4.946  0.0428 -1.0058 -0.3991
 9448TIP3   OH249758   0.359   1.249   4.201 -0.6660  0.1094 -0.6684
 9448TIP3    H149759   0.385   1.202   4.121 -3.2099 -2.3723 -0.0993
 9448TIP3    H249760   0.401   1.200   4.272  0.3128  1.3832 -0.3562
 9449TIP3   OH249761   0.549   5.814  16.539  0.1165  0.1398  0.0409
 9449TIP3    H149762   0.563   5.904  16.569 -3.1033  0.8673 -0.4086
 9449TIP3    H249763   0.548   5.820  16.444 -0.7807 -0.2168  0.0195
 9450TIP3   OH249764   4.038   6.518   5.516  0.0601 -0.1238 -0.5498
 9450TIP3    H149765   4.116   6.508   5.461  0.4149  0.0691 -0.0845
 9450TIP3    H249766   4.072   6.518   5.605 -0.6671 -1.9954 -0.2470
 9451TIP3   OH249767   5.777   4.169  12.679  0.1454  0.0279 -0.6725
 9451TIP3    H149768   5.688   4.151  12.650  0.5614 -0.4743 -1.6423
 9451TIP3    H249769   5.826   4.185  12.598  1.0173 -0.0700 -0.1679
 9452TIP3   OH249770   0.027   1.866   4.022 -0.1052 -0.6037  0.3031
 9452TIP3    H149771   0.062   1.927   4.087 -1.0917 -1.0079  1.2217
 9452TIP3    H249772  -0.031   1.919   3.968  1.4244 -0.0588 -0.8635
 9453TIP3   OH249773   2.500   0.833   1.629  0.1544 -0.0576 -0.5245
 9453TIP3    H149774   2.517   0.770   1.699  0.1029  2.0347  1.4281
 9453TIP3    H249775   2.573   0.821   1.568  2.5360  0.9580  2.0211
 9454TIP3   OH249776   0.752   0.232   0.903 -0.0475 -0.4852 -0.1673
 9454TIP3    H149777   0.788   0.143   0.897  0.1646 -0.3487 -0.9710
 9454TIP3    H249778   0.759   0.254   0.996 -0.8563 -1.6180  0.1755
 9455TIP3   OH249779   0.542   3.812  14.033 -0.4974  0.4742  0.5241
 9455TIP3    H149780   0.450   3.787  14.023 -0.2977  0.3796 -1.0929
 9455TIP3    H249781   0.554   3.886  13.973  1.1378 -1.1945 -1.2777
 9456TIP3   OH249782   0.449   4.026  16.010  0.3893  0.1202  0.1542
 9456TIP3    H149783   0.428   4.044  15.918 -1.7235 -0.3781  0.5046
 9456TIP3    H249784   0.369   3.987  16.045  1.5163 -0.5948  1.9631
 9457TIP3   OH249785   1.671   4.206   1.610  0.0525 -0.3999 -0.2800
 9457TIP3    H149786   1.738   4.256   1.563 -1.7902  1.5900 -0.8643
 9457TIP3    H249787   1.705   4.197   1.699  0.7785  1.2457 -0.3711
 9458TIP3   OH249788   5.682   3.469   3.776  0.5269  0.4400 -0.5459
 9458TIP3    H149789   5.656   3.535   3.711 -1.6184  0.2882  0.1285
 9458TIP3    H249790   5.683   3.517   3.859 -0.9871 -0.3315 -0.0613
 9459TIP3   OH249791   2.851   0.596  16.407 -0.3635  0.1904 -0.6991
 9459TIP3    H149792   2.791   0.644  16.349  0.4621 -0.5727 -2.1958
 9459TIP3    H249793   2.934   0.596  16.361 -0.3480 -2.7049 -0.7522
 9460TIP3   OH249794   3.163   1.569  13.922 -0.1923  0.0596 -0.3276
 9460TIP3    H149795   3.221   1.500  13.889  0.1670  0.5125 -0.6447
 9460TIP3    H249796   3.099   1.582  13.852 -0.3270 -0.0296 -0.2212
 9461TIP3   OH249797   2.126   4.206  11.698 -0.4429 -0.3373  0.2357
 9461TIP3    H149798   2.064   4.137  11.720  0.5647 -0.9991  1.0363
 9461TIP3    H249799   2.196   4.162  11.650 -0.1005  0.2421  0.1966
 9462TIP3   OH249800   4.778   2.031  11.121 -0.3963 -0.4048  0.2717
 9462TIP3    H149801   4.696   1.999  11.156 -0.7075 -0.5681 -0.5927
 9462TIP3    H249802   4.792   1.980  11.041 -1.0782  1.8282 -1.3258
 9463TIP3   OH249803   4.891   1.308   4.957  0.4805  0.3799  0.1137
 9463TIP3    H149804   4.860   1.296   4.867  0.3845 -1.8212  0.4121
 9463TIP3    H249805   4.819   1.275   5.012 -0.4414  3.8747  1.1066
 9464TIP3   OH249806   4.422   4.588  11.558  0.3781  0.4053 -0.0603
 9464TIP3    H149807   4.452   4.499  11.540 -0.4727 -0.2280  1.5056
 9464TIP3    H249808   4.477   4.618  11.631  0.8726  1.2910 -0.7837
 9465TIP3   OH249809   3.524   0.112   3.453  0.1104 -0.3627 -0.2279
 9465TIP3    H149810   3.541   0.170   3.527 -0.7657  0.5415 -0.7220
 9465TIP3    H249811   3.608   0.072   3.434  0.7692  0.8872  0.0134
 9466TIP3   OH249812   6.346   0.729  10.854 -0.4488 -0.1845  0.1741
 9466TIP3    H149813   6.270   0.701  10.905 -0.3250  2.5925  1.9815
 9466TIP3    H249814   6.316   0.727  10.763 -2.3719 -0.1082  0.7800
 9467TIP3   OH249815   4.491   6.483   3.111 -0.1866  0.5143 -0.0559
 9467TIP3    H149816   4.427   6.413   3.118  1.0844 -0.6117  0.5434
 9467TIP3    H249817   4.442   6.563   3.130 -1.4907 -0.2766 -0.0443
 9468TIP3   OH249818   3.154   0.834  11.445 -0.0239 -0.0621  0.4235
 9468TIP3    H149819   3.061   0.821  11.462 -0.5190  1.2651 -1.0682
 9468TIP3    H249820   3.157   0.871  11.356  1.9355 -0.2699  0.3715
 9469TIP3   OH249821   2.129   0.538  15.215 -0.4443 -0.2897  0.2821
 9469TIP3    H149822   2.081   0.571  15.140  0.9262  1.9703  0.3482
 9469TIP3    H249823   2.152   0.616  15.265  0.2779 -1.6076  2.0676
 9470TIP3   OH249824   2.273   0.675   6.063 -0.1879  0.2972 -0.1495
 9470TIP3    H149825   2.284   0.614   5.991 -0.2688  1.8914 -1.5319
 9470TIP3    H249826   2.350   0.732   6.059 -0.2367  0.4615  0.9698
 9471TIP3   OH249827   2.952   4.811   4.105  0.0674 -0.1830 -0.0388
 9471TIP3    H149828   2.900   4.849   4.176 -0.3762  1.7180 -1.3774
 9471TIP3    H249829   2.911   4.726   4.089 -1.2127  0.3194  0.4747
 9472TIP3   OH249830   0.327   6.027   0.472  0.2129  0.6032  0.5110
 9472TIP3    H149831   0.263   5.991   0.533 -0.2505  1.1141  0.3299
 9472TIP3    H249832   0.277   6.047   0.393  0.8394 -0.2449 -0.1257
 9473TIP3   OH249833   3.700   5.384  12.284 -0.9678  0.1752 -0.0986
 9473TIP3    H149834   3.681   5.360  12.375 -0.0342  1.1948  0.3775
 9473TIP3    H249835   3.656   5.468  12.273 -0.1646  0.5761 -0.2480
 9474TIP3   OH249836   0.264   6.197   1.145 -0.5847 -0.7609  0.1346
 9474TIP3    H149837   0.347   6.245   1.138  0.1806 -1.9310  0.9106
 9474TIP3    H249838   0.242   6.203   1.238 -1.3573 -0.4907 -0.0635
 9475TIP3   OH249839   1.713   4.419  17.098 -0.0655  0.2104 -0.3496
 9475TIP3    H149840   1.707   4.473  17.176  0.9825  1.4017 -1.0817
 9475TIP3    H249841   1.624   4.385  17.086 -0.2701  0.1730  1.2385
 9476TIP3   OH249842   6.318   6.215  14.900  0.2789  0.4938 -0.3512
 9476TIP3    H149843   6.308   6.309  14.887 -0.3050  0.1983 -2.1281
 9476TIP3    H249844   6.230   6.184  14.918  0.4459  0.2533  0.0631
 9477TIP3   OH249845   6.181   0.034   0.343 -0.2052  0.0067 -0.0476
 9477TIP3    H149846   6.115   0.017   0.276 -0.4660 -1.8160  0.6429
 9477TIP3    H249847   6.255  -0.022   0.320  0.8305  1.4831 -0.3886
 9478TIP3   OH249848   1.379   5.058  11.885  0.1965 -0.6518 -0.7282
 9478TIP3    H149849   1.325   4.990  11.926 -0.3843 -0.0117 -0.4318
 9478TIP3    H249850   1.408   5.018  11.803 -1.1318 -0.8237 -1.1285
 9479TIP3   OH249851   2.951   6.321   4.438  0.2945  0.5472  0.3160
 9479TIP3    H149852   2.909   6.388   4.491  1.6682  1.1147  0.6987
 9479TIP3    H249853   3.044   6.328   4.459  0.6704 -0.2460 -1.0204
 9480TIP3   OH249854   5.262   0.890  13.208 -0.0210  0.3083  0.0909
 9480TIP3    H149855   5.240   0.797  13.207 -1.8737  0.7343 -1.0070
 9480TIP3    H249856   5.195   0.931  13.262  0.8074  1.0003  0.6009
 9481TIP3   OH249857   1.282   0.441  12.481 -0.0854  0.7021  0.2750
 9481TIP3    H149858   1.329   0.455  12.399  0.2532 -2.1272 -0.0860
 9481TIP3    H249859   1.192   0.423  12.454  0.1696 -0.8948  0.4485
 9482TIP3   OH249860   5.737   2.658   4.017  0.0907  0.7435  0.0588
 9482TIP3    H149861   5.659   2.604   4.011  0.9118 -0.4962  0.3177
 9482TIP3    H249862   5.787   2.621   4.090  1.2280  1.1063 -0.5128
 9483TIP3   OH249863   2.903   3.797  12.878  0.0814  0.4250  0.0804
 9483TIP3    H149864   2.838   3.733  12.848  1.7541 -1.6277  0.7173
 9483TIP3    H249865   2.917   3.854  12.802  0.4502 -1.5364 -1.3575
 9484TIP3   OH249866   1.037   4.213  16.445  0.6187 -0.2161  0.5438
 9484TIP3    H149867   0.981   4.248  16.375  1.1407 -1.1529 -0.3544
 9484TIP3    H249868   1.014   4.121  16.451  1.4770 -0.4232  0.7332
 9485TIP3   OH249869   3.447   5.174   6.760  0.0881  0.0664 -0.2891
 9485TIP3    H149870   3.440   5.257   6.712  1.5801  1.5754  1.9756
 9485TIP3    H249871   3.542   5.159   6.767 -0.1914 -2.6904 -2.0723
 9486TIP3   OH249872   1.928   1.140   2.592 -0.6322 -0.4082 -0.1461
 9486TIP3    H149873   1.993   1.070   2.595  1.8431  1.8440  0.7060
 9486TIP3    H249874   1.904   1.147   2.500  0.3829 -1.2506 -0.4851
 9487TIP3   OH249875   6.180   5.877   2.501 -0.3251 -0.0277  0.4683
 9487TIP3    H149876   6.241   5.804   2.486 -0.4751  0.1995 -1.4141
 9487TIP3    H249877   6.236   5.954   2.509 -0.2315 -0.1736  1.2016
 9488TIP3   OH249878   0.945   0.370  14.822  0.1296  0.0518  0.0455
 9488TIP3    H149879   1.001   0.294  14.840  1.4018  1.1819  0.8704
 9488TIP3    H249880   0.902   0.388  14.905 -0.5740 -0.0793 -0.2857
 9489TIP3   OH249881   5.268   0.466  12.033  0.2212  0.4514  0.0855
 9489TIP3    H149882   5.334   0.450  12.101  0.3265  0.0163 -0.1187
 9489TIP3    H249883   5.228   0.549  12.058  1.3031  1.0603 -0.1515
 9490TIP3   OH249884   6.537   1.317   2.386  0.1795 -0.2063  0.6401
 9490TIP3    H149885   6.497   1.393   2.430  0.3747  1.2522 -1.6378
 9490TIP3    H249886   6.630   1.324   2.407 -0.2310 -1.6164  3.0347
 9491TIP3   OH249887   3.760   0.539   4.826 -0.4165 -0.2950  0.3824
 9491TIP3    H149888   3.841   0.585   4.803 -1.8272  1.3581 -1.4609
 9491TIP3    H249889   3.726   0.508   4.742 -0.8211 -2.4759  1.3377
 9492TIP3   OH249890   4.484   5.224   4.128 -0.3710  0.3756  0.3288
 9492TIP3    H149891   4.523   5.144   4.094 -2.4989 -0.6417  0.2257
 9492TIP3    H249892   4.474   5.208   4.222 -1.2181  0.3252  0.2362
 9493TIP3   OH249893   6.724   4.307  17.111 -0.1619 -0.3054 -0.5370
 9493TIP3    H149894   6.678   4.372  17.165 -0.3972 -1.0089  0.1141
 9493TIP3    H249895   6.793   4.274  17.168  0.0994 -0.4619 -0.9478
 9494TIP3   OH249896   6.544   0.953   3.380  0.0645 -0.2902  0.1719
 9494TIP3    H149897   6.585   1.017   3.438  2.1940 -1.4703  0.0177
 9494TIP3    H249898   6.515   0.883   3.438  0.6132 -0.6503  0.0199
 9495TIP3   OH249899   5.389   0.209  15.473  0.8138 -0.0592 -0.4083
 9495TIP3    H149900   5.293   0.205  15.476  0.7276  0.5210 -1.7470
 9495TIP3    H249901   5.414   0.240  15.559 -0.4406  3.0523 -1.0805
 9496TIP3   OH249902   3.468   6.038  17.129 -0.2549  0.1941  0.1018
 9496TIP3    H149903   3.461   6.006  17.039  0.6600  0.6033 -0.1139
 9496TIP3    H249904   3.541   6.100  17.128 -0.8574  0.9444  0.9114
 9497TIP3   OH249905   6.647   2.263   1.542 -0.8154 -0.1478  0.0495
 9497TIP3    H149906   6.674   2.254   1.451 -2.9128  1.5787 -0.7798
 9497TIP3    H249907   6.634   2.357   1.554  0.4379 -0.2560  2.4285
 9498TIP3   OH249908   5.020   5.495   2.536  0.2128  0.7298  0.2693
 9498TIP3    H149909   5.040   5.582   2.571 -2.0901  1.5482 -0.3994
 9498TIP3    H249910   5.011   5.508   2.442 -2.9607  0.3294  0.4888
 9499TIP3   OH249911   6.374   0.186   4.990 -0.0186  0.2720  0.0641
 9499TIP3    H149912   6.412   0.274   4.977  0.4884 -0.0584 -0.7732
 9499TIP3    H249913   6.432   0.128   4.940 -1.0035 -0.3934 -0.3173
 9500TIP3   OH249914   2.838   5.186   4.868 -0.1508  0.0983 -0.9167
 9500TIP3    H149915   2.913   5.232   4.904  0.0055 -2.4928  2.3246
 9500TIP3    H249916   2.868   5.095   4.859 -1.9272 -0.3607 -2.5381
 9501TIP3   OH249917   4.657   5.142   0.559 -0.0259  0.1453 -0.7028
 9501TIP3    H149918   4.646   5.047   0.550  0.1249 -0.0517  0.9720
 9501TIP3    H249919   4.732   5.152   0.618 -2.4938  1.2258  2.3699
 9502TIP3   OH249920   4.359   0.770  13.664  0.4254  0.1282  0.3102
 9502TIP3    H149921   4.359   0.702  13.730  3.2097 -0.4790 -0.2719
 9502TIP3    H249922   4.408   0.843  13.703  2.1460 -0.2606 -1.0667
 9503TIP3   OH249923   1.276   1.513  10.999  0.4315  0.5856  0.3189
 9503TIP3    H149924   1.336   1.526  10.926 -0.0671  0.1555 -0.1697
 9503TIP3    H249925   1.333   1.485  11.071  0.6319 -1.5186 -0.6199
 9504TIP3   OH249926   5.038   3.852  12.315 -0.6609  0.0780 -0.4522
 9504TIP3    H149927   4.971   3.830  12.251 -0.0613 -0.3283 -0.9434
 9504TIP3    H249928   5.039   3.948  12.316 -1.6065  0.0911 -0.0602
 9505TIP3   OH249929   3.403   4.431  11.238  0.3113  0.4343 -0.1648
 9505TIP3    H149930   3.423   4.476  11.156 -0.5331  0.1023 -0.5726
 9505TIP3    H249931   3.310   4.450  11.253  0.7617  1.4623  1.3451
 9506TIP3   OH249932   3.183   1.920  17.097  0.6763 -0.3612 -0.0658
 9506TIP3    H149933   3.181   1.825  17.085  2.5846 -0.3188 -0.9075
 9506TIP3    H249934   3.237   1.934  17.175 -0.6268 -0.0077  0.7933
 9507TIP3   OH249935   3.461   4.181   1.944 -0.2599 -0.3311 -0.1625
 9507TIP3    H149936   3.370   4.209   1.928 -0.3669 -0.1106  0.8070
 9507TIP3    H249937   3.495   4.161   1.857 -1.2050 -0.3025 -0.5489
 9508TIP3   OH249938   1.389   4.188  16.923 -0.2400  0.4362 -0.1530
 9508TIP3    H149939   1.306   4.198  16.877  0.9532 -0.7470 -2.6892
 9508TIP3    H249940   1.384   4.101  16.963  0.5324 -0.5010 -2.0220
 9509TIP3   OH249941   4.556   5.748   4.642  0.3833  0.0770 -0.3296
 9509TIP3    H149942   4.517   5.737   4.555 -1.8218  1.3245  0.4698
 9509TIP3    H249943   4.620   5.819   4.631  2.6628 -2.1059 -1.6905
 9510TIP3   OH249944   0.123   0.479  13.003 -0.7153 -0.0022 -0.0498
 9510TIP3    H149945   0.085   0.508  13.086 -3.0474 -1.0776 -0.6687
 9510TIP3    H249946   0.163   0.394  13.023  1.7242  1.2894  0.6811
 9511TIP3   OH249947   0.127   5.441   4.579 -0.4385 -0.2057 -0.5889
 9511TIP3    H149948   0.053   5.442   4.519 -0.9914 -0.2870  0.0772
 9511TIP3    H249949   0.205   5.438   4.523 -0.9917 -2.2383 -1.2912
 9512TIP3   OH249950   2.853   6.309  12.152  0.7363  0.1521 -0.1724
 9512TIP3    H149951   2.784   6.325  12.217 -0.1526  1.6588 -1.4581
 9512TIP3    H249952   2.933   6.300  12.204 -0.1192  0.3223  1.2037
 9513TIP3   OH249953   4.206   2.764  10.907  0.1923  0.2360  0.0811
 9513TIP3    H149954   4.135   2.753  10.970  0.4866  3.0054  0.9791
 9513TIP3    H249955   4.185   2.703  10.836 -1.5514 -1.0331  1.6288
 9514TIP3   OH249956   4.261   1.540  15.088 -0.0904 -0.2218  0.1853
 9514TIP3    H149957   4.354   1.543  15.109  0.1073  0.5949 -0.7095
 9514TIP3    H249958   4.248   1.616  15.030 -1.6243  0.5847  1.5414
 9515TIP3   OH249959   1.971   2.301  16.640 -1.1427  0.0978 -0.2041
 9515TIP3    H149960   1.944   2.369  16.578 -1.2737 -0.5865 -0.9034
 9515TIP3    H249961   1.939   2.220  16.601 -2.4826 -0.1935  1.4665
 9516TIP3   OH249962   1.720   6.543  14.663 -0.1740 -0.3835  0.0977
 9516TIP3    H149963   1.803   6.584  14.643  0.2161 -0.2516  1.8744
 9516TIP3    H249964   1.734   6.501  14.748 -1.8232 -0.6323  0.2639
 9517TIP3   OH249965   5.667   6.262   4.675  0.0977 -0.4371 -0.5620
 9517TIP3    H149966   5.639   6.172   4.695 -0.0681 -0.4619 -0.9127
 9517TIP3    H249967   5.728   6.253   4.601  0.2055 -0.2751 -0.4944
 9518TIP3   OH249968   2.164   1.088   4.028 -0.9059  0.5028 -0.4556
 9518TIP3    H149969   2.150   1.002   3.988 -1.8451  0.2829  0.3190
 9518TIP3    H249970   2.183   1.069   4.120  2.6012  0.9242 -1.0243
 9519TIP3   OH249971   1.078   0.205   4.341  0.1969  0.2751 -0.1162
 9519TIP3    H149972   1.130   0.201   4.421  0.1709  0.2587 -0.0999
 9519TIP3    H249973   1.092   0.120   4.299 -0.9103 -0.2570  0.5706
 9520TIP3   OH249974   6.705   4.397   5.314  0.5143 -0.1629  0.3887
 9520TIP3    H149975   6.690   4.315   5.266  1.0119  0.9414 -1.7502
 9520TIP3    H249976   6.787   4.431   5.277 -0.2916  1.8543  0.3957
 9521TIP3   OH249977   2.459   1.127  14.706  0.4179 -0.7716  0.0340
 9521TIP3    H149978   2.450   1.177  14.787 -0.7104 -2.3762  0.9256
 9521TIP3    H249979   2.369   1.101  14.685  0.6082  0.2250 -2.1342
 9522TIP3   OH249980   2.763   3.613  16.029  0.8632 -0.0210 -0.6505
 9522TIP3    H149981   2.842   3.630  16.082  0.6940  1.0288 -0.7269
 9522TIP3    H249982   2.699   3.675  16.062  0.9069  0.9867 -2.4253
 9523TIP3   OH249983   3.659   1.159  12.448  0.1048  0.7520  0.1543
 9523TIP3    H149984   3.681   1.103  12.373  0.1847 -1.2246  1.6196
 9523TIP3    H249985   3.734   1.218  12.457  0.8658 -0.1343 -0.2837
 9524TIP3   OH249986   2.578   3.060  16.911  0.5404 -0.8200  0.5508
 9524TIP3    H149987   2.626   3.142  16.915  0.5470 -0.7468 -0.7405
 9524TIP3    H249988   2.486   3.085  16.915  0.4586 -0.5378 -2.2778
 9525TIP3   OH249989   4.724   1.221  15.318 -0.1483 -0.4673  0.2018
 9525TIP3    H149990   4.639   1.255  15.346 -0.5957 -1.1028 -0.3619
 9525TIP3    H249991   4.786   1.253  15.383 -1.0650 -1.3800  1.5519
 9526TIP3   OH249992   0.427   6.735  12.382 -0.1266 -0.4444  0.8399
 9526TIP3    H149993   0.385   6.815  12.412 -0.2576 -0.0445 -0.3595
 9526TIP3    H249994   0.396   6.667  12.442 -0.5569  0.2784  1.4429
 9527TIP3   OH249995   3.547   5.620  16.875 -0.3866 -0.2239 -0.4965
 9527TIP3    H149996   3.540   5.653  16.785 -1.1105  1.3203  0.1120
 9527TIP3    H249997   3.528   5.696  16.930 -1.2770 -1.4816  0.9538
 9528TIP3   OH249998   3.262   4.506   5.561 -0.6622  0.2007  0.1007
 9528TIP3    H149999   3.210   4.561   5.619  0.4283  2.0461 -0.5936
 9528TIP3    H250000   3.217   4.510   5.477 -2.2119 -2.4266  0.7713
 9529TIP3   OH250001   0.147   1.529   5.305  0.7713  0.5471  0.3467
 9529TIP3    H150002   0.052   1.529   5.295  0.7606 -0.7367  0.3712
 9529TIP3    H250003   0.166   1.611   5.351 -0.3995  0.4511  1.0263
 9530TIP3   OH250004   2.621   3.814   4.695  1.0404 -0.5326 -0.0750
 9530TIP3    H150005   2.616   3.887   4.756  0.6696  0.5131 -1.3202
 9530TIP3    H250006   2.562   3.748   4.730  1.1858 -0.1295  0.9289
 9531TIP3   OH250007   6.181   3.562  17.206 -0.3318  0.1622 -0.1818
 9531TIP3    H150008   6.160   3.497  17.273  1.6743 -0.0695  0.2590
 9531TIP3    H250009   6.174   3.646  17.251  1.7692 -0.0347  0.5559
 9532TIP3   OH250010   0.140   5.143  11.850 -0.0981 -0.1193  0.5879
 9532TIP3    H150011   0.131   5.197  11.772  3.2689 -2.6201 -1.6828
 9532TIP3    H250012   0.079   5.070  11.836 -1.2631  0.6583  1.4894
 9533TIP3   OH250013   2.177   2.280  15.120 -0.2047  0.4069 -0.6517
 9533TIP3    H150014   2.239   2.320  15.059  0.8328 -0.6777 -0.3191
 9533TIP3    H250015   2.195   2.186  15.115  1.3828  0.4268  2.9166
 9534TIP3   OH250016   0.766   4.525  13.561 -0.0125 -0.3041  0.0250
 9534TIP3    H150017   0.699   4.578  13.603  0.2054 -1.1151  1.4350
 9534TIP3    H250018   0.719   4.448  13.529  0.1955 -0.8118  0.9012
 9535TIP3   OH250019   0.581   2.746   5.019  0.2114 -0.2015 -0.1828
 9535TIP3    H150020   0.614   2.677   5.077 -0.9074 -0.1554  0.5463
 9535TIP3    H250021   0.641   2.820   5.033  1.8006 -1.2191 -1.4599
 9536TIP3   OH250022   1.297   1.511   3.409 -0.1056 -0.0781 -0.5224
 9536TIP3    H150023   1.376   1.460   3.424  0.7662  1.0907 -1.1155
 9536TIP3    H250024   1.233   1.475   3.470  0.9200 -0.9385  0.0452
 9537TIP3   OH250025   4.960   1.791   2.216  0.7745  0.0247 -0.5180
 9537TIP3    H150026   4.926   1.730   2.151 -1.7194  0.2716  0.5395
 9537TIP3    H250027   4.989   1.867   2.164  0.7608 -0.6325 -1.5058
 9538TIP3   OH250028   4.819   5.856  15.327  0.5035  0.0236 -0.8850
 9538TIP3    H150029   4.850   5.939  15.291  1.5637 -0.0663 -0.2110
 9538TIP3    H250030   4.891   5.795  15.312  0.7613 -0.1435  0.8786
 9539TIP3   OH250031   4.339   5.817   1.280  0.2155 -0.2502  0.2968
 9539TIP3    H150032   4.354   5.822   1.374 -2.0116  0.6778  0.6444
 9539TIP3    H250033   4.361   5.904   1.247 -1.4945  0.2459  0.3923
 9540TIP3   OH250034   3.373   2.892  14.406 -0.1258  0.9076  0.1021
 9540TIP3    H150035   3.282   2.905  14.380  0.4966  1.0083 -2.1277
 9540TIP3    H250036   3.369   2.872  14.500 -2.4329  0.8715  0.0158
 9541TIP3   OH250037   3.225   1.899   1.965 -0.1746  0.5947 -0.4017
 9541TIP3    H150038   3.301   1.921   2.017 -1.1548  0.0667  1.3014
 9541TIP3    H250039   3.195   1.982   1.928  0.9013  0.8738 -0.6580
 9542TIP3   OH250040   1.640   2.174   5.749  0.1881  0.0024 -0.2756
 9542TIP3    H150041   1.656   2.092   5.797 -0.5445 -0.4717 -0.8295
 9542TIP3    H250042   1.580   2.223   5.806  1.6265  0.7075  0.6466
 9543TIP3   OH250043   1.716   4.856  13.200 -0.0806 -0.1604  0.5289
 9543TIP3    H150044   1.699   4.885  13.110  0.6895 -0.3094  0.3342
 9543TIP3    H250045   1.760   4.930  13.241 -1.7121  0.4579  1.2164
 9544TIP3   OH250046   3.415   5.642   5.942  0.0560 -0.0281  0.7639
 9544TIP3    H150047   3.458   5.563   5.910  2.4896  0.5339  2.4684
 9544TIP3    H250048   3.433   5.642   6.036  0.6033  2.8188  0.7112
 9545TIP3   OH250049   1.743   5.031   3.739  0.1105  0.1749 -0.1085
 9545TIP3    H150050   1.795   5.066   3.811  0.3948 -1.3815  0.4666
 9545TIP3    H250051   1.675   4.980   3.781 -0.8553  0.7851 -0.9090
 9546TIP3   OH250052   6.533   2.855   4.536  0.1482 -0.2064  0.1238
 9546TIP3    H150053   6.629   2.862   4.536  0.1488  0.7041 -2.7098
 9546TIP3    H250054   6.503   2.944   4.556 -0.0685  0.0814 -1.4186
 9547TIP3   OH250055   3.772   6.434  12.290 -0.7187  0.2664  0.0157
 9547TIP3    H150056   3.732   6.429  12.377 -0.1466  0.5783  0.2960
 9547TIP3    H250057   3.699   6.459  12.233 -1.2297 -0.5298  0.3037
 9548TIP3   OH250058   2.228   5.500   0.581 -0.0099 -0.0635  0.4882
 9548TIP3    H150059   2.252   5.412   0.551 -2.4436 -0.6144  0.0616
 9548TIP3    H250060   2.246   5.498   0.676 -0.1612 -1.0493  0.4998
 9549TIP3   OH250061   2.831   5.394   1.604 -0.6255 -0.5928  0.8413
 9549TIP3    H150062   2.788   5.465   1.650  0.7957  1.4114 -0.8061
 9549TIP3    H250063   2.762   5.330   1.587 -2.4734  1.5303  0.1676
 9550TIP3   OH250064   6.080   5.557  13.722  0.4465  0.0538 -0.1796
 9550TIP3    H150065   6.103   5.480  13.774  4.0312  0.4007 -1.1198
 9550TIP3    H250066   6.124   5.629  13.766 -0.1547  1.0271 -1.1577
 9551TIP3   OH250067   2.655   1.154   0.183  0.3698  0.5805  0.0888
 9551TIP3    H150068   2.685   1.241   0.212 -1.3818  0.8700  1.1236
 9551TIP3    H250069   2.561   1.156   0.199  0.2945 -1.4517 -0.0742
 9552TIP3   OH250070   2.896   4.281   4.741 -0.5299  0.5327  0.3623
 9552TIP3    H150071   2.937   4.322   4.817 -2.1872 -1.3937  2.3634
 9552TIP3    H250072   2.802   4.282   4.761 -0.8702 -1.2373 -1.0292
 9553TIP3   OH250073   1.617   0.821   4.361 -0.0196 -0.4492 -0.0513
 9553TIP3    H150074   1.530   0.861   4.363 -0.1518 -0.7535  0.3068
 9553TIP3    H250075   1.664   0.864   4.433  0.2399 -0.0283 -0.4704
 9554TIP3   OH250076   6.513   6.429   3.288  0.2081 -0.1037 -0.0605
 9554TIP3    H150077   6.564   6.505   3.316 -0.3622  0.3373 -0.2095
 9554TIP3    H250078   6.556   6.354   3.329  0.2830  0.3850  0.7620
 9555TIP3   OH250079   4.996   5.369  12.882 -0.9439  0.3319 -0.3629
 9555TIP3    H150080   5.029   5.434  12.944  0.2054 -2.3819  1.9634
 9555TIP3    H250081   5.036   5.287  12.910 -2.4566 -1.4247 -3.1550
 9556TIP3   OH250082   4.684   5.757   0.868  0.3436  0.3086 -0.3718
 9556TIP3    H150083   4.656   5.848   0.866 -0.7155 -0.0215 -1.0798
 9556TIP3    H250084   4.636   5.718   0.941 -1.7571 -0.4648 -2.1164
 9557TIP3   OH250085   3.009   5.092   3.153  0.3205 -0.1434  0.3952
 9557TIP3    H150086   3.049   5.030   3.092 -1.1762 -1.1284  0.4028
 9557TIP3    H250087   2.992   5.170   3.101  1.1506 -0.1557  0.1049
 9558TIP3   OH250088   0.970   5.074  10.141  0.5202  0.2861 -0.3090
 9558TIP3    H150089   0.914   5.082  10.218  1.0896 -0.1389  0.1574
 9558TIP3    H250090   1.034   5.145  10.149  1.3811 -0.5408  0.2969
 9559TIP3   OH250091   1.036   0.610  15.901 -0.2681 -0.4495  0.2045
 9559TIP3    H150092   1.101   0.547  15.870  1.9464 -1.0260  5.5707
 9559TIP3    H250093   0.973   0.557  15.950 -0.2970  1.0767  1.8368
 9560TIP3   OH250094   2.562   1.064   2.436 -0.1383 -0.7182 -0.0066
 9560TIP3    H150095   2.634   1.015   2.474 -0.5198 -3.3368 -2.4266
 9560TIP3    H250096   2.604   1.133   2.385  0.7265 -2.4925 -1.7539
 9561TIP3   OH250097   0.674   1.120  14.929  0.0915 -0.5042 -0.1680
 9561TIP3    H150098   0.737   1.081  14.869 -3.0165 -1.1158 -3.1608
 9561TIP3    H250099   0.689   1.214  14.922 -1.4888 -0.4432 -3.4455
 9562TIP3   OH250100   0.294   0.764   1.020 -0.3512  0.3164  0.2332
 9562TIP3    H150101   0.270   0.769   0.928 -2.6042  0.6850  0.7883
 9562TIP3    H250102   0.216   0.726   1.063  0.4991  0.5286  2.0206
 9563TIP3   OH250103   5.737   0.034  17.187 -0.0758  0.1595  0.1202
 9563TIP3    H150104   5.792   0.106  17.217  1.1877  0.1818 -2.1125
 9563TIP3    H250105   5.659   0.075  17.151  0.4705  0.4215 -0.7916
 9564TIP3   OH250106   0.317   5.393  12.843 -0.5859  0.2291  0.8624
 9564TIP3    H150107   0.226   5.380  12.816 -0.6975  0.7494  0.9923
 9564TIP3    H250108   0.363   5.412  12.762 -0.8173  1.2125  0.9601
 9565TIP3   OH250109   4.308   5.996  12.848 -0.2000  0.2053  0.4992
 9565TIP3    H150110   4.242   5.933  12.877  0.0326 -0.4112 -0.2952
 9565TIP3    H250111   4.390   5.946  12.846 -0.5062 -0.2656 -2.9023
 9566TIP3   OH250112   3.391   5.407   1.384  0.4255 -0.1260  0.3822
 9566TIP3    H150113   3.369   5.387   1.475 -0.0487 -1.7965 -0.0792
 9566TIP3    H250114   3.447   5.335   1.356 -0.3387 -0.2060 -0.9867
 9567TIP3   OH250115   4.638   1.400  13.778  0.0512  0.3190 -0.2551
 9567TIP3    H150116   4.622   1.494  13.775  0.9313  0.5601  1.5609
 9567TIP3    H250117   4.716   1.387  13.724 -0.1840  0.6080 -0.6616
 9568TIP3   OH250118   5.381   6.109   6.439  0.0931 -0.0230 -0.2303
 9568TIP3    H150119   5.398   6.059   6.359 -2.3179 -0.7793 -0.3176
 9568TIP3    H250120   5.348   6.044   6.500 -0.2574  0.9679  0.6332
 9569TIP3   OH250121   4.142   2.191   1.439  0.0424  0.2481 -0.5518
 9569TIP3    H150122   4.095   2.222   1.361 -1.7235 -0.1137  0.3353
 9569TIP3    H250123   4.138   2.264   1.500 -0.6213 -0.2858  0.0537
 9570TIP3   OH250124   6.575   0.081  16.093  0.1037  0.5207 -0.3914
 9570TIP3    H150125   6.591   0.110  16.182  0.9980 -1.0406 -0.0163
 9570TIP3    H250126   6.641   0.012  16.078 -1.3090 -0.6220 -1.5383
 9571TIP3   OH250127   5.969   4.517  15.590  0.4306  0.1451 -0.0721
 9571TIP3    H150128   5.883   4.527  15.629  0.8089  3.2527  0.0401
 9571TIP3    H250129   5.953   4.464  15.511 -1.4731  0.1551  0.2870
 9572TIP3   OH250130   2.455   1.296   2.685 -0.2314 -0.3967 -0.1358
 9572TIP3    H150131   2.431   1.216   2.731  1.1878 -0.4592  0.5263
 9572TIP3    H250132   2.540   1.276   2.644 -0.1622  0.5552 -0.4831
 9573TIP3   OH250133   3.286   2.903   0.538 -0.0555 -0.8291  0.2008
 9573TIP3    H150134   3.220   2.950   0.589  0.8619 -0.1733  0.7815
 9573TIP3    H250135   3.254   2.908   0.448 -1.3370 -1.4221  0.5932
 9574TIP3   OH250136   5.478   5.678   1.053  0.0083 -0.1241  0.2233
 9574TIP3    H150137   5.441   5.596   1.085  0.0875 -0.2620 -0.0388
 9574TIP3    H250138   5.572   5.662   1.048 -0.2400 -0.9766 -2.5561
 9575TIP3   OH250139   5.398   3.010   0.316 -0.2803 -0.2152 -0.3065
 9575TIP3    H150140   5.337   2.937   0.328  0.5039 -0.8087  0.1260
 9575TIP3    H250141   5.403   3.022   0.222 -1.7565  0.4326 -0.3276
 9576TIP3   OH250142   0.418   5.431   1.001 -0.1710 -0.2808 -0.3575
 9576TIP3    H150143   0.374   5.515   1.013 -1.8943 -1.0718 -0.9581
 9576TIP3    H250144   0.494   5.451   0.946 -0.4240  0.9173 -0.2829
 9577TIP3   OH250145   0.470   3.195  14.912  0.4241  0.5388  0.2242
 9577TIP3    H150146   0.538   3.130  14.930 -0.8138 -1.1085 -0.8599
 9577TIP3    H250147   0.504   3.249  14.841  2.0211  1.9712  2.0360
 9578TIP3   OH250148   2.212   2.315  13.137  0.4759 -0.9390 -0.7073
 9578TIP3    H150149   2.277   2.347  13.199 -0.6326 -0.2725  0.1398
 9578TIP3    H250150   2.147   2.386  13.133 -1.1263 -2.3472 -0.1405
 9579TIP3   OH250151   5.339   3.755   1.232 -0.0002  0.0862 -0.2801
 9579TIP3    H150152   5.317   3.803   1.312 -2.5423 -0.1864 -0.7744
 9579TIP3    H250153   5.354   3.665   1.261 -0.7028  0.0335 -0.0831
 9580TIP3   OH250154   2.389   1.075   5.916 -0.0512  0.1406 -0.6732
 9580TIP3    H150155   2.391   1.070   5.820  0.3110  0.7109 -0.7017
 9580TIP3    H250156   2.383   1.169   5.934  0.1589  0.0498 -0.1342
 9581TIP3   OH250157   2.469   3.845  11.933 -0.5102 -0.0547  0.3487
 9581TIP3    H150158   2.515   3.810  11.857  0.4219  0.1872  0.7959
 9581TIP3    H250159   2.474   3.940  11.923 -0.9055 -0.0264  0.4050
 9582TIP3   OH250160   2.221   3.237  11.701  0.6159 -0.6877 -0.5462
 9582TIP3    H150161   2.260   3.223  11.787  1.7204 -1.0601 -1.0955
 9582TIP3    H250162   2.256   3.166  11.647 -0.0861 -0.4717 -1.2934
 9583TIP3   OH250163   3.461   4.647  17.202 -0.3536 -0.6125  0.1388
 9583TIP3    H150164   3.462   4.726  17.149  1.7839 -0.1611  0.7952
 9583TIP3    H250165   3.375   4.647  17.243 -0.4969  1.2144 -0.1150
 9584TIP3   OH250166   5.145   1.847  12.677 -0.3434 -0.3849  0.2775
 9584TIP3    H150167   5.218   1.823  12.735  0.1744  0.9253  0.1986
 9584TIP3    H250168   5.105   1.764  12.652 -0.0564 -1.0096  1.8584
 9585TIP3   OH250169   2.356   2.527   2.346 -0.2751 -0.1795  0.2534
 9585TIP3    H150170   2.398   2.454   2.299  0.1727  1.4002 -1.8780
 9585TIP3    H250171   2.383   2.516   2.437 -0.6579 -2.9956  0.0972
 9586TIP3   OH250172   4.053   0.173   5.514 -0.6510  0.1907  0.5672
 9586TIP3    H150173   4.102   0.141   5.438 -1.0452  0.6391  0.1207
 9586TIP3    H250174   4.079   0.114   5.586  0.8187  0.6464  0.4250
 9587TIP3   OH250175   0.546   2.391   5.893 -0.3078  0.7999  0.4407
 9587TIP3    H150176   0.500   2.375   5.811  0.7523  0.7643 -0.1512
 9587TIP3    H250177   0.550   2.306   5.937  1.3134  0.3164 -0.6149
 9588TIP3   OH250178   4.726   5.547  16.152  0.2800  0.0729  0.1147
 9588TIP3    H150179   4.785   5.613  16.115  1.9542 -0.4409  1.7460
 9588TIP3    H250180   4.719   5.571  16.245  0.1137 -1.4605  0.5133
 9589TIP3   OH250181   6.154   2.363   3.679  0.4843 -0.2500  0.2815
 9589TIP3    H150182   6.059   2.361   3.670  0.4023 -1.1300  1.2310
 9589TIP3    H250183   6.173   2.447   3.722 -0.0405 -0.9809  1.9592
 9590TIP3   OH250184   6.096   1.062   2.512 -0.2290 -0.3601 -1.0089
 9590TIP3    H150185   6.095   1.056   2.416 -0.9084 -0.9776 -0.9654
 9590TIP3    H250186   6.082   0.972   2.542  1.4849 -0.4134 -0.3179
 9591TIP3   OH250187   2.875   1.383  13.306 -0.2398 -0.0826  0.0076
 9591TIP3    H150188   2.829   1.457  13.347 -1.5787 -1.3824  0.9061
 9591TIP3    H250189   2.914   1.420  13.227 -1.6661  1.3899 -0.0437
 9592TIP3   OH250190   3.152   4.063  16.271 -0.0822  0.0026  0.8175
 9592TIP3    H150191   3.076   4.112  16.240  0.8860  1.2810  0.3980
 9592TIP3    H250192   3.176   4.006  16.197 -0.1426  0.2058  0.6393
 9593TIP3   OH250193   1.469   3.466   4.780  0.0446  0.1763 -0.8122
 9593TIP3    H150194   1.439   3.470   4.689  1.6082 -1.8138 -1.4535
 9593TIP3    H250195   1.553   3.511   4.781 -1.5156  3.1835  0.3881
 9594TIP3   OH250196   3.317   6.274   5.738 -0.0948  0.6126 -0.1392
 9594TIP3    H150197   3.344   6.273   5.646  0.8471  0.8667  0.1247
 9594TIP3    H250198   3.344   6.189   5.772 -2.7618 -0.5204 -0.7247
 9595TIP3   OH250199   0.479   3.583  13.158  0.3377 -0.5322 -0.4605
 9595TIP3    H150200   0.512   3.531  13.232  0.9509 -0.7984 -0.9216
 9595TIP3    H250201   0.413   3.640  13.198  1.7879  0.4531  0.5872
 9596TIP3   OH250202   4.209   3.169   1.431  0.1645  0.0082  0.2357
 9596TIP3    H150203   4.114   3.180   1.424  0.0792 -0.5975  0.4370
 9596TIP3    H250204   4.225   3.079   1.405  0.4562 -0.5224  2.1637
 9597TIP3   OH250205   5.905   5.634   1.535 -0.2932  0.3293 -0.5791
 9597TIP3    H150206   5.819   5.600   1.511  0.5618 -1.5404 -1.1536
 9597TIP3    H250207   5.938   5.571   1.600  1.6904 -0.4958 -2.2969
 9598TIP3   OH250208   2.779   1.578   2.842 -0.6729 -0.3515  0.4095
 9598TIP3    H150209   2.874   1.592   2.846 -0.6151 -0.6412  0.1278
 9598TIP3    H250210   2.761   1.563   2.749 -1.0356 -0.0149  0.4262
 9599TIP3   OH250211   3.870   3.391   2.280  0.3282  0.3797 -0.4522
 9599TIP3    H150212   3.832   3.478   2.273 -0.0834  0.1707 -0.9327
 9599TIP3    H250213   3.795   3.334   2.299  0.0520 -0.2959 -3.2674
 9600TIP3   OH250214   0.844   2.346   6.422  0.3333 -0.3817  0.0175
 9600TIP3    H150215   0.872   2.403   6.350  0.5175  1.2999  1.3687
 9600TIP3    H250216   0.754   2.373   6.439 -0.0922 -1.5773 -0.3431
 9601TIP3   OH250217   1.093   0.315  15.211  0.6152  0.3671 -0.1300
 9601TIP3    H150218   1.135   0.289  15.130 -0.3881  1.2403 -0.9361
 9601TIP3    H250219   1.057   0.233  15.247  2.2987 -0.2473  0.1788
 9602TIP3   OH250220   5.663   0.902   1.394  0.5749 -0.1994 -0.0981
 9602TIP3    H150221   5.568   0.896   1.396  0.5450 -0.1155 -1.1370
 9602TIP3    H250222   5.691   0.873   1.481 -0.3737 -0.6117  0.0685
 9603TIP3   OH250223   6.149   3.758   5.686 -0.4625  0.2424 -0.1493
 9603TIP3    H150224   6.155   3.751   5.591 -0.3480  2.0246 -0.2999
 9603TIP3    H250225   6.070   3.811   5.701  0.2883  1.1574  0.6817
 9604TIP3   OH250226   5.065   3.898   0.052  0.3299 -0.5228  0.3393
 9604TIP3    H150227   5.142   3.871   0.003 -0.0289 -0.4395 -0.2784
 9604TIP3    H250228   5.096   3.913   0.141  1.1865  0.3536 -0.1008
 9605TIP3   OH250229   1.145   6.189   5.078  0.0417  0.7267 -0.2372
 9605TIP3    H150230   1.160   6.097   5.102  3.3690  1.6758  1.6471
 9605TIP3    H250231   1.143   6.235   5.161  0.4826  2.6459 -1.2734
 9606TIP3   OH250232   1.509   1.274  11.997  0.8468  0.0305 -0.1692
 9606TIP3    H150233   1.529   1.308  11.910  3.6056  0.4469  0.5838
 9606TIP3    H250234   1.587   1.224  12.022  1.3635  2.3828  3.2569
 9607TIP3   OH250235   2.574   5.322  14.378  0.0031  0.0122 -0.2230
 9607TIP3    H150236   2.527   5.239  14.372  2.4634 -1.4172 -0.1683
 9607TIP3    H250237   2.561   5.363  14.292  0.1805 -1.1984 -0.8411
 9608TIP3   OH250238   6.158   1.254   5.510  0.1151 -0.0135 -0.1113
 9608TIP3    H150239   6.239   1.291   5.473  1.1042 -0.7357  1.2758
 9608TIP3    H250240   6.179   1.161   5.523 -0.9043 -0.1712  0.4092
 9609TIP3   OH250241   1.767   2.985   0.272 -0.0856  0.7208  0.4242
 9609TIP3    H150242   1.852   2.951   0.246 -0.1752  0.7205  0.1347
 9609TIP3    H250243   1.711   2.907   0.278 -0.3535  0.8375 -0.4749
 9610TIP3   OH250244   2.145   0.962   1.040 -1.1687 -0.1341  0.0463
 9610TIP3    H150245   2.110   0.938   1.126 -2.2400  0.7185 -0.1324
 9610TIP3    H250246   2.112   1.051   1.025  0.4493  0.3946 -0.4892
 9611TIP3   OH250247   5.157   2.833  12.582 -0.2166  0.1484  0.4673
 9611TIP3    H150248   5.106   2.806  12.658 -1.0541  1.0485  0.2294
 9611TIP3    H250249   5.129   2.923  12.565  1.2152  0.5514  0.1447
 9612TIP3   OH250250   0.295   0.448   3.739 -0.2084 -0.1610 -0.6042
 9612TIP3    H150251   0.388   0.465   3.726 -0.2598 -0.6393 -1.6190
 9612TIP3    H250252   0.278   0.476   3.829  0.4653  1.8632 -1.0870
 9613TIP3   OH250253   0.401   4.511   3.846  0.1525 -0.1208 -0.4222
 9613TIP3    H150254   0.491   4.544   3.843 -0.3037  1.0631 -1.1622
 9613TIP3    H250255   0.397   4.460   3.927  1.4318 -0.0307 -0.2902
 9614TIP3   OH250256   1.539   2.207   3.980  0.1425 -0.0734  0.0912
 9614TIP3    H150257   1.500   2.167   3.903 -0.8420 -0.3570  0.7306
 9614TIP3    H250258   1.495   2.164   4.054  2.9056 -1.7119  0.8706
 9615TIP3   OH250259   1.425   1.444   1.700  0.2047 -0.0461  0.3755
 9615TIP3    H150260   1.518   1.423   1.701  0.1136 -0.4443  0.6367
 9615TIP3    H250261   1.382   1.365   1.732 -0.0440  1.0041  2.7774
 9616TIP3   OH250262   2.518   2.326  14.669  0.0423 -0.2666  0.5160
 9616TIP3    H150263   2.588   2.359  14.614 -0.6650  0.0171 -0.2146
 9616TIP3    H250264   2.490   2.402  14.720 -1.3111  0.1823 -0.8746
 9617TIP3   OH250265   2.874   4.316   3.508 -0.1604  0.2062  0.3992
 9617TIP3    H150266   2.840   4.237   3.551  0.0095 -0.3308 -0.4373
 9617TIP3    H250267   2.904   4.372   3.580 -0.7134 -0.2972  1.0207
 9618TIP3   OH250268   5.866   4.897   6.386  0.0019  0.2582 -0.1880
 9618TIP3    H150269   5.781   4.916   6.426 -0.0538 -0.5055  0.0728
 9618TIP3    H250270   5.896   4.981   6.352 -0.7478  0.5794 -0.0677
 9619TIP3   OH250271   4.753   2.877   5.490  0.0716 -0.3485  0.2264
 9619TIP3    H150272   4.782   2.804   5.435  0.8321 -0.8068  1.2174
 9619TIP3    H250273   4.824   2.889   5.553 -0.5373  0.5444  0.7479
 9620TIP3   OH250274   0.937   6.484   1.491  0.6110 -0.0540 -0.1082
 9620TIP3    H150275   1.022   6.462   1.530 -0.0447 -1.7605  0.3824
 9620TIP3    H250276   0.925   6.420   1.422 -1.4319 -1.4434  1.4850
 9621TIP3   OH250277   5.814   0.741  15.783  0.0721 -0.0947  0.1800
 9621TIP3    H150278   5.833   0.831  15.757  0.2584  0.5325  2.3341
 9621TIP3    H250279   5.899   0.706  15.811 -0.5471  0.1667  2.4819
 9622TIP3   OH250280   1.398   2.666  12.992 -0.3796 -0.0648 -0.6136
 9622TIP3    H150281   1.393   2.731  12.922 -3.3564  0.2337 -0.1719
 9622TIP3    H250282   1.309   2.633  13.001  0.5746 -2.3963  0.9035
 9623TIP3   OH250283   1.358   5.424  14.933  0.1515 -0.3562  0.1372
 9623TIP3    H150284   1.446   5.387  14.937  0.0342 -0.5425  1.2309
 9623TIP3    H250285   1.370   5.510  14.895  0.7248 -0.6469 -0.3414
 9624TIP3   OH250286   5.568   0.888  14.357 -0.6437  0.2149 -0.0972
 9624TIP3    H150287   5.574   0.792  14.364 -0.4690  0.2558  0.3339
 9624TIP3    H250288   5.553   0.917  14.447 -1.1492  0.5607 -0.2946
 9625TIP3   OH250289   5.025   5.419   3.386  0.2368  0.3109 -0.0553
 9625TIP3    H150290   5.070   5.334   3.381  0.0238  0.2105 -0.2866
 9625TIP3    H250291   5.095   5.483   3.382  0.4101  0.1433  0.2451
 9626TIP3   OH250292   2.320   4.028   4.885 -0.6145 -0.3733  0.0922
 9626TIP3    H150293   2.251   3.990   4.831  0.5759 -1.6826 -0.5340
 9626TIP3    H250294   2.276   4.054   4.966 -2.0844  0.0036 -0.8050
 9627TIP3   OH250295   6.243   6.314   4.875 -0.1653  0.1699 -0.3096
 9627TIP3    H150296   6.165   6.351   4.916  0.3100 -0.1297  0.8928
 9627TIP3    H250297   6.221   6.223   4.859 -0.3695  0.2995 -0.7789
 9628TIP3   OH250298   3.993   3.653   1.562 -0.1931 -0.0236  0.1881
 9628TIP3    H150299   3.963   3.685   1.477 -1.4757  0.9771  0.9980
 9628TIP3    H250300   3.913   3.632   1.610  0.5437 -1.2485  0.8969
 9629TIP3   OH250301   0.917   0.967  13.051  0.0829 -0.2919  0.3480
 9629TIP3    H150302   0.826   0.965  13.082 -0.3687 -0.6019 -0.9409
 9629TIP3    H250303   0.909   0.976  12.956  1.4013 -0.5758  0.2043
 9630TIP3   OH250304   4.525   0.083   2.061 -0.0783 -0.3416  0.1815
 9630TIP3    H150305   4.433   0.064   2.043 -0.3973  2.4264 -1.3363
 9630TIP3    H250306   4.570   0.063   1.978  0.5715 -0.8585  0.6545
 9631TIP3   OH250307   0.073   6.553  14.918  0.9470  0.3958 -0.0329
 9631TIP3    H150308   0.076   6.458  14.918  1.0751  0.3878 -1.4175
 9631TIP3    H250309   0.048   6.577  15.007  1.5849 -0.9041  0.5030
 9632TIP3   OH250310   4.410   0.570  13.396  0.6619 -0.3633 -0.0261
 9632TIP3    H150311   4.383   0.631  13.326  1.9444  0.8478  0.5101
 9632TIP3    H250312   4.335   0.512  13.406  0.3354 -0.3977 -2.2331
 9633TIP3   OH250313   0.383   2.339   4.076 -0.4482  0.5462  0.2571
 9633TIP3    H150314   0.391   2.244   4.070 -0.9342  0.4856  0.4636
 9633TIP3    H250315   0.298   2.353   4.118  0.9918  1.0134  3.1116
 9634TIP3   OH250316   4.012   0.681   1.494 -0.1941 -0.4903 -0.8010
 9634TIP3    H150317   4.101   0.675   1.458 -0.1428 -2.1752 -0.4190
 9634TIP3    H250318   3.973   0.755   1.446  1.4600  0.4099 -0.8264
 9635TIP3   OH250319   3.916   6.468  11.964 -0.7447  0.0666 -0.3409
 9635TIP3    H150320   3.898   6.395  12.023  4.0021 -0.5876  0.4832
 9635TIP3    H250321   3.907   6.546  12.019 -0.8248 -0.2225  0.0580
 9636TIP3   OH250322   2.908   2.357  14.094  0.1443 -0.0647  0.9793
 9636TIP3    H150323   2.951   2.436  14.063  0.2627  0.1374  1.6419
 9636TIP3    H250324   2.815   2.377  14.091  0.1670  0.0395  0.9834
 9637TIP3   OH250325   1.755   1.784   5.630  0.2471  0.1628  0.7981
 9637TIP3    H150326   1.842   1.796   5.667  0.4472 -0.8396  0.6896
 9637TIP3    H250327   1.734   1.867   5.588  0.1147  1.2188  2.9216
 9638TIP3   OH250328   6.201   0.518  16.917 -0.3416  0.1921  0.3115
 9638TIP3    H150329   6.254   0.439  16.907  0.0952  0.6365 -0.9626
 9638TIP3    H250330   6.114   0.485  16.937  0.2248 -0.5647  1.6642
 9639TIP3   OH250331   1.624   1.832   4.104  0.9407 -0.3379  0.1383
 9639TIP3    H150332   1.693   1.885   4.145  1.0608 -0.0719 -0.4026
 9639TIP3    H250333   1.547   1.889   4.103  1.1788 -0.0280 -0.8079
 9640TIP3   OH250334   6.535   0.718   4.099  0.4600 -0.0846  0.4144
 9640TIP3    H150335   6.557   0.625   4.097  1.2391  0.0781  0.9618
 9640TIP3    H250336   6.607   0.759   4.147  1.0122  1.0520 -1.3142
 9641TIP3   OH250337   4.419   1.310   2.756  0.1459  0.6366 -0.6432
 9641TIP3    H150338   4.424   1.231   2.810 -2.7972  0.9773  0.2234
 9641TIP3    H250339   4.417   1.382   2.820 -0.0422  1.2474 -1.3351
 9642TIP3   OH250340   1.796   2.104   3.240 -0.0637 -0.3181  0.2809
 9642TIP3    H150341   1.706   2.071   3.245 -0.1775 -0.4624 -2.1424
 9642TIP3    H250342   1.818   2.098   3.148  2.3681 -0.0356  0.8239
 9643TIP3   OH250343   6.427   0.988  12.063 -0.1081  0.0998  0.4371
 9643TIP3    H150344   6.412   1.066  12.010  0.3489  0.6773  1.1567
 9643TIP3    H250345   6.506   0.949  12.025  0.0082  0.3107  0.4630
 9644TIP3   OH250346   5.665   1.202  13.769  0.1634  0.0371  0.2013
 9644TIP3    H150347   5.574   1.224  13.787  0.0459 -0.7810  0.5954
 9644TIP3    H250348   5.685   1.130  13.828  0.3951 -1.2820 -1.4669
 9645TIP3   OH250349   5.353   2.659  16.003  0.0150 -0.1206  0.7232
 9645TIP3    H150350   5.263   2.678  16.030 -0.0370  0.9068 -0.1681
 9645TIP3    H250351   5.396   2.745  16.002  0.4581 -0.3546 -0.8378
 9646TIP3   OH250352   2.064   5.411  15.939  0.3651 -0.2088  0.0039
 9646TIP3    H150353   2.160   5.412  15.934  0.3810  0.8658  0.2850
 9646TIP3    H250354   2.036   5.406  15.848  0.6888 -1.1166 -0.0473
 9647TIP3   OH250355   2.932   0.048  15.111  0.3100  0.1876 -0.1687
 9647TIP3    H150356   2.976   0.022  15.191  1.0526 -0.3967 -0.7585
 9647TIP3    H250357   2.915  -0.035  15.065  0.2547  0.5397 -0.7923
 9648TIP3   OH250358   5.741   5.672   1.050 -0.2381 -0.1859 -0.2757
 9648TIP3    H150359   5.778   5.583   1.047 -1.0620 -0.5365 -0.2617
 9648TIP3    H250360   5.750   5.697   1.142 -0.3739 -0.4188 -0.1966
 9649TIP3   OH250361   4.232   1.070  14.715  0.2098 -0.0072  0.1719
 9649TIP3    H150362   4.306   1.058  14.774 -0.1929 -1.0701  0.4686
 9649TIP3    H250363   4.221   1.165  14.709  1.8436  0.1665 -0.1999
 9650TIP3   OH250364   2.164   1.427  16.894  0.6356  0.0084  0.4160
 9650TIP3    H150365   2.168   1.516  16.930  0.2234  1.7887 -3.6371
 9650TIP3    H250366   2.072   1.403  16.901  0.2689  0.9890 -0.8412
 9651TIP3   OH250367   5.919   6.275   4.225  0.0945 -0.0906 -0.0113
 9651TIP3    H150368   5.907   6.218   4.149  0.9977 -2.1031  1.3121
 9651TIP3    H250369   6.008   6.310   4.215 -0.9980  2.3894 -1.6269
 9652TIP3   OH250370   6.342   6.288  13.584 -0.0658 -0.3124  0.2455
 9652TIP3    H150371   6.429   6.293  13.625 -0.3106  0.9671  0.6332
 9652TIP3    H250372   6.355   6.233  13.507  1.0664 -0.2585  0.3868
 9653TIP3   OH250373   5.394   6.409  12.838 -0.4215 -0.2697 -0.3144
 9653TIP3    H150374   5.467   6.381  12.784 -0.7494  1.1835 -1.5603
 9653TIP3    H250375   5.425   6.402  12.928  0.1560 -2.6723 -0.6861
 9654TIP3   OH250376   3.318   5.296  11.645 -1.0175 -0.3183  0.1279
 9654TIP3    H150377   3.340   5.278  11.553 -1.3580 -1.1879  0.2069
 9654TIP3    H250378   3.227   5.327  11.642 -0.5622  1.0482  0.0356
 9655TIP3   OH250379   5.873   4.492   5.978 -0.3569  0.4778 -0.1430
 9655TIP3    H150380   5.820   4.413   5.971  0.8173 -0.4288  0.8793
 9655TIP3    H250381   5.887   4.503   6.072  0.2197  1.4099 -0.3294
 9656TIP3   OH250382   3.100   2.871  13.103  0.8152  0.1875 -0.1221
 9656TIP3    H150383   3.060   2.883  13.017 -0.5350  1.8043  0.6947
 9656TIP3    H250384   3.193   2.858  13.084  0.7155  1.6355 -1.7908
 9657TIP3   OH250385   6.662   3.047   3.682  0.1303 -0.1711 -0.1419
 9657TIP3    H150386   6.687   2.960   3.649  4.4197  0.0791  2.0109
 9657TIP3    H250387   6.598   3.029   3.752  1.7243 -1.7359  0.9612
 9658TIP3   OH250388   5.863   2.149   6.791 -0.0957 -0.2351 -0.3517
 9658TIP3    H150389   5.813   2.189   6.862  2.1164  1.0642  0.5184
 9658TIP3    H250390   5.839   2.056   6.794 -0.6102 -0.0571  1.6224
 9659TIP3   OH250391   1.580   5.320   2.782 -0.2139 -0.6900  1.1293
 9659TIP3    H150392   1.524   5.374   2.838 -1.1527 -1.5017  0.9674
 9659TIP3    H250393   1.659   5.305   2.835  0.1381  0.9739  1.1113
 9660TIP3   OH250394   3.572   2.503  17.233 -0.2141 -0.1004  0.2085
 9660TIP3    H150395   3.574   2.484  17.140  0.5097 -0.9614  0.3932
 9660TIP3    H250396   3.481   2.489  17.258 -0.8346  2.0235 -0.7325
 9661TIP3   OH250397   3.324   2.946  13.967  0.1040 -0.0991  0.2382
 9661TIP3    H150398   3.377   2.960  13.888  1.2670 -1.1768  0.8085
 9661TIP3    H250399   3.385   2.908  14.030 -1.4567 -1.7486  0.7930
 9662TIP3   OH250400   0.610   1.473  17.059 -0.0527 -0.8524 -0.2107
 9662TIP3    H150401   0.650   1.510  17.137  0.3832 -1.3521 -0.1944
 9662TIP3    H250402   0.582   1.385  17.085 -0.0230 -0.9729 -0.5823
 9663TIP3   OH250403   6.188   4.539  16.507 -0.4335  0.4916 -0.0526
 9663TIP3    H150404   6.152   4.569  16.424  1.6440  0.4466 -1.0041
 9663TIP3    H250405   6.188   4.617  16.563  0.9483  1.2640 -1.0950
 9664TIP3   OH250406   0.404   4.714   3.502 -0.2519 -0.2723  0.3480
 9664TIP3    H150407   0.431   4.749   3.587 -1.5301  0.4803  0.4557
 9664TIP3    H250408   0.463   4.755   3.439 -0.9898  1.2216  0.6050
 9665TIP3   OH250409   2.260   4.484  12.423 -0.0292 -0.3259  0.7924
 9665TIP3    H150410   2.318   4.518  12.492 -0.3097 -0.0192  0.8783
 9665TIP3    H250411   2.205   4.559  12.400  0.6518 -0.1885 -0.3778
 9666TIP3   OH250412   0.740   3.301  12.156 -0.0292  0.4022 -0.0774
 9666TIP3    H150413   0.692   3.343  12.228 -2.1047  0.0489 -1.2238
 9666TIP3    H250414   0.776   3.374  12.106 -2.2124  0.8027 -1.1083
 9667TIP3   OH250415   1.522   4.534   1.796  0.1600  0.0226  0.0223
 9667TIP3    H150416   1.611   4.501   1.786  0.3410  0.4200  0.2668
 9667TIP3    H250417   1.499   4.570   1.711 -0.0800 -0.8309 -0.2730
 9668TIP3   OH250418   4.334   2.942   0.878  0.1652  0.0719 -0.0806
 9668TIP3    H150419   4.293   2.927   0.793  1.4215  1.2427 -0.9268
 9668TIP3    H250420   4.428   2.935   0.861  0.4906  1.5866  0.9361
 9669TIP3   OH250421   4.201   6.118  15.682  0.5756 -0.6409 -0.0673
 9669TIP3    H150422   4.249   6.147  15.605 -0.0606 -0.6457 -0.4625
 9669TIP3    H250423   4.221   6.183  15.749 -0.7551  0.6551 -0.9136
 9670TIP3   OH250424   3.368   5.117   2.360  0.1611 -0.2591  0.1711
 9670TIP3    H150425   3.340   5.119   2.269  1.6987 -1.3680 -0.3643
 9670TIP3    H250426   3.464   5.123   2.355  0.2705 -0.5642  1.6987
 9671TIP3   OH250427   2.965   6.669   4.272 -0.5765  0.4023 -0.2211
 9671TIP3    H150428   3.049   6.636   4.241 -1.0940 -0.8521 -0.3198
 9671TIP3    H250429   2.933   6.725   4.201 -0.2828  0.1010 -0.5920
 9672TIP3   OH250430   0.550   4.962  11.277  0.3331 -0.5360  0.0976
 9672TIP3    H150431   0.635   5.006  11.270  0.7183 -1.1920  0.6230
 9672TIP3    H250432   0.571   4.869  11.281 -0.5123 -0.8313 -1.7498
 9673TIP3   OH250433   5.570   2.046   1.563 -0.6929  0.3002 -0.4669
 9673TIP3    H150434   5.558   1.965   1.612  0.7143 -0.6713 -1.6776
 9673TIP3    H250435   5.654   2.035   1.518 -2.1205  0.9330 -3.4495
 9674TIP3   OH250436   3.870   4.778  15.595  0.2988  0.0320  0.6008
 9674TIP3    H150437   3.805   4.729  15.644 -0.6287  1.6150  0.9907
 9674TIP3    H250438   3.857   4.751  15.504  0.5505 -1.2568  0.9341
 9675TIP3   OH250439   6.339   3.384  15.330  0.4147 -0.0133  0.0462
 9675TIP3    H150440   6.282   3.415  15.400  1.3927  1.1463  0.3485
 9675TIP3    H250441   6.284   3.325  15.279 -1.0547  1.0748  0.3288
 9676TIP3   OH250442   0.050   3.127   5.295  0.1765 -0.0772 -0.5750
 9676TIP3    H150443   0.022   3.171   5.375  0.5712 -0.6801 -0.0968
 9676TIP3    H250444   0.012   3.179   5.224 -0.1909  0.4502  0.0032
 9677TIP3   OH250445   5.073   2.815   3.904  0.4423  0.5229 -0.0728
 9677TIP3    H150446   5.148   2.874   3.898 -0.2504  1.5020  0.6025
 9677TIP3    H250447   5.038   2.810   3.815  0.3689  1.3301 -0.0944
 9678TIP3   OH250448   2.534   2.953  12.221  0.1396 -0.4211 -0.2062
 9678TIP3    H150449   2.582   2.882  12.263  1.6287  0.0058 -1.1149
 9678TIP3    H250450   2.519   3.016  12.291  0.9785 -0.5429  0.0938
 9679TIP3   OH250451   3.441   1.050  16.558  0.2260  0.2803  0.2429
 9679TIP3    H150452   3.439   0.972  16.613 -0.9419  0.3721  0.3385
 9679TIP3    H250453   3.349   1.067  16.537  0.5959  0.7315 -1.0508
 9680TIP3   OH250454   4.497   3.764  16.990  0.3352  0.2612 -0.2404
 9680TIP3    H150455   4.450   3.808  16.920 -1.1278 -0.9421 -0.0308
 9680TIP3    H250456   4.470   3.809  17.070 -0.9097 -0.7606 -0.0611
 9681TIP3   OH250457   0.429   3.718   2.925 -0.1501  0.0687 -0.0663
 9681TIP3    H150458   0.387   3.664   2.992 -2.6473 -2.2690 -3.2925
 9681TIP3    H250459   0.405   3.807   2.947 -1.1002 -0.6763  2.0337
 9682TIP3   OH250460   6.784   2.893   2.154 -0.0241 -0.0884  0.0975
 9682TIP3    H150461   6.848   2.953   2.193  0.2623 -0.3175 -0.0236
 9682TIP3    H250462   6.833   2.844   2.088 -0.0203 -1.1494  0.8736
 9683TIP3   OH250463   1.111   4.435   0.325 -0.1445 -0.2213  0.0712
 9683TIP3    H150464   1.070   4.409   0.408 -1.3182  1.2618 -0.0151
 9683TIP3    H250465   1.055   4.506   0.292  0.3192 -0.7705 -1.9791
 9684TIP3   OH250466   4.489   6.348   5.273 -0.0883  0.0166 -0.3506
 9684TIP3    H150467   4.495   6.265   5.225  1.6337 -1.9274  2.9930
 9684TIP3    H250468   4.574   6.389   5.259  1.0352 -1.3142  2.1775
 9685TIP3   OH250469   3.605   0.797  14.611  0.2140 -0.2208  0.1435
 9685TIP3    H150470   3.570   0.782  14.699  0.0210 -0.1620  0.0780
 9685TIP3    H250471   3.667   0.869  14.622  1.1040 -1.0296  0.4466
 9686TIP3   OH250472   0.427   1.564   4.209  0.1336  0.1472 -0.3712
 9686TIP3    H150473   0.494   1.631   4.224 -0.5183  1.0987 -1.6017
 9686TIP3    H250474   0.391   1.585   4.123 -1.0880 -0.9314 -0.1426
 9687TIP3   OH250475   1.746   5.516  13.860 -0.2354  0.4167 -0.3541
 9687TIP3    H150476   1.764   5.431  13.819  1.0819  1.2277 -1.4837
 9687TIP3    H250477   1.688   5.560  13.798 -0.0846  0.7397 -0.2667
 9688TIP3   OH250478   2.471   0.935   0.570 -0.0911 -0.1566  0.4723
 9688TIP3    H150479   2.395   0.955   0.516 -0.4221  0.6236  1.2112
 9688TIP3    H250480   2.544   0.979   0.526 -0.3743  0.5457  0.6880
 9689TIP3   OH250481   4.979   2.190   3.743  0.6991  0.6463 -0.7069
 9689TIP3    H150482   5.029   2.134   3.684 -0.8130 -0.5815 -0.8319
 9689TIP3    H250483   4.887   2.173   3.722  0.1457  0.6146  1.5777
 9690TIP3   OH250484   1.010   0.271   0.131 -0.4948 -0.1573  0.0614
 9690TIP3    H150485   1.045   0.196   0.083  0.3195  0.9525 -1.1311
 9690TIP3    H250486   1.047   0.263   0.219  0.3564 -0.6409 -0.3367
 9691TIP3   OH250487   0.430   4.545  15.052 -0.5574  0.7221  0.0721
 9691TIP3    H150488   0.425   4.579  14.962  0.1298  0.9226  0.1066
 9691TIP3    H250489   0.504   4.484  15.050 -0.3226  0.9880  0.5877
 9692TIP3   OH250490   6.774   5.523   2.055  0.0254  0.3194  0.3557
 9692TIP3    H150491   6.825   5.493   2.131  0.4625 -3.1101 -1.2319
 9692TIP3    H250492   6.834   5.581   2.008  1.1113 -0.5519  0.6378
 9693TIP3   OH250493   0.098   3.076   4.925  0.2135  0.0865  0.0032
 9693TIP3    H150494   0.072   2.984   4.932  0.1965  0.2593  2.8751
 9693TIP3    H250495   0.016   3.122   4.904 -0.2419 -0.3093  0.8645
 9694TIP3   OH250496   6.458   0.284  16.586 -0.2935 -0.3175 -0.3922
 9694TIP3    H150497   6.369   0.291  16.621  0.6776  0.0694  2.0504
 9694TIP3    H250498   6.508   0.350  16.633  1.6140 -1.5046 -0.7076
 9695TIP3   OH250499   2.035   5.777  13.156 -0.1828  0.0563  0.1411
 9695TIP3    H150500   2.063   5.709  13.094 -0.0144  1.3448 -1.2289
 9695TIP3    H250501   2.044   5.858  13.107  1.4765  1.2749  2.3933
 9696TIP3   OH250502   0.806   6.154   4.141 -0.5000  0.0546  0.5282
 9696TIP3    H150503   0.896   6.187   4.150  0.0595 -1.1812 -0.4508
 9696TIP3    H250504   0.754   6.233   4.125  0.3329  0.8401  1.6264
 9697TIP3   OH250505   2.348   6.507  12.490  0.7052 -0.2931  0.4101
 9697TIP3    H150506   2.324   6.450  12.562 -1.9956  1.7172  1.1875
 9697TIP3    H250507   2.394   6.580  12.531 -0.1802  0.4857  0.0494
 9698TIP3   OH250508   0.557   3.570  13.658  0.7260 -0.2092 -0.0742
 9698TIP3    H150509   0.508   3.542  13.735  1.8308  0.3145  0.8455
 9698TIP3    H250510   0.640   3.522  13.664  1.2088  0.5748 -0.3906
 9699TIP3   OH250511   1.212   1.766   5.058  0.1433 -0.0494  0.2679
 9699TIP3    H150512   1.262   1.845   5.080 -0.2798 -0.0874  1.4254
 9699TIP3    H250513   1.226   1.707   5.133  1.0262 -1.3598 -0.8923
 9700TIP3   OH250514   2.648   0.848   5.602 -0.1429 -0.0247  0.2120
 9700TIP3    H150515   2.636   0.907   5.528 -0.6833 -0.5411 -0.1117
 9700TIP3    H250516   2.743   0.841   5.612 -0.0600 -0.6041 -0.9484
 9701TIP3   OH250517   4.313   5.359   4.914  0.2219  0.1736  0.5573
 9701TIP3    H150518   4.357   5.437   4.880 -0.3235  0.6239  0.8720
 9701TIP3    H250519   4.352   5.346   5.001  1.8734 -1.1890 -0.3543
 9702TIP3   OH250520   0.572   3.392   4.253  0.2532  0.2780  0.3055
 9702TIP3    H150521   0.512   3.454   4.293  0.4680 -0.5351  1.9408
 9702TIP3    H250522   0.516   3.323   4.217  0.1425  0.0547  0.8978
 9703TIP3   OH250523   2.367   4.657   5.149  0.3427 -0.2193 -0.4953
 9703TIP3    H150524   2.454   4.696   5.142  2.0174 -3.1308  2.6703
 9703TIP3    H250525   2.346   4.659   5.242 -1.4529 -2.6431 -0.7810
 9704TIP3   OH250526   1.870   0.810   2.663  0.1120  0.3307  0.9025
 9704TIP3    H150527   1.884   0.724   2.625  0.5598  0.3218  1.0875
 9704TIP3    H250528   1.958   0.848   2.670 -0.1540  1.0955  0.1228
 9705TIP3   OH250529   1.444   4.086   3.097 -0.1403 -0.1944  0.4074
 9705TIP3    H150530   1.429   3.998   3.064 -0.3683 -0.2646  0.6955
 9705TIP3    H250531   1.445   4.141   3.019  0.7594 -0.5501  0.1629
 9706TIP3   OH250532   4.452   2.185  16.046  0.3764 -0.6251 -0.5407
 9706TIP3    H150533   4.460   2.249  16.116  0.8471 -0.2010 -0.9794
 9706TIP3    H250534   4.538   2.144  16.041 -0.2666 -2.1414  0.5307
 9707TIP3   OH250535   0.777   6.567   4.195  0.0160  0.5440 -0.5657
 9707TIP3    H150536   0.708   6.615   4.241  0.5763  1.2860 -0.4866
 9707TIP3    H250537   0.740   6.480   4.179 -0.7699  0.7986 -0.1332
 9708TIP3   OH250538   0.988   2.013   3.258  0.1014  0.2085 -0.2693
 9708TIP3    H150539   0.952   1.964   3.184  1.1344 -0.6768 -0.1925
 9708TIP3    H250540   0.912   2.031   3.314 -0.7571  1.1529 -1.6651
 9709TIP3   OH250541   3.643   2.094   2.371 -0.1662  0.4496  0.0946
 9709TIP3    H150542   3.708   2.038   2.413 -0.5811  0.0306  0.1808
 9709TIP3    H250543   3.687   2.126   2.292  0.6204  1.2539  0.8508
 9710TIP3   OH250544   1.790   5.746   2.528  0.2367  0.1370  0.3339
 9710TIP3    H150545   1.815   5.663   2.567 -0.1368  0.8206  2.0928
 9710TIP3    H250546   1.873   5.785   2.499  0.4662 -0.6124 -0.0080
 9711TIP3   OH250547   1.713   2.463   4.902  0.4193  0.1158 -0.5506
 9711TIP3    H150548   1.712   2.392   4.966  0.0727 -1.0499 -1.8203
 9711TIP3    H250549   1.805   2.472   4.878  0.3906 -0.3850 -0.8793
 9712TIP3   OH250550   2.477   5.324   1.728  0.3041  0.1032  0.0288
 9712TIP3    H150551   2.524   5.327   1.811  1.1475  0.8240 -0.4706
 9712TIP3    H250552   2.401   5.381   1.742  0.2184 -0.1105  0.4404
 9713TIP3   OH250553   6.359   5.604  16.398  0.4074  0.4834  0.1659
 9713TIP3    H150554   6.441   5.567  16.432  0.6525  1.9561  1.2117
 9713TIP3    H250555   6.382   5.637  16.312  1.2703  2.0859  0.9835
 9714TIP3   OH250556   0.454   2.479   2.762  0.2782 -0.6721  0.2257
 9714TIP3    H150557   0.365   2.455   2.784  0.5661 -1.8057  0.1888
 9714TIP3    H250558   0.456   2.481   2.666 -0.0587  0.7193  0.2451
 9715TIP3   OH250559   0.733   0.026  11.822 -0.6520  0.0509  0.0152
 9715TIP3    H150560   0.706   0.080  11.897  0.1607  2.2408 -1.2045
 9715TIP3    H250561   0.772  -0.052  11.861  2.7424  2.5675  2.0278
 9716TIP3   OH250562   1.652   0.364  16.669 -1.0113 -0.2245  0.0781
 9716TIP3    H150563   1.629   0.431  16.605  0.8628  3.3650  2.9167
 9716TIP3    H250564   1.672   0.286  16.617  3.1585  3.2605 -3.9972
 9717TIP3   OH250565   4.986   3.030  15.146 -0.0949  0.4230  0.4524
 9717TIP3    H150566   5.019   3.109  15.103  0.5293  0.6827  1.4137
 9717TIP3    H250567   5.061   2.971  15.149 -0.8298 -0.6581 -1.2634
 9718TIP3   OH250568   5.633   5.427   6.197 -0.5500 -0.1735 -0.4960
 9718TIP3    H150569   5.695   5.437   6.126 -1.2598  1.1653 -0.9402
 9718TIP3    H250570   5.547   5.436   6.156 -1.0507 -1.7107  0.1551
 9719TIP3   OH250571   6.765   6.642   2.917  0.3743  0.0747 -0.4113
 9719TIP3    H150572   6.796   6.570   2.862  0.2904  0.1955 -0.6177
 9719TIP3    H250573   6.844   6.692   2.938  0.4219 -0.0340 -0.3304
 9720TIP3   OH250574   0.437   3.101  17.021 -0.0312  0.0583 -0.3862
 9720TIP3    H150575   0.525   3.065  17.021  0.1817  0.5533  0.7242
 9720TIP3    H250576   0.379   3.026  17.035  0.0384 -0.6085 -3.3870
 9721TIP3   OH250577   0.254   2.143   4.493  0.4120  0.8304 -0.1676
 9721TIP3    H150578   0.182   2.085   4.521  0.4186  0.5714 -0.6770
 9721TIP3    H250579   0.305   2.158   4.573  0.9072 -0.5748 -0.2096
 9722TIP3   OH250580   0.224   3.407  14.600  0.3667 -0.5135 -0.9270
 9722TIP3    H150581   0.246   3.347  14.671 -0.2558 -3.2702 -2.9485
 9722TIP3    H250582   0.129   3.421  14.609  0.5500  0.3442 -0.3272
 9723TIP3   OH250583   1.573   0.800   1.090 -0.5168 -0.3059 -0.2252
 9723TIP3    H150584   1.597   0.892   1.096  1.3881 -0.7228 -1.3757
 9723TIP3    H250585   1.541   0.789   1.001 -0.3708 -0.8473 -0.2128
 9724TIP3   OH250586   5.464   0.628   5.542  0.1554  0.0621  0.3294
 9724TIP3    H150587   5.372   0.607   5.558 -0.0796 -0.0522 -1.0866
 9724TIP3    H250588   5.511   0.548   5.566 -0.2262 -0.2594  0.0275
 9725TIP3   OH250589   2.862   1.046   1.820  0.0526  0.2141  0.1795
 9725TIP3    H150590   2.811   1.127   1.818 -0.5142 -0.1540 -0.7334
 9725TIP3    H250591   2.912   1.047   1.738  0.7372  0.0826  0.5948
 9726TIP3   OH250592   3.720   0.316   4.021 -0.0533  0.1370  0.1561
 9726TIP3    H150593   3.674   0.330   4.104  0.3958  0.8680  0.2903
 9726TIP3    H250594   3.693   0.229   3.993 -0.2968 -0.0729  1.0168
 9727TIP3   OH250595   4.238   0.764   3.856 -0.0580 -0.0478  0.2011
 9727TIP3    H150596   4.230   0.671   3.878  0.5989 -0.1918 -0.1418
 9727TIP3    H250597   4.333   0.779   3.848 -0.1270  0.8016  0.8866
 9728TIP3   OH250598   2.428   3.906   0.555  0.3573 -0.2108 -0.7138
 9728TIP3    H150599   2.492   3.855   0.505  1.4793  0.3152  0.1802
 9728TIP3    H250600   2.399   3.847   0.625  1.5664  0.3269  0.2487
 9729TIP3   OH250601   5.014   4.161   2.533 -0.2605  0.2961  0.9308
 9729TIP3    H150602   4.920   4.174   2.547 -0.5222  0.2732 -0.7767
 9729TIP3    H250603   5.038   4.093   2.597 -1.7104 -0.7872  0.3538
 9730TIP3   OH250604   1.809   5.146   0.923 -0.1920  0.0136 -0.4250
 9730TIP3    H150605   1.853   5.222   0.885 -0.1417  0.0657 -0.2617
 9730TIP3    H250606   1.813   5.079   0.855  1.9242 -0.6570  0.3421
 9731TIP3   OH250607   4.397   3.150  14.328 -0.0067  0.0247  0.1131
 9731TIP3    H150608   4.448   3.090  14.274 -2.9703 -1.8218 -0.7832
 9731TIP3    H250609   4.358   3.094  14.395 -0.3979  1.4616  1.1151
 9732TIP3   OH250610   2.493   5.350  11.449 -0.7116  0.3379 -0.3848
 9732TIP3    H150611   2.496   5.432  11.400 -0.1638 -0.0583 -1.0278
 9732TIP3    H250612   2.570   5.354  11.506 -1.3744  0.8209  0.4966
 9733TIP3   OH250613   3.088   0.668  14.016 -0.0687 -0.3119  0.3163
 9733TIP3    H150614   3.073   0.729  14.088  0.0327  0.0737  0.0136
 9733TIP3    H250615   3.020   0.690  13.952 -0.4180 -0.9315  0.4772
 9734TIP3   OH250616   2.196   0.585   3.759 -0.2820 -0.0818  0.2302
 9734TIP3    H150617   2.108   0.586   3.721 -0.3805 -0.1258  0.4593
 9734TIP3    H250618   2.198   0.506   3.813  0.1741 -0.5287 -0.4355
 9735TIP3   OH250619   5.395   5.468  15.081  0.3207  0.3540 -0.0159
 9735TIP3    H150620   5.420   5.416  15.004 -0.0299  0.6010 -0.3003
 9735TIP3    H250621   5.381   5.556  15.045 -3.3130 -0.2667 -0.2773
 9736TIP3   OH250622   6.032   6.607   1.540 -0.3430 -0.1724 -0.7749
 9736TIP3    H150623   6.108   6.646   1.584 -0.5993  1.0108 -1.3432
 9736TIP3    H250624   5.974   6.579   1.611 -0.5481  1.2998 -0.3355
 9737TIP3   OH250625   1.243   0.174   4.834  0.1528  0.2576 -0.3848
 9737TIP3    H150626   1.245   0.176   4.929  0.3054 -1.4466 -0.3400
 9737TIP3    H250627   1.210   0.260   4.809 -0.3672  0.5370  1.2151
 9738TIP3   OH250628   4.434   2.149   1.682  0.2112 -1.1446 -0.5504
 9738TIP3    H150629   4.436   2.165   1.587 -2.4231  0.6241 -0.3498
 9738TIP3    H250630   4.524   2.164   1.710  0.5981  0.4278 -2.4679
 9739TIP3   OH250631   4.627   0.209  15.364  0.3674 -0.0991  0.2407
 9739TIP3    H150632   4.716   0.194  15.332  0.4001  1.5679 -0.4985
 9739TIP3    H250633   4.571   0.156  15.307  0.6329  1.1075 -1.1846
 9740TIP3   OH250634   2.146   0.136  10.548  0.0963  0.4033  0.8004
 9740TIP3    H150635   2.221   0.156  10.604  0.1947  1.6528  0.2387
 9740TIP3    H250636   2.078   0.197  10.577  0.3974  1.5890 -0.9251
 9741TIP3   OH250637   2.539   4.923  11.127 -0.5956 -0.5112  0.6452
 9741TIP3    H150638   2.501   4.931  11.040 -0.9707 -2.9149  0.5514
 9741TIP3    H250639   2.605   4.991  11.132 -1.0315  0.0563 -1.2771
 9742TIP3   OH250640   3.112   0.239  16.012  0.6171 -0.0491 -0.0849
 9742TIP3    H150641   3.166   0.164  15.987  0.0995 -0.8773  1.2076
 9742TIP3    H250642   3.050   0.249  15.940 -0.3443 -1.8968  0.4327
 9743TIP3   OH250643   0.085   6.748   3.962 -0.5011 -0.5429 -0.8039
 9743TIP3    H150644   0.125   6.693   3.895 -0.3013 -0.3543 -0.8371
 9743TIP3    H250645   0.097   6.837   3.931  0.7485 -0.3773  0.1114
 9744TIP3   OH250646   0.588   0.426   0.271 -0.0717 -0.0891 -0.4502
 9744TIP3    H150647   0.556   0.336   0.263  1.3305 -0.5093 -1.4209
 9744TIP3    H250648   0.517   0.480   0.235 -0.9745 -0.7825  0.2622
 9745TIP3   OH250649   5.378   4.673  15.333 -0.2125 -0.2933  0.0914
 9745TIP3    H150650   5.472   4.676  15.352 -0.3200 -0.9145  0.7353
 9745TIP3    H250651   5.371   4.707  15.244  0.6654 -0.6094 -0.1042
 9746TIP3   OH250652   1.734   3.185  10.811  0.2739  0.1582  0.1433
 9746TIP3    H150653   1.785   3.262  10.837  0.9817  0.0238 -0.7800
 9746TIP3    H250654   1.660   3.221  10.762 -0.0012  0.3126  0.6807
 9747TIP3   OH250655   5.153   1.234  14.837 -0.2726 -0.0011  0.5309
 9747TIP3    H150656   5.148   1.151  14.791 -1.6019  0.7021 -0.6026
 9747TIP3    H250657   5.184   1.297  14.772 -1.0115  0.7630  0.9071
 9748TIP3   OH250658   3.756   5.901  11.240 -0.0342 -0.0164  0.3210
 9748TIP3    H150659   3.746   5.806  11.242  0.1552 -0.0375  3.3731
 9748TIP3    H250660   3.701   5.932  11.312 -0.1498  2.2012 -0.6756
 9749TIP3   OH250661   6.255   4.345   4.341  0.0506 -0.1229 -0.2065
 9749TIP3    H150662   6.190   4.395   4.293  0.5714  0.6560 -0.1179
 9749TIP3    H250663   6.322   4.323   4.276 -0.2712 -0.8823 -0.2884
 9750TIP3   OH250664   0.421   6.430  16.586  0.3777  0.5849 -0.1167
 9750TIP3    H150665   0.476   6.421  16.664  0.0781 -0.1858  0.0016
 9750TIP3    H250666   0.345   6.374  16.602  0.1437  0.6896 -0.8123
 9751TIP3   OH250667   0.599   2.414   0.902 -0.4000 -0.0367 -0.0178
 9751TIP3    H150668   0.516   2.428   0.854  0.8241  0.8262 -1.9666
 9751TIP3    H250669   0.663   2.464   0.852  1.4812 -1.4348  0.9684
 9752TIP3   OH250670   3.351   4.749  12.732 -0.0383 -0.0614  0.5834
 9752TIP3    H150671   3.281   4.786  12.679  1.0410  1.0785 -0.0976
 9752TIP3    H250672   3.431   4.772  12.685  0.7737 -1.8470  1.0336
 9753TIP3   OH250673   5.315   4.784   3.587 -0.1242 -0.3061  0.3833
 9753TIP3    H150674   5.328   4.751   3.498  0.7612 -2.0479  1.1366
 9753TIP3    H250675   5.239   4.735   3.620  0.2315 -0.4696  0.9687
 9754TIP3   OH250676   4.374   4.167  16.069 -0.5455 -0.2514 -0.5542
 9754TIP3    H150677   4.308   4.212  16.123 -1.5944 -0.9341 -1.2624
 9754TIP3    H250678   4.349   4.075  16.072  1.5709 -0.8178  0.8484
 9755TIP3   OH250679   1.953   2.376  14.388 -0.5381  0.3747  0.2254
 9755TIP3    H150680   1.980   2.292  14.425  2.5385  0.7138 -1.1123
 9755TIP3    H250681   1.877   2.402  14.441 -0.2185 -2.1801  2.0581
 9756TIP3   OH250682   2.195   3.214   1.712 -0.0246  0.0091 -0.3261
 9756TIP3    H150683   2.127   3.278   1.734  0.4685 -0.2544  2.1103
 9756TIP3    H250684   2.275   3.266   1.704 -0.2689  0.1505 -1.9026
 9757TIP3   OH250685   3.145   5.207   2.613 -0.4045 -0.6986  0.0350
 9757TIP3    H150686   3.183   5.228   2.527 -0.4907 -1.1806 -0.1245
 9757TIP3    H250687   3.058   5.246   2.611 -0.3647 -0.6142 -0.0569
 9758TIP3   OH250688   1.415   1.896  17.033  0.0162 -0.0132  0.2009
 9758TIP3    H150689   1.404   1.873  17.125  0.1628 -0.9314 -0.0034
 9758TIP3    H250690   1.406   1.991  17.030  0.6253  0.0737  1.2416
 9759TIP3   OH250691   5.796   5.572  16.140 -0.3844 -0.0585 -0.0887
 9759TIP3    H150692   5.877   5.580  16.091  0.5273 -1.0807  1.2057
 9759TIP3    H250693   5.747   5.504  16.094  0.0955 -0.4096 -0.0882
 9760TIP3   OH250694   3.251   1.451   3.160  0.3106 -0.3780 -0.0865
 9760TIP3    H150695   3.187   1.502   3.111 -0.9292 -0.1634  1.6907
 9760TIP3    H250696   3.334   1.498   3.148 -0.1144  0.0556 -1.3613
 9761TIP3   OH250697   3.890   1.824   5.618 -0.8050  0.0265  0.1493
 9761TIP3    H150698   3.959   1.821   5.684  0.9120  2.5264 -1.4548
 9761TIP3    H250699   3.933   1.794   5.537 -1.4545  2.0292 -0.9640
 9762TIP3   OH250700   5.343   2.706   3.115  0.3980  0.0795  0.1480
 9762TIP3    H150701   5.367   2.617   3.140  1.1534 -0.1456 -1.3365
 9762TIP3    H250702   5.426   2.754   3.115  0.5689 -0.1381 -2.7115
 9763TIP3   OH250703   6.220   1.663   5.467 -0.1782  0.6502 -0.2503
 9763TIP3    H150704   6.312   1.682   5.486 -0.0956 -0.6614  0.7688
 9763TIP3    H250705   6.181   1.649   5.553 -1.2412  0.7895 -0.7071
 9764TIP3   OH250706   4.753   2.985   2.429 -0.1826 -0.1930  0.0948
 9764TIP3    H150707   4.784   3.072   2.406 -0.6951 -0.1188 -0.3113
 9764TIP3    H250708   4.689   2.999   2.499  0.5841 -0.3353  0.8335
 9765TIP3   OH250709   2.295   1.374  14.446 -0.1539 -0.0934 -0.6673
 9765TIP3    H150710   2.278   1.337  14.360  1.4220  0.2025 -1.1271
 9765TIP3    H250711   2.233   1.446  14.454 -0.2053 -0.0233 -1.6209
 9766TIP3   OH250712   6.146   1.653   6.706  0.0629 -0.4122  0.2359
 9766TIP3    H150713   6.058   1.645   6.671  0.1393  1.1330 -0.3191
 9766TIP3    H250714   6.202   1.615   6.639 -0.0439 -0.0218 -0.0747
 9767TIP3   OH250715   2.553   6.076   0.726 -0.4825 -0.5439  0.3811
 9767TIP3    H150716   2.479   6.133   0.748  0.3477  0.8454 -0.3679
 9767TIP3    H250717   2.532   6.041   0.640  1.0530  2.1740 -1.1682
 9768TIP3   OH250718   3.666   2.731   2.628  0.1153  0.0290 -0.1425
 9768TIP3    H150719   3.580   2.729   2.669 -0.1602  2.6602 -0.4524
 9768TIP3    H250720   3.652   2.695   2.541 -0.5339 -0.1643  0.0380
 9769TIP3   OH250721   1.630   5.460  15.302 -0.5583 -0.2336  0.8236
 9769TIP3    H150722   1.625   5.553  15.282 -0.2968 -0.4981 -0.5612
 9769TIP3    H250723   1.542   5.426  15.281  0.3863 -0.9449 -2.3275
 9770TIP3   OH250724   0.664   6.665   1.341 -0.0919 -0.3466  0.0622
 9770TIP3    H150725   0.743   6.648   1.291  0.4092  0.1411  0.6883
 9770TIP3    H250726   0.599   6.605   1.304  0.6025 -0.8497 -0.3506
 9771TIP3   OH250727   4.717   4.407  12.391 -0.2138 -0.1751  0.6566
 9771TIP3    H150728   4.769   4.476  12.349 -0.9471  0.4818  0.8178
 9771TIP3    H250729   4.782   4.346  12.425  0.4130 -0.1851 -0.5349
 9772TIP3   OH250730   1.035   5.650  12.237 -0.4339 -0.2565 -0.1853
 9772TIP3    H150731   0.980   5.574  12.257 -1.7323  0.1975 -1.8769
 9772TIP3    H250732   1.053   5.690  12.322 -1.2302 -1.4599  0.5572
 9773TIP3   OH250733   4.064   3.318   5.566  0.0469 -0.5015 -0.3003
 9773TIP3    H150734   4.108   3.298   5.649 -0.9108  1.3483  0.6890
 9773TIP3    H250735   4.078   3.412   5.554 -2.4740 -0.1454 -0.6603
 9774TIP3   OH250736   2.581   2.143  11.532  0.1978 -0.5001  0.5738
 9774TIP3    H150737   2.676   2.146  11.548 -0.0832  1.2276  2.0700
 9774TIP3    H250738   2.552   2.064  11.577  1.1052 -1.7399 -0.9774
 9775TIP3   OH250739   2.767   3.394   1.250  0.5325  0.3681  0.5983
 9775TIP3    H150740   2.697   3.409   1.187  0.8017 -1.9236 -0.2660
 9775TIP3    H250741   2.743   3.313   1.295  1.1094  1.1658  2.3949
 9776TIP3   OH250742   1.382   1.529   2.413 -0.1862  0.2486  0.0953
 9776TIP3    H150743   1.299   1.574   2.430 -0.2457  0.4263 -0.6645
 9776TIP3    H250744   1.363   1.471   2.340  0.1280 -0.3749  0.5060
 9777TIP3   OH250745   4.712   6.467   5.227  0.1407 -0.1076 -0.3839
 9777TIP3    H150746   4.733   6.493   5.317  0.7732 -0.1847 -0.5069
 9777TIP3    H250747   4.675   6.546   5.188 -0.8450 -0.2907  0.1678
 9778TIP3   OH250748   0.432   5.240   1.197  0.0980 -0.1613  0.0136
 9778TIP3    H150749   0.436   5.328   1.159 -1.1196  0.2085  0.7189
 9778TIP3    H250750   0.470   5.251   1.285  0.5893 -0.4803 -0.1621
 9779TIP3   OH250751   6.774   1.658  16.954  0.4708  0.1024  0.6580
 9779TIP3    H150752   6.835   1.726  16.923  0.1887  0.5111  1.0007
 9779TIP3    H250753   6.812   1.629  17.037  0.9037 -0.5730  0.2352
 9780TIP3   OH250754   2.713   1.590   0.605  0.6509  0.8959 -0.5077
 9780TIP3    H150755   2.627   1.604   0.646  0.9427  0.5414  0.2358
 9780TIP3    H250756   2.776   1.616   0.672  1.1649 -1.7328  0.0831
 9781TIP3   OH250757   4.304   0.924  14.033 -0.2809  0.7880 -0.0366
 9781TIP3    H150758   4.244   0.939  13.960 -1.0040  1.1653  0.6275
 9781TIP3    H250759   4.389   0.912  13.991 -1.0019 -1.0090 -1.0715
 9782TIP3   OH250760   3.101   0.336   5.672 -0.1392 -0.3030  0.6207
 9782TIP3    H150761   3.139   0.334   5.584  1.1381 -0.3058  1.1660
 9782TIP3    H250762   3.053   0.418   5.675 -0.3405 -0.3853 -0.1411
 9783TIP3   OH250763   3.634   4.629  16.428 -0.0497  0.9048  0.1690
 9783TIP3    H150764   3.729   4.628  16.439 -0.0851  2.4082  0.7869
 9783TIP3    H250765   3.599   4.640  16.516 -0.9280 -2.2063  0.2806
 9784TIP3   OH250766   5.115   5.601  16.257 -0.5646 -0.1527 -0.2023
 9784TIP3    H150767   5.182   5.533  16.250  1.3790  1.5140  1.5222
 9784TIP3    H250768   5.076   5.588  16.343 -0.1528  0.8951  0.1588
 9785TIP3   OH250769   6.439   4.849   0.435  0.1470  0.0798 -0.3093
 9785TIP3    H150770   6.388   4.836   0.355 -1.1516  0.9523  0.3687
 9785TIP3    H250771   6.375   4.846   0.506  1.2665 -0.5222  0.7019
 9786TIP3   OH250772   5.432   5.942  12.002  0.6298  0.7080 -0.5357
 9786TIP3    H150773   5.494   5.919  12.071  1.2699 -0.9861 -1.6504
 9786TIP3    H250774   5.346   5.915  12.037  1.0341 -0.7798 -0.6903
 9787TIP3   OH250775   6.083   4.906  11.069 -0.8326  0.5111  0.7751
 9787TIP3    H150776   6.076   4.817  11.035 -2.6393  1.2747 -0.9615
 9787TIP3    H250777   6.009   4.953  11.029 -0.1763  2.6761  2.0090
 9788TIP3   OH250778   1.282   5.134   0.760  0.1100 -0.6499  0.4698
 9788TIP3    H150779   1.305   5.044   0.739  1.5861 -0.2758  0.3900
 9788TIP3    H250780   1.274   5.136   0.855  1.7951 -0.5003  0.6248
 9789TIP3   OH250781   0.086   2.670   0.728 -0.5554  0.0309 -0.1926
 9789TIP3    H150782  -0.000   2.699   0.759  0.5016  1.7103  1.2479
 9789TIP3    H250783   0.139   2.665   0.808  1.2074  0.8815 -1.2999
 9790TIP3   OH250784   6.085   0.733   6.380 -0.2659 -0.4138  0.2623
 9790TIP3    H150785   6.168   0.685   6.381 -0.1421 -0.1975  0.2937
 9790TIP3    H250786   6.044   0.707   6.298  0.1534  0.0266 -0.0874
 9791TIP3   OH250787   5.631   6.719  11.886 -0.5792 -0.2465  0.3277
 9791TIP3    H150788   5.567   6.685  11.824 -0.9050 -0.8693  1.0052
 9791TIP3    H250789   5.645   6.648  11.948  1.2688 -0.3509 -0.1846
 9792TIP3   OH250790   0.039   3.585   6.195 -0.1407 -0.2862 -0.3589
 9792TIP3    H150791   0.131   3.563   6.210 -0.3636 -0.6815  0.4449
 9792TIP3    H250792  -0.009   3.507   6.224 -0.7417 -0.0114 -0.6175
 9793TIP3   OH250793   1.308   5.606   1.067  0.6952 -0.6598 -0.1320
 9793TIP3    H150794   1.286   5.594   1.159  0.6117  0.7559  0.0544
 9793TIP3    H250795   1.370   5.679   1.066 -0.8907  0.7178 -1.3550
 9794TIP3   OH250796   4.826   1.473  12.492 -0.0612 -0.5262 -0.1136
 9794TIP3    H150797   4.851   1.408  12.426  1.4661  0.0205 -0.0904
 9794TIP3    H250798   4.850   1.432  12.576  2.1289  0.5430 -0.1612
 9795TIP3   OH250799   2.732   1.403   5.637  0.2122 -0.1974 -0.3008
 9795TIP3    H150800   2.641   1.427   5.656  0.0045 -2.2428  1.5795
 9795TIP3    H250801   2.744   1.424   5.545 -1.3335  2.6336  0.0916
 9796TIP3   OH250802   5.228   4.893   3.850 -0.4180 -0.1463 -0.2441
 9796TIP3    H150803   5.134   4.874   3.861 -0.8989  1.6533 -1.0217
 9796TIP3    H250804   5.252   4.847   3.770 -0.5664 -0.8356  0.1021
 9797TIP3   OH250805   6.360   1.692  16.388 -0.0782  0.0219 -0.4214
 9797TIP3    H150806   6.361   1.609  16.436 -2.0509 -0.3946 -1.0655
 9797TIP3    H250807   6.445   1.696  16.345  1.3416 -0.0916  2.2458
 9798TIP3   OH250808   6.546   0.056  10.422  0.4758 -0.1409  0.3548
 9798TIP3    H150809   6.576   0.131  10.473  0.7783  0.3791 -0.5810
 9798TIP3    H250810   6.570  -0.020  10.475 -0.2013  0.4363  1.4930
 9799TIP3   OH250811   1.184   1.679  13.796  0.5365  0.2601  0.0327
 9799TIP3    H150812   1.168   1.710  13.707 -1.3513  0.5908  0.4512
 9799TIP3    H250813   1.110   1.620  13.814  0.7132  0.4688  1.5043
 9800TIP3   OH250814   6.397   2.026  13.525  0.8340  0.0618 -0.0956
 9800TIP3    H150815   6.455   1.969  13.475  1.0596 -0.4488  0.7420
 9800TIP3    H250816   6.451   2.102  13.547  1.0955 -0.2760  0.4268
 9801TIP3   OH250817   3.418   1.581   2.539 -0.4157 -0.4703  0.0911
 9801TIP3    H150818   3.465   1.549   2.617  0.3207  0.3961  0.0095
 9801TIP3    H250819   3.427   1.676   2.544 -0.9823 -0.3800 -0.6786
 9802TIP3   OH250820   1.897   3.899  14.899 -0.5374 -0.1518 -0.3491
 9802TIP3    H150821   1.978   3.946  14.921 -0.3852 -0.9490  0.8600
 9802TIP3    H250822   1.840   3.913  14.974 -1.1082 -0.5174 -0.7106
 9803TIP3   OH250823   1.155   0.649  15.132  0.0773  0.0548  0.1518
 9803TIP3    H150824   1.113   0.661  15.218  2.9595  4.2436  1.1569
 9803TIP3    H250825   1.223   0.584  15.148 -0.6172 -0.5911  0.5537
 9804TIP3   OH250826   5.065   1.140   4.484 -0.1379 -0.4934 -0.2488
 9804TIP3    H150827   4.980   1.106   4.513 -0.5988  0.4581 -0.4560
 9804TIP3    H250828   5.106   1.067   4.438 -1.8128 -0.2761 -2.1453
 9805TIP3   OH250829   3.484   1.273   5.310 -0.2942 -0.2475 -0.3816
 9805TIP3    H150830   3.437   1.196   5.341 -0.9580  0.2323 -0.1862
 9805TIP3    H250831   3.564   1.238   5.271  0.6519 -0.8746  2.0405
 9806TIP3   OH250832   2.677   4.947  14.400 -0.0787  0.6045  0.0858
 9806TIP3    H150833   2.721   4.961  14.316  0.1681  0.1736  0.1366
 9806TIP3    H250834   2.733   4.882  14.444 -0.8171 -0.0196  0.1120
 9807TIP3   OH250835   3.229   3.686  11.484  0.8221  0.5392 -0.2816
 9807TIP3    H150836   3.280   3.616  11.442  1.2729  0.5584  0.2325
 9807TIP3    H250837   3.293   3.736  11.533  0.4721  1.2389 -0.5393
 9808TIP3   OH250838   0.394   1.186   3.926  0.8341  0.2204  0.3572
 9808TIP3    H150839   0.468   1.242   3.905  0.9184 -0.4905 -1.3615
 9808TIP3    H250840   0.318   1.235   3.895  1.0320 -1.2464 -2.7174
 9809TIP3   OH250841   0.328   3.879  13.500  0.2299  1.1294 -0.7600
 9809TIP3    H150842   0.369   3.906  13.582 -1.6176  0.1955  0.5246
 9809TIP3    H250843   0.391   3.902  13.432  2.2153  1.0225  1.0084
 9810TIP3   OH250844   5.670   3.199   5.172 -0.2449 -0.5810  0.5050
 9810TIP3    H150845   5.677   3.189   5.077  0.1305 -0.4592  0.5187
 9810TIP3    H250846   5.644   3.112   5.203  1.8119 -1.2227  0.5052
 9811TIP3   OH250847   4.033   3.583   1.118 -0.3549  0.0395 -0.1316
 9811TIP3    H150848   3.974   3.650   1.152  2.0018  2.6595 -0.9768
 9811TIP3    H250849   4.083   3.554   1.194  0.4185  1.1712 -0.1926
 9812TIP3   OH250850   3.236   6.770  13.168 -0.3714 -0.6445  0.1661
 9812TIP3    H150851   3.297   6.738  13.234  0.1037 -2.0790 -0.9603
 9812TIP3    H250852   3.155   6.789  13.216  0.8596  1.0743  1.6311
 9813TIP3   OH250853   3.903   5.150  13.704 -0.0924  0.1588  0.2278
 9813TIP3    H150854   3.807   5.146  13.702 -0.0787  0.0976 -0.9802
 9813TIP3    H250855   3.930   5.108  13.623  0.9316  1.0354  0.0972
 9814TIP3   OH250856   0.115   0.432   1.601  0.3955  0.0900 -0.1433
 9814TIP3    H150857   0.137   0.346   1.565 -0.5928 -1.2409  2.3395
 9814TIP3    H250858   0.186   0.451   1.662  0.1206  0.6041  0.0155
 9815TIP3   OH250859   5.103   2.025   0.868  0.2802 -0.3011 -0.5275
 9815TIP3    H150860   5.094   1.933   0.843  1.3797  0.0354 -2.1872
 9815TIP3    H250861   5.013   2.058   0.870 -0.0601 -1.2066 -0.7099
 9816TIP3   OH250862   3.880   6.426   1.326  0.1572  0.2469 -0.3840
 9816TIP3    H150863   3.892   6.355   1.263  0.4815 -0.1631  0.1319
 9816TIP3    H250864   3.938   6.495   1.296 -0.6814  0.5736 -1.2919
 9817TIP3   OH250865   1.890   3.955   5.845 -0.4472  0.2953  0.0610
 9817TIP3    H150866   1.918   4.034   5.890 -1.2640  0.8466 -0.3900
 9817TIP3    H250867   1.912   3.970   5.753  0.2222 -0.3764  0.1040
 9818TIP3   OH250868   3.368   3.222  13.632 -0.0523 -0.1861 -0.6093
 9818TIP3    H150869   3.297   3.241  13.693  0.4996 -1.7003  0.5335
 9818TIP3    H250870   3.416   3.305  13.623  0.6381 -0.2752  2.0477
 9819TIP3   OH250871   0.841   3.750   0.186  0.1472 -0.3002 -0.6670
 9819TIP3    H150872   0.888   3.801   0.119 -0.4996  0.8643 -0.2528
 9819TIP3    H250873   0.771   3.706   0.137 -1.0877  1.5188 -0.6006
 9820TIP3   OH250874   6.343   2.769   2.401  0.2086  0.1630  0.2488
 9820TIP3    H150875   6.423   2.770   2.348  0.6413  0.0666  0.8932
 9820TIP3    H250876   6.371   2.730   2.484 -0.6236 -0.3443  0.2923
 9821TIP3   OH250877   2.456   4.633   3.210  0.2826 -0.5690 -0.2539
 9821TIP3    H150878   2.440   4.696   3.280 -0.9758 -1.4522  0.2726
 9821TIP3    H250879   2.423   4.676   3.131 -1.2326 -0.8539  0.2209
 9822TIP3   OH250880   3.463   2.017  11.527 -0.1237 -0.0931 -0.5724
 9822TIP3    H150881   3.543   1.966  11.537  1.2119  1.6648 -1.8645
 9822TIP3    H250882   3.464   2.079  11.600 -0.3020 -0.0597 -0.5972
 9823TIP3   OH250883   2.623   4.425   1.865  0.5217  0.0351 -0.3871
 9823TIP3    H150884   2.666   4.497   1.910  0.6308 -0.5326  0.4440
 9823TIP3    H250885   2.686   4.397   1.798  0.4119  0.8055 -0.8137
 9824TIP3   OH250886   0.305   1.453  14.954  0.2271  0.1218 -0.6677
 9824TIP3    H150887   0.390   1.408  14.958 -0.8638 -2.3376 -3.3000
 9824TIP3    H250888   0.300   1.486  14.864 -1.0361  1.4358 -0.1202
 9825TIP3   OH250889   3.629   0.777   1.145  0.0935  0.0016  0.0249
 9825TIP3    H150890   3.607   0.689   1.176  1.4957  0.2779  1.9382
 9825TIP3    H250891   3.701   0.805   1.202 -0.7772  2.6606 -0.1063
 9826TIP3   OH250892   5.795   0.639  12.302  0.2717 -0.3132  0.7279
 9826TIP3    H150893   5.712   0.658  12.347 -0.9369 -1.3053 -1.0184
 9826TIP3    H250894   5.777   0.560  12.252  1.7536  0.4571 -1.0681
 9827TIP3   OH250895   1.111   0.657  12.079  0.4627  0.2786 -0.7467
 9827TIP3    H150896   1.182   0.721  12.094 -0.5239  1.2898 -0.2992
 9827TIP3    H250897   1.034   0.711  12.064 -0.0879 -0.8245 -1.8721
 9828TIP3   OH250898   2.449   4.188  17.183 -0.3048 -0.3420  0.1017
 9828TIP3    H150899   2.428   4.094  17.189  1.3542 -0.6362  1.8141
 9828TIP3    H250900   2.519   4.201  17.247 -0.7367  2.1492  0.1183
 9829TIP3   OH250901   5.155   3.241  13.806  0.2556 -0.2159 -0.0290
 9829TIP3    H150902   5.127   3.332  13.803  2.2175  0.4754  1.4118
 9829TIP3    H250903   5.142   3.215  13.898  1.2364 -0.8575 -0.0563
 9830TIP3   OH250904   1.915   1.429   0.896  0.3532  0.3995 -0.2533
 9830TIP3    H150905   1.980   1.360   0.908  1.4339  1.3231 -0.7122
 9830TIP3    H250906   1.879   1.413   0.809  1.0739  0.7906 -0.6311
 9831TIP3   OH250907   1.131   3.630   2.348  0.2673 -0.6328 -0.0400
 9831TIP3    H150908   1.095   3.545   2.320 -0.5403 -0.4763  0.4993
 9831TIP3    H250909   1.226   3.617   2.349  0.1111 -1.8014  0.8713
 9832TIP3   OH250910   2.797   3.523  11.428  0.3050  0.0260 -0.3846
 9832TIP3    H150911   2.811   3.467  11.504  1.0072  1.1564  0.3269
 9832TIP3    H250912   2.705   3.511  11.405 -0.1861  0.5069  1.2980
 9833TIP3   OH250913   0.445   6.406   2.569 -0.0946  0.4397  0.0534
 9833TIP3    H150914   0.434   6.312   2.565 -1.3476  0.5986 -0.2026
 9833TIP3    H250915   0.413   6.438   2.485 -0.2198  1.1484  0.3631
 9834TIP3   OH250916   2.888   1.172   0.349  0.2826 -0.2464 -0.3845
 9834TIP3    H150917   2.949   1.099   0.345  0.4708 -0.0646 -1.0437
 9834TIP3    H250918   2.814   1.144   0.294 -0.6427 -0.8370  1.1408
 9835TIP3   OH250919   6.267   0.891   4.605  0.5611  0.1492  0.0137
 9835TIP3    H150920   6.172   0.883   4.595  0.5285 -1.2096  1.2814
 9835TIP3    H250921   6.282   0.985   4.618 -0.8022  0.1601  1.6687
 9836TIP3   OH250922   1.983   2.441   1.411  0.0405 -0.4537 -0.1018
 9836TIP3    H150923   2.049   2.447   1.480 -0.8330  1.6231  0.5866
 9836TIP3    H250924   1.915   2.385   1.447  0.4289 -0.8752 -0.0109
 9837TIP3   OH250925   3.055   3.023   3.396 -0.6546 -0.0303 -0.5518
 9837TIP3    H150926   2.965   3.056   3.394 -0.2739  1.0306 -0.2228
 9837TIP3    H250927   3.098   3.066   3.322  0.0610  0.8623  0.3735
 9838TIP3   OH250928   1.122   0.315  11.227  0.0224 -0.3095  0.3513
 9838TIP3    H150929   1.108   0.260  11.150  2.5432  0.6004 -0.8299
 9838TIP3    H250930   1.217   0.324  11.233 -0.2002  1.1244  2.5339
 9839TIP3   OH250931   4.977   1.954  14.673 -0.1015  0.4571 -0.6955
 9839TIP3    H150932   4.928   2.033  14.650 -0.3530  1.0515  1.7255
 9839TIP3    H250933   5.041   1.983  14.738  0.5599 -1.1189 -0.6030
 9840TIP3   OH250934   4.920   4.031  13.837 -0.2363  0.1075  0.0106
 9840TIP3    H150935   5.011   4.003  13.828 -0.4713 -0.1821 -1.6524
 9840TIP3    H250936   4.887   3.982  13.912  1.0581  0.4274  0.8022
 9841TIP3   OH250937   5.944   2.025  13.415  0.5986  0.4489 -0.2507
 9841TIP3    H150938   5.868   2.067  13.375  0.8135  0.4426 -0.6667
 9841TIP3    H250939   5.906   1.964  13.479  0.2527  0.4593 -0.4426
 9842TIP3   OH250940   2.944   5.904   5.137 -0.1261 -0.0523 -0.2400
 9842TIP3    H150941   2.999   5.827   5.149  0.6030  0.7273  1.8118
 9842TIP3    H250942   3.006   5.975   5.120 -0.3938  0.8806  2.3447
 9843TIP3   OH250943   1.196   3.247   0.174 -0.0329 -0.2570  0.5794
 9843TIP3    H150944   1.242   3.183   0.120 -1.3051  0.0182 -0.8442
 9843TIP3    H250945   1.245   3.247   0.257  2.3621 -0.1799 -0.7811
 9844TIP3   OH250946   4.449   4.162   2.785 -0.2434  0.0484  0.0630
 9844TIP3    H150947   4.424   4.220   2.713  0.6372 -0.1456 -0.4071
 9844TIP3    H250948   4.395   4.084   2.772 -0.9925  0.5135  0.3460
 9845TIP3   OH250949   1.148   2.351  15.947  0.0235  0.3010  0.3467
 9845TIP3    H150950   1.223   2.294  15.930  1.0240  1.0324  2.1100
 9845TIP3    H250951   1.121   2.382  15.861  1.4784 -0.3070 -0.3472
 9846TIP3   OH250952   5.073   2.566   2.052 -0.1300 -0.6744 -0.0105
 9846TIP3    H150953   5.161   2.588   2.082 -0.4524 -1.5158  1.6644
 9846TIP3    H250954   5.031   2.650   2.033  0.2293 -0.0980  1.6224
 9847TIP3   OH250955   6.364   5.497  16.046  0.5485  0.3126  0.5432
 9847TIP3    H150956   6.275   5.480  16.079  0.6762  0.9894  1.2651
 9847TIP3    H250957   6.375   5.592  16.055  0.7809  0.4475 -1.0108
 9848TIP3   OH250958   2.160   4.387  14.418 -0.2672  0.4821  0.2523
 9848TIP3    H150959   2.159   4.359  14.327  0.4160  1.3202 -0.0239
 9848TIP3    H250960   2.170   4.482  14.414  1.4320  0.3735  1.2046
 9849TIP3   OH250961   5.653   5.034   3.410  0.0620  0.2376  0.1739
 9849TIP3    H150962   5.633   5.020   3.503  0.3562 -0.0449  0.1959
 9849TIP3    H250963   5.588   4.982   3.363  0.5256 -0.4045  0.2389
 9850TIP3   OH250964   6.045   2.941  15.275  0.1306  0.0587 -0.5968
 9850TIP3    H150965   6.071   2.909  15.361 -0.2972  1.4146  0.0558
 9850TIP3    H250966   5.967   2.890  15.253  0.2823 -0.3414 -0.2122
 9851TIP3   OH250967   1.384   4.493  13.800  0.0858 -0.1397 -0.4059
 9851TIP3    H150968   1.321   4.466  13.866  0.6022  1.0056  0.5840
 9851TIP3    H250969   1.334   4.550  13.741  0.3378  1.3400  0.7795
 9852TIP3   OH250970   4.385   4.408   1.965  0.6281 -0.3949 -0.1558
 9852TIP3    H150971   4.327   4.484   1.974 -0.3076 -0.9524 -1.3476
 9852TIP3    H250972   4.467   4.435   2.007 -0.4880  0.3966  1.5535
 9853TIP3   OH250973   2.709   4.572   3.293  0.0127 -0.3672 -0.0050
 9853TIP3    H150974   2.644   4.626   3.248 -0.3601 -0.2269  0.6993
 9853TIP3    H250975   2.794   4.610   3.269 -0.2602  0.6801  0.6871
 9854TIP3   OH250976   0.008   0.783  13.445 -0.3597  0.1038 -0.0133
 9854TIP3    H150977  -0.018   0.761  13.355  0.7704  1.1631 -0.6137
 9854TIP3    H250978   0.103   0.796  13.440 -0.1793 -0.5370  1.4833
 9855TIP3   OH250979   5.637   3.433   4.549  0.2643  0.1815 -0.0608
 9855TIP3    H150980   5.698   3.507   4.549 -0.1022  0.4928  1.6536
 9855TIP3    H250981   5.672   3.373   4.614 -0.3785 -0.3869 -0.2337
 9856TIP3   OH250982   4.056   6.528   0.797  0.6606 -0.2499  0.0133
 9856TIP3    H150983   4.103   6.463   0.850  1.2090  0.8257  0.8559
 9856TIP3    H250984   4.011   6.476   0.730  1.9793 -1.4092  0.0050
 9857TIP3   OH250985   2.740   4.512  14.743  0.6018 -0.8146 -0.1874
 9857TIP3    H150986   2.835   4.526  14.749  0.4907  0.1449 -0.5548
 9857TIP3    H250987   2.713   4.491  14.833  0.6268  2.4657  0.6429
 9858TIP3   OH250988   5.750   4.094  15.729 -0.0891  0.4684  0.3580
 9858TIP3    H150989   5.695   4.087  15.651 -0.5295  0.9118  0.6275
 9858TIP3    H250990   5.726   4.019  15.783  0.3214  0.0805 -0.0041
 9859TIP3   OH250991   4.465   2.246  14.130 -0.1423  0.1523 -0.2926
 9859TIP3    H150992   4.476   2.212  14.042 -0.9645 -2.5491  0.6002
 9859TIP3    H250993   4.554   2.256  14.164  0.1172 -0.9282 -0.6562
 9860TIP3   OH250994   2.640   1.669   3.519  0.5113 -0.2129  0.3219
 9860TIP3    H150995   2.612   1.631   3.436  2.5447 -2.1979  0.5055
 9860TIP3    H250996   2.558   1.690   3.565 -0.6348 -1.8702 -0.9153
 9861TIP3   OH250997   0.150   4.992   3.000  0.6480 -0.0293 -0.2731
 9861TIP3    H150998   0.091   4.967   2.929 -0.1967 -0.2344  0.4843
 9861TIP3    H250999   0.232   5.015   2.957  0.0606  0.1070 -1.3323
 9862TIP3   OH251000   0.614   4.693  14.856 -0.3551  0.5067  0.3018
 9862TIP3    H151001   0.667   4.633  14.803 -0.0234  1.2613 -0.2367
 9862TIP3    H251002   0.558   4.738  14.793 -1.0352  0.3266  0.7728
 9863TIP3   OH251003   1.605   1.377   2.387 -0.0115 -0.0855 -1.1414
 9863TIP3    H151004   1.526   1.430   2.399  0.3937  0.3931 -0.5088
 9863TIP3    H251005   1.614   1.330   2.470  0.9871  0.7214 -0.7801
 9864TIP3   OH251006   6.616   4.169  16.667  0.0052  0.6407 -0.2362
 9864TIP3    H151007   6.544   4.110  16.689  0.2811 -0.4225 -2.1392
 9864TIP3    H251008   6.575   4.238  16.614  0.5631 -0.5852 -2.3021
 9865TIP3   OH251009   1.613   5.728   0.611  0.4600 -0.1203  0.1044
 9865TIP3    H151010   1.671   5.737   0.535 -0.2668  4.4260 -0.0215
 9865TIP3    H251011   1.531   5.697   0.574  1.3579 -2.0588 -0.3423
 9866TIP3   OH251012   3.201   5.335   5.452 -0.4173  0.2769  0.3098
 9866TIP3    H151013   3.198   5.366   5.543  0.4684 -1.3114  0.8917
 9866TIP3    H251014   3.269   5.389   5.411 -0.8154  0.9939  0.5786
 9867TIP3   OH251015   1.689   3.012  16.991  0.1425 -0.2546 -0.0089
 9867TIP3    H151016   1.777   3.030  16.957 -0.5822  0.4964 -1.5453
 9867TIP3    H251017   1.658   3.096  17.024 -0.4100 -0.2759 -0.4667
 9868TIP3   OH251018   1.868   5.971   5.294 -0.5326 -0.1957  0.1284
 9868TIP3    H151019   1.964   5.961   5.294 -0.2900  1.8204 -0.8949
 9868TIP3    H251020   1.835   5.887   5.262  0.8119 -1.4831  2.0185
 9869TIP3   OH251021   4.399   3.552  16.332 -0.5238  0.2868 -0.0370
 9869TIP3    H151022   4.409   3.643  16.359  0.4704  0.1046  0.2298
 9869TIP3    H251023   4.305   3.541  16.318 -0.7679  1.0749  0.9139
 9870TIP3   OH251024   3.601   1.752  17.167  0.1985 -0.3569  0.1234
 9870TIP3    H151025   3.583   1.685  17.100 -0.5537 -0.8055  0.7520
 9870TIP3    H251026   3.517   1.761  17.213  0.6181  0.1981  0.7778
 9871TIP3   OH251027   4.605   6.040  15.124 -0.2592 -0.0570 -0.5318
 9871TIP3    H151028   4.638   6.021  15.036 -0.7192 -2.1062 -0.2851
 9871TIP3    H251029   4.513   6.064  15.111 -0.4502 -0.7961 -0.5830
 9872TIP3   OH251030   6.329   6.508  14.894  0.4390  0.3183 -1.2538
 9872TIP3    H151031   6.321   6.593  14.938  0.5890  0.2071 -1.0136
 9872TIP3    H251032   6.409   6.516  14.841  1.6426 -0.4003  0.3923
 9873TIP3   OH251033   6.401   2.538   0.135  0.4960  0.3780  0.0294
 9873TIP3    H151034   6.439   2.578   0.214  2.4403 -0.5730 -0.3816
 9873TIP3    H251035   6.329   2.485   0.168  1.7643 -0.6142  1.2982
 9874TIP3   OH251036   2.107   1.147   4.452 -0.1781 -0.3845 -0.1856
 9874TIP3    H151037   2.172   1.205   4.490 -0.8894 -0.8836  1.8980
 9874TIP3    H251038   2.151   1.104   4.379  0.9493  1.3033 -0.4964
 9875TIP3   OH251039   6.557   4.541   4.296  0.0346 -0.5871  0.6933
 9875TIP3    H151040   6.639   4.530   4.248 -0.0500  1.8605 -0.0751
 9875TIP3    H251041   6.518   4.453   4.298  1.1111 -1.1551 -1.7601
 9876TIP3   OH251042   1.248   2.851  14.907  0.1131 -0.7232 -0.1689
 9876TIP3    H151043   1.190   2.775  14.896 -0.3221 -0.2889 -0.8399
 9876TIP3    H251044   1.229   2.907  14.833  1.4163 -0.5861 -0.4122
 9877TIP3   OH251045   2.563   2.934  13.940 -0.1405  0.2092  0.5027
 9877TIP3    H151046   2.612   3.014  13.956  0.1189  0.1613 -0.0240
 9877TIP3    H251047   2.596   2.903  13.855 -1.8183  0.7345 -0.3599
 9878TIP3   OH251048   5.305   6.286  12.082  0.1928 -0.3529 -0.4543
 9878TIP3    H151049   5.323   6.247  11.997 -0.5188 -1.5483 -0.0776
 9878TIP3    H251050   5.221   6.331  12.071  0.8610  0.8219 -0.8030
 9879TIP3   OH251051   3.088   0.983   0.407  0.1401  0.2280  0.5375
 9879TIP3    H151052   3.110   0.891   0.420  1.4335  0.4119 -0.2935
 9879TIP3    H251053   3.169   1.023   0.377 -0.8294  1.3263 -0.6683
 9880TIP3   OH251054   2.855   5.473  14.561  0.1333 -0.3920 -0.1900
 9880TIP3    H151055   2.864   5.564  14.534 -1.8433 -0.4406 -1.0605
 9880TIP3    H251056   2.833   5.477  14.654  1.3183 -0.0487  0.0931
 9881TIP3   OH251057   4.089   6.677  16.206 -0.9103  0.5018 -0.7222
 9881TIP3    H151058   4.014   6.735  16.193  0.2219  1.6419 -2.3027
 9881TIP3    H251059   4.164   6.725  16.170  0.8505 -0.0310  2.0930
 9882TIP3   OH251060   0.545   5.224   6.220  0.2501 -0.1978 -0.0066
 9882TIP3    H151061   0.503   5.230   6.134  0.0801  0.7710  0.1434
 9882TIP3    H251062   0.582   5.136   6.221 -0.0668 -0.3578 -0.9258
 9883TIP3   OH251063   2.744   3.868   0.558 -0.4148  0.1582 -0.0242
 9883TIP3    H151064   2.766   3.905   0.472  1.7463 -0.1203  0.3805
 9883TIP3    H251065   2.700   3.786   0.537  3.4263 -1.7902 -0.9244
 9884TIP3   OH251066   1.294   6.568   5.203 -0.3304 -0.2349  0.1331
 9884TIP3    H151067   1.228   6.556   5.134 -0.9124  0.4052  0.5696
 9884TIP3    H251068   1.260   6.639   5.257  2.1162  2.0722 -1.2686
 9885TIP3   OH251069   0.740   4.504  14.668 -0.3132  0.0664 -0.0044
 9885TIP3    H151070   0.717   4.412  14.656  0.8515 -0.5351  2.0507
 9885TIP3    H251071   0.824   4.502  14.715 -0.6728  2.1705  0.7973
 9886TIP3   OH251072   2.096   3.748   4.766  0.6673 -0.5989  0.1979
 9886TIP3    H151073   2.129   3.814   4.704  1.7470 -1.1059  0.2392
 9886TIP3    H251074   2.010   3.782   4.793  1.2256  0.8062  0.2385
 9887TIP3   OH251075   2.597   1.708  13.542 -0.5517 -0.0129  0.1612
 9887TIP3    H151076   2.542   1.632  13.522  1.8150 -2.3091  2.1535
 9887TIP3    H251077   2.670   1.701  13.482 -0.0372  0.3781  0.7388
 9888TIP3   OH251078   3.463   2.342  13.227 -0.1025  0.5836  0.5779
 9888TIP3    H151079   3.424   2.280  13.289  2.1033  1.4194  2.8581
 9888TIP3    H251080   3.470   2.292  13.146 -1.4172 -1.0935  1.4453
 9889TIP3   OH251081   1.523   5.904  12.390 -0.1954 -0.7158  0.4352
 9889TIP3    H151082   1.577   5.834  12.355  1.2282  0.2489  0.6336
 9889TIP3    H251083   1.585   5.975  12.408 -1.3732  0.0251  1.7007
 9890TIP3   OH251084   6.600   5.012   2.706 -0.0248 -0.7468  0.2606
 9890TIP3    H151085   6.542   4.943   2.738 -0.1369 -0.8605 -0.1818
 9890TIP3    H251086   6.596   5.004   2.610 -2.6536  1.9980  0.0467
 9891TIP3   OH251087   0.885   5.243   1.668 -0.3827 -0.2971  0.1232
 9891TIP3    H151088   0.967   5.198   1.687 -0.6558 -0.5510  0.7357
 9891TIP3    H251089   0.907   5.306   1.599  1.0489  1.8152  2.3826
 9892TIP3   OH251090   5.637   1.697  16.342  0.7181 -0.1761 -0.0203
 9892TIP3    H151091   5.559   1.713  16.395 -0.7695  0.6710 -2.3630
 9892TIP3    H251092   5.710   1.700  16.404 -0.9389  0.9412  1.9279
 9893TIP3   OH251093   3.785   4.263   4.919  0.2145 -0.1981 -0.4917
 9893TIP3    H151094   3.760   4.244   4.828 -1.2908  1.1624 -0.3902
 9893TIP3    H251095   3.744   4.193   4.970 -2.3689  1.2777 -0.4678
 9894TIP3   OH251096   1.328   6.344   3.314 -0.6250 -0.9651  0.3866
 9894TIP3    H151097   1.285   6.289   3.380 -1.7872 -0.3453  0.1442
 9894TIP3    H251098   1.348   6.426   3.360  1.7029 -1.7975  0.9366
 9895TIP3   OH251099   0.175   1.445   3.503 -0.6256  0.1942 -0.1163
 9895TIP3    H151100   0.087   1.482   3.496 -0.0152  2.4474  2.8412
 9895TIP3    H251101   0.175   1.399   3.587  0.2201 -2.1675 -1.3644
 9896TIP3   OH251102   3.753   2.077  15.601  0.1498  0.0845 -0.1326
 9896TIP3    H151103   3.683   2.013  15.609  0.4461 -0.1479  0.6333
 9896TIP3    H251104   3.784   2.091  15.691  2.0062 -0.8518 -0.5966
 9897TIP3   OH251105   4.805   5.114   2.093 -0.2049 -0.2998 -0.0590
 9897TIP3    H151106   4.785   5.182   2.157  0.9576 -0.2158  0.2351
 9897TIP3    H251107   4.773   5.033   2.133  1.8789 -0.4864  1.3667
 9898TIP3   OH251108   2.692   6.680   4.650  0.2296 -0.5172 -0.3161
 9898TIP3    H151109   2.773   6.666   4.601  0.5485  0.3322 -0.0312
 9898TIP3    H251110   2.719   6.722   4.731 -0.4150 -0.9598  0.1296
 9899TIP3   OH251111   6.218   0.616   2.007 -0.1221  0.1795  0.3594
 9899TIP3    H151112   6.185   0.542   1.956  0.7513 -0.2606  0.4422
 9899TIP3    H251113   6.292   0.649   1.956 -0.9179  1.4259 -0.0284
 9900TIP3   OH251114   5.647   3.327  12.663  0.0308 -0.4779  0.6160
 9900TIP3    H151115   5.560   3.345  12.700 -0.9911 -2.5004 -0.7023
 9900TIP3    H251116   5.649   3.378  12.582  0.8863  1.1727  1.6632
 9901TIP3   OH251117   4.297   1.062   0.812  0.2006 -0.0447 -0.0048
 9901TIP3    H151118   4.226   1.024   0.864 -0.2079  1.2973  0.4582
 9901TIP3    H251119   4.255   1.093   0.732 -0.1530  2.5608  1.1289
 9902TIP3   OH251120   4.866   2.089   2.298 -0.0230 -0.4022  0.4349
 9902TIP3    H151121   4.952   2.092   2.256 -0.0363  1.3621  0.4762
 9902TIP3    H251122   4.805   2.067   2.227  0.1974  0.5998 -0.0798
 9903TIP3   OH251123   1.994   6.289  14.022 -0.6284  0.2466 -0.7710
 9903TIP3    H151124   2.041   6.342  14.085 -2.0841  0.4499  0.1757
 9903TIP3    H251125   2.001   6.337  13.940  1.5466 -0.1831 -0.8592
 9904TIP3   OH251126   6.667   6.712  12.533  0.5366  0.1515 -0.4690
 9904TIP3    H151127   6.699   6.786  12.585 -1.5345  0.1696  0.8209
 9904TIP3    H251128   6.660   6.640  12.595 -0.9811 -0.1145 -0.9322
 9905TIP3   OH251129   6.251   2.470   1.565  0.5133  0.5205  0.5381
 9905TIP3    H151130   6.344   2.448   1.559 -0.0452 -2.6113  2.0569
 9905TIP3    H251131   6.239   2.542   1.504  4.1355  1.7071  1.1365
 9906TIP3   OH251132   4.791   1.905   4.510  0.0332 -0.3268 -0.2783
 9906TIP3    H151133   4.881   1.875   4.510 -0.7085 -2.6674  0.8785
 9906TIP3    H251134   4.762   1.898   4.601 -1.2537  0.6026 -0.5870
 9907TIP3   OH251135   3.360   2.078   2.134 -0.2360  0.1227  0.1873
 9907TIP3    H151136   3.354   2.018   2.209 -1.2425  1.0186  0.8477
 9907TIP3    H251137   3.425   2.143   2.160 -0.8054  0.6080  0.4270
 9908TIP3   OH251138   3.811   4.553  16.188 -0.1280 -0.6688 -0.1079
 9908TIP3    H151139   3.799   4.642  16.153  0.5524 -0.6715 -0.3552
 9908TIP3    H251140   3.729   4.509  16.169 -0.5797 -0.0065  0.2653
 9909TIP3   OH251141   3.596   1.074  15.654 -0.1014  0.1037  0.4311
 9909TIP3    H151142   3.691   1.073  15.662 -0.2238 -0.9961  1.9647
 9909TIP3    H251143   3.567   1.144  15.713 -0.2527  0.3369  0.0815
 9910TIP3   OH251144   0.791   1.734  14.734  0.4015  0.4416 -0.3700
 9910TIP3    H151145   0.880   1.771  14.732  0.0639  1.2336 -0.8567
 9910TIP3    H251146   0.797   1.655  14.681  0.6469  0.8830 -1.0129
 9911TIP3   OH251147   0.250   1.629   4.679 -0.0983 -0.2392 -0.5035
 9911TIP3    H151148   0.178   1.678   4.640 -1.0428 -0.9485  0.3431
 9911TIP3    H251149   0.313   1.696   4.706 -0.2529  0.3569 -1.5844
 9912TIP3   OH251150   2.829   3.840   3.909  0.1518  0.0085  0.2559
 9912TIP3    H151151   2.775   3.831   3.988 -3.5265 -0.0716 -2.1695
 9912TIP3    H251152   2.854   3.932   3.907 -1.2825  0.4208  0.5963
 9913TIP3   OH251153   3.035   3.840   2.579 -0.2411  0.1013 -0.0489
 9913TIP3    H151154   2.978   3.902   2.625 -0.2785 -1.4540  2.0676
 9913TIP3    H251155   3.109   3.827   2.639  1.4023  0.6465 -1.9402
 9914TIP3   OH251156   3.369   0.053   5.612  0.7230  0.0032  0.4159
 9914TIP3    H151157   3.453   0.007   5.606  0.7192  0.2458 -1.7810
 9914TIP3    H251158   3.319   0.021   5.537 -0.5637  1.0562  0.8179
 9915TIP3   OH251159   1.207   3.257   1.774  0.3424  0.1308 -0.6163
 9915TIP3    H151160   1.209   3.353   1.781  1.3206  0.0728 -0.0659
 9915TIP3    H251161   1.113   3.236   1.774  0.1170  1.0828 -0.6814
 9916TIP3   OH251162   3.986   5.340   1.584  0.1632 -0.4230 -0.1490
 9916TIP3    H151163   3.941   5.262   1.551 -1.0335  0.2596 -0.1398
 9916TIP3    H251164   4.068   5.343   1.533 -0.0694 -1.3207 -0.5977
 9917TIP3   OH251165   2.918   0.845  11.908  0.6349 -0.4501  0.0631
 9917TIP3    H151166   2.942   0.763  11.865 -0.3225 -0.5333 -0.3129
 9917TIP3    H251167   2.887   0.901  11.837 -0.8866 -0.5597  0.6317
 9918TIP3   OH251168   6.533   6.409  14.716 -0.0871 -0.0171 -1.1387
 9918TIP3    H151169   6.572   6.352  14.782 -0.5035  1.4317  0.4146
 9918TIP3    H251170   6.600   6.476  14.699  0.4365 -0.9807 -3.0062
 9919TIP3   OH251171   5.357   5.454   0.814  0.1221  0.3874  0.0072
 9919TIP3    H151172   5.349   5.550   0.818  1.3222  0.5910 -2.0576
 9919TIP3    H251173   5.442   5.435   0.854  0.0298  0.2106  0.1189
 9920TIP3   OH251174   3.014   1.462   1.844  0.0418  0.4587 -0.0790
 9920TIP3    H151175   3.095   1.427   1.809  1.3323  2.3296  0.9876
 9920TIP3    H251176   3.011   1.553   1.813 -0.5491  1.0562  1.6553
 9921TIP3   OH251177   4.909   4.866  16.194 -0.0204 -0.1509  0.2412
 9921TIP3    H151178   4.949   4.789  16.232 -0.7100 -0.7660 -0.2640
 9921TIP3    H251179   4.983   4.926  16.178  0.5327 -0.7664  0.4670
 9922TIP3   OH251180   2.355   2.067   3.165 -0.0628  0.1034  0.0259
 9922TIP3    H151181   2.261   2.049   3.162 -0.2014  0.4821  1.5758
 9922TIP3    H251182   2.362   2.162   3.156 -0.0766  0.4729  3.3477
 9923TIP3   OH251183   3.437   6.767   2.983 -0.1933  0.5064 -0.1387
 9923TIP3    H151184   3.471   6.678   2.991 -1.7186 -0.0940 -0.0830
 9923TIP3    H251185   3.479   6.816   3.054  2.6448  0.5016 -1.7531
 9924TIP3   OH251186   4.337   4.859  11.733  0.0220 -0.3451 -0.3731
 9924TIP3    H151187   4.314   4.771  11.706  0.9308 -0.6076 -0.3131
 9924TIP3    H251188   4.381   4.897  11.657 -0.3832  0.0604 -0.4050
 9925TIP3   OH251189   4.460   5.615  15.495 -0.1828  0.1142  0.3878
 9925TIP3    H151190   4.510   5.571  15.563 -2.5873  1.1934  2.9567
 9925TIP3    H251191   4.482   5.707  15.504  3.3281 -0.1975 -3.6939
 9926TIP3   OH251192   5.509   5.043  15.787 -0.1151  0.0032  0.6199
 9926TIP3    H151193   5.472   5.098  15.718 -0.9868 -1.0728  0.2172
 9926TIP3    H251194   5.595   5.016  15.755 -0.3292 -0.1196  0.1577
 9927TIP3   OH251195   0.293   4.748  14.838  0.2105 -0.5635  0.1657
 9927TIP3    H151196   0.342   4.797  14.904  0.6887  0.9759 -1.2832
 9927TIP3    H251197   0.217   4.714  14.885  0.8864 -0.0590  1.6543
 9928TIP3   OH251198   3.462   6.298  14.725  0.1893 -0.3461 -0.4021
 9928TIP3    H151199   3.385   6.334  14.767  0.2609 -0.4403 -0.1925
 9928TIP3    H251200   3.430   6.222  14.676 -0.2440  0.9290 -2.1520
 9929TIP3   OH251201   1.855   2.029   4.057 -0.0168 -0.2524  0.1715
 9929TIP3    H151202   1.874   2.029   3.963 -1.3154 -1.8705 -0.1225
 9929TIP3    H251203   1.768   2.069   4.064  0.2243  0.1759  0.7129
 9930TIP3   OH251204   5.480   1.794  14.148  0.0847  0.7370  0.0086
 9930TIP3    H151205   5.426   1.721  14.116 -0.8941  1.1612  0.6886
 9930TIP3    H251206   5.499   1.845  14.069  2.8407 -1.5584 -0.9206
 9931TIP3   OH251207   0.229   2.515  16.009 -0.4293  0.1434  0.0217
 9931TIP3    H151208   0.142   2.521  16.050  0.6818  0.8118  2.3884
 9931TIP3    H251209   0.254   2.424  16.020 -0.5270  0.1153  0.0140
 9932TIP3   OH251210   5.740   3.853  13.095  0.0937 -0.0481 -0.0547
 9932TIP3    H151211   5.806   3.858  13.164 -0.0294 -0.0968  0.0651
 9932TIP3    H251212   5.766   3.777  13.043  0.0091 -0.1967  0.1183
 9933TIP3   OH251213   5.684   0.361  10.662 -0.1286  0.5071  0.2504
 9933TIP3    H151214   5.596   0.357  10.625  0.5164  0.4518 -1.3128
 9933TIP3    H251215   5.734   0.414  10.600  1.2543 -0.4810  0.5048
 9934TIP3   OH251216   0.769   5.544  14.438 -0.3819  0.4823  0.1674
 9934TIP3    H151217   0.750   5.463  14.391 -1.5280 -0.3060  1.9270
 9934TIP3    H251218   0.685   5.589  14.445 -0.1039  0.9072  0.8650
 9935TIP3   OH251219   4.020   6.052   6.635 -0.4771  0.3001 -0.1678
 9935TIP3    H151220   3.959   5.979   6.631 -0.1455  0.1301 -3.2038
 9935TIP3    H251221   4.010   6.097   6.551  1.1988  2.2191  0.5975
 9936TIP3   OH251222   2.297   4.222   1.511 -0.3346  0.4109  0.2062
 9936TIP3    H151223   2.220   4.272   1.538 -0.7359  0.6095 -1.2817
 9936TIP3    H251224   2.287   4.212   1.417  1.1528 -0.0991  0.0959
 9937TIP3   OH251225   5.366   5.824   1.709 -0.9781 -0.1769 -0.5389
 9937TIP3    H151226   5.362   5.850   1.617 -3.1726  0.6624 -0.2434
 9937TIP3    H251227   5.367   5.906   1.757  1.7179 -0.5842  0.1849
 9938TIP3   OH251228   2.067   2.856  17.066  0.3473  0.5514  0.1219
 9938TIP3    H151229   2.059   2.929  17.004  0.3465  0.6328  0.2200
 9938TIP3    H251230   1.987   2.861  17.119 -1.3157 -1.5191 -2.0581
 9939TIP3   OH251231   4.368   5.910  11.947 -0.2115  0.0031  0.2400
 9939TIP3    H151232   4.407   5.824  11.964 -0.3621 -0.3326 -1.0497
 9939TIP3    H251233   4.439   5.972  11.962  0.4770 -0.5069 -0.8418
 9940TIP3   OH251234   3.166   1.236  13.833  0.3849 -0.1660  0.5077
 9940TIP3    H151235   3.171   1.161  13.893  0.3417 -0.4703  0.1314
 9940TIP3    H251236   3.257   1.263  13.821  0.4277 -0.3590  0.3932
 9941TIP3   OH251237   1.120   2.949   5.750 -0.5304  0.2923 -0.6708
 9941TIP3    H151238   1.100   2.882   5.686  0.2313 -0.6528  0.0757
 9941TIP3    H251239   1.067   2.927   5.826  1.5617 -0.9059  0.4819
 9942TIP3   OH251240   3.175   0.199  15.162 -0.2734  0.0512 -0.4685
 9942TIP3    H151241   3.125   0.214  15.082 -1.3337  0.6058  0.2764
 9942TIP3    H251242   3.165   0.280  15.212  0.7826 -0.1104  0.0157
 9943TIP3   OH251243   3.324   6.599  12.967 -0.4236  0.0464  0.1916
 9943TIP3    H151244   3.391   6.534  12.989  0.4639  0.8827 -0.0117
 9943TIP3    H251245   3.300   6.637  13.051 -1.3542 -0.9233  0.3784
 9944TIP3   OH251246   6.498   6.284  13.861  0.5750 -0.1830 -0.4605
 9944TIP3    H151247   6.560   6.284  13.933  2.5665  0.4311 -2.1249
 9944TIP3    H251248   6.552   6.290  13.782 -1.5680 -0.1333 -1.9880
 9945TIP3   OH251249   0.414   0.305  15.781 -0.0013  0.0452 -0.6316
 9945TIP3    H151250   0.448   0.336  15.865  0.1482 -2.1172  0.1609
 9945TIP3    H251251   0.341   0.364  15.761  0.3707  0.9796  0.6942
 9946TIP3   OH251252   5.236   4.034   2.134 -0.7854 -0.2810  0.3784
 9946TIP3    H151253   5.146   4.036   2.165 -2.4032 -0.8247 -3.9464
 9946TIP3    H251254   5.250   3.944   2.105  0.8105  0.0559  0.0277
 9947TIP3   OH251255   0.759   1.874  15.432  0.2681 -0.0768  0.3888
 9947TIP3    H151256   0.768   1.780  15.418  1.5913  0.3552 -1.9207
 9947TIP3    H251257   0.697   1.882  15.504  0.2693 -2.7144  0.7201
 9948TIP3   OH251258   0.996   2.384  11.781  0.1385 -0.2392 -0.2103
 9948TIP3    H151259   0.975   2.344  11.865  2.6500 -1.5057 -0.1571
 9948TIP3    H251260   0.998   2.311  11.719 -0.7947  0.5638 -1.2119
 9949TIP3   OH251261   2.630   1.823  12.741 -0.1339 -0.4323  0.1240
 9949TIP3    H151262   2.547   1.851  12.782  1.4155 -0.7295  3.6664
 9949TIP3    H251263   2.606   1.747  12.689 -2.6744  1.5316 -1.6995
 9950TIP3   OH251264   1.691   3.685  16.092 -0.1103  0.4096 -0.2726
 9950TIP3    H151265   1.627   3.661  16.159  0.1290 -0.5259 -0.3715
 9950TIP3    H251266   1.775   3.687  16.140 -0.1102  0.9123 -0.2939
 9951TIP3   OH251267   2.264   3.816   5.442  0.4387  0.1288  0.1626
 9951TIP3    H151268   2.294   3.749   5.380 -0.1308 -0.7609  0.8359
 9951TIP3    H251269   2.194   3.862   5.396 -1.7706 -2.2161  1.0380
 9952TIP3   OH251270   3.994   4.948   2.882  0.7675 -0.1889  0.2737
 9952TIP3    H151271   4.035   4.921   2.800  1.1026  1.2682 -0.0455
 9952TIP3    H251272   4.066   4.980   2.936  0.3295  0.3893  0.5174
 9953TIP3   OH251273   2.016   6.148  15.731  0.2333 -0.1687  0.0659
 9953TIP3    H151274   2.096   6.189  15.764 -0.1368 -0.0531  0.8051
 9953TIP3    H251275   2.042   6.057  15.715  0.1403 -0.4785  1.6301
 9954TIP3   OH251276   1.096   5.906   1.685  0.0435 -0.1761  0.1280
 9954TIP3    H151277   1.107   5.815   1.656 -1.8360 -0.5528  0.5799
 9954TIP3    H251278   1.069   5.953   1.606 -2.4213 -0.6976  0.6097
 9955TIP3   OH251279   3.145   6.274  17.076 -0.0239  0.2940  0.2895
 9955TIP3    H151280   3.067   6.330  17.085 -1.2652 -1.2717 -0.5598
 9955TIP3    H251281   3.214   6.334  17.049 -1.2717  1.4616 -0.3780
 9956TIP3   OH251282   5.788   2.075  16.242  0.1495  0.2665  0.3003
 9956TIP3    H151283   5.840   2.138  16.192 -0.4863  1.9781  1.7330
 9956TIP3    H251284   5.845   1.999  16.253  2.2874  2.0117  1.6440
 9957TIP3   OH251285   1.852   4.870   2.973 -0.2721  0.2417 -0.3136
 9957TIP3    H151286   1.873   4.817   3.050 -1.1354 -0.5647 -0.6202
 9957TIP3    H251287   1.810   4.948   3.009 -0.2895  0.0628  0.0650
 9958TIP3   OH251288   2.333   3.884  16.366 -0.6340 -0.1291  0.2362
 9958TIP3    H151289   2.276   3.903  16.441 -0.3548  0.8188  0.2129
 9958TIP3    H251290   2.357   3.970  16.332  1.2929 -0.5054  0.6002
 9959TIP3   OH251291   0.362   5.767  10.956 -0.0862  0.0565 -0.0531
 9959TIP3    H151292   0.291   5.806  10.906 -0.6779  0.0445  0.7601
 9959TIP3    H251293   0.362   5.675  10.930  0.3042  0.2763 -0.8238
 9960TIP3   OH251294   0.973   3.329   1.240  0.7915 -0.5559 -0.3106
 9960TIP3    H151295   0.898   3.379   1.207 -0.3031 -1.5626  0.5963
 9960TIP3    H251296   0.972   3.249   1.188  3.1316  0.7327 -2.4493
 9961TIP3   OH251297   5.186   3.159  11.904 -0.1060  0.3352 -0.2807
 9961TIP3    H151298   5.163   3.174  11.995 -0.6418  0.9851 -0.5231
 9961TIP3    H251299   5.152   3.235  11.857  1.7007  0.8500 -0.7828
 9962TIP3   OH251300   5.537   2.054  16.476  0.7321 -0.0734 -0.3506
 9962TIP3    H151301   5.522   1.966  16.511 -0.0506 -0.1290 -0.8264
 9962TIP3    H251302   5.609   2.042  16.414  0.0242 -0.5517 -1.0913
 9963TIP3   OH251303   6.658   2.969  15.864 -0.4868  0.1740 -0.4833
 9963TIP3    H151304   6.564   2.954  15.865 -0.7617  1.7931 -0.7254
 9963TIP3    H251305   6.674   3.032  15.934  0.7020 -1.5980  0.8682
 9964TIP3   OH251306   4.999   4.139   2.228  0.6379 -0.4385 -0.2443
 9964TIP3    H151307   5.038   4.194   2.296  0.0166  0.2987 -0.4848
 9964TIP3    H251308   4.908   4.167   2.223  0.5092 -0.9555 -0.9175
 9965TIP3   OH251309   0.423   3.945  11.167 -0.5579 -0.0665 -0.0826
 9965TIP3    H151310   0.418   4.036  11.195  0.1869 -0.4997  1.5364
 9965TIP3    H251311   0.442   3.949  11.074  0.4324  1.4336  0.1720
 9966TIP3   OH251312   3.336   2.115   5.864 -0.2463 -0.7421  0.1736
 9966TIP3    H151313   3.249   2.112   5.904 -0.4492 -0.2525 -0.2196
 9966TIP3    H251314   3.364   2.206   5.874  0.9414 -1.2656  1.7927
 9967TIP3   OH251315   3.655   0.267  11.713  0.1587  0.1584 -0.6592
 9967TIP3    H151316   3.648   0.344  11.771  0.5908  1.6467 -2.5459
 9967TIP3    H251317   3.749   0.260  11.695  0.1778 -1.1361 -0.0911
 9968TIP3   OH251318   0.133   4.877   2.134  0.0543 -0.4163 -0.0163
 9968TIP3    H151319   0.172   4.801   2.179 -0.6205 -0.5016  0.4249
 9968TIP3    H251320   0.168   4.873   2.045 -0.2587 -1.4462 -0.0929
 9969TIP3   OH251321   3.187   1.690  12.279 -0.1914  0.4318 -0.1999
 9969TIP3    H151322   3.134   1.704  12.358  0.1093  0.5867 -0.0265
 9969TIP3    H251323   3.139   1.736  12.210 -0.8335 -0.3064 -0.2592
 9970TIP3   OH251324   4.887   3.870  16.182 -0.3337  0.0047  0.4307
 9970TIP3    H151325   4.965   3.878  16.237  0.4311 -2.3592 -0.2364
 9970TIP3    H251326   4.884   3.777  16.159 -2.3329  0.4096 -1.0492
 9971TIP3   OH251327   5.116   2.165   2.939  0.2713 -0.5873 -0.3847
 9971TIP3    H151328   5.177   2.091   2.943  2.1646  1.0022  1.2237
 9971TIP3    H251329   5.088   2.177   3.030 -0.4262  0.3621 -0.7199
 9972TIP3   OH251330   5.334   0.910   5.783  0.1933 -0.0055 -0.0175
 9972TIP3    H151331   5.346   0.966   5.706 -1.4534 -0.6577 -0.7586
 9972TIP3    H251332   5.419   0.868   5.795  0.7624  0.8776 -0.8600
 9973TIP3   OH251333   0.088   5.055  15.035 -0.2294  0.4171 -0.1089
 9973TIP3    H151334   0.129   4.971  15.057  0.7166  0.5984 -1.1015
 9973TIP3    H251335   0.000   5.050  15.073  0.0586 -0.7441  0.4299
 9974TIP3   OH251336   4.374   3.475  16.701  0.0403 -0.0592 -0.6351
 9974TIP3    H151337   4.414   3.556  16.671 -0.1969  1.3691  2.6721
 9974TIP3    H251338   4.435   3.440  16.765 -1.0642 -1.1587 -0.1686
 9975TIP3   OH251339   5.998   4.994   2.929 -0.3879  0.0628  0.5027
 9975TIP3    H151340   6.058   5.056   2.888 -0.8132 -0.4113 -0.8676
 9975TIP3    H251341   5.919   4.997   2.875 -1.1687 -0.1808  1.6108
 9976TIP3   OH251342   3.788   4.948   2.206 -0.0535  0.4523  0.6707
 9976TIP3    H151343   3.795   4.874   2.146 -2.1591  0.5725  0.2511
 9976TIP3    H251344   3.878   4.962   2.237  0.7649 -0.7249 -1.0897
 9977TIP3   OH251345   5.991   3.386  16.021 -0.7887  0.4875  0.4603
 9977TIP3    H151346   5.992   3.344  15.935  0.2229  0.6674  0.3881
 9977TIP3    H251347   5.924   3.454  16.013 -2.7475 -1.3364  0.6900
 9978TIP3   OH251348   4.818   1.413   3.664  0.4444  0.2722 -0.6931
 9978TIP3    H151349   4.763   1.486   3.694  1.1101  2.1589 -3.8167
 9978TIP3    H251350   4.866   1.386   3.743 -3.2399  0.0353  1.5835
 9979TIP3   OH251351   3.891   4.781  14.255 -0.6572  0.3192  0.5879
 9979TIP3    H151352   3.937   4.711  14.209 -1.4574 -1.6937  2.7780
 9979TIP3    H251353   3.956   4.818  14.314 -0.7726  0.0832  0.8646
 9980TIP3   OH251354   5.894   4.527   3.403 -0.4214 -0.0653 -0.4912
 9980TIP3    H151355   5.854   4.465   3.342 -0.8353  0.1210 -0.4065
 9980TIP3    H251356   5.938   4.591   3.347  0.4369 -0.7152 -0.5747
 9981TIP3   OH251357   4.498   2.406  10.527 -0.0220  0.2253  0.4495
 9981TIP3    H151358   4.592   2.386  10.526 -0.2287 -1.0984  2.8415
 9981TIP3    H251359   4.493   2.500  10.543  0.8755  0.3185  0.2305
 9982TIP3   OH251360   3.861   3.558  15.712 -0.2273  0.0747  0.2421
 9982TIP3    H151361   3.882   3.614  15.786  1.3488 -0.3313  0.1186
 9982TIP3    H251362   3.765   3.555  15.711 -0.2790 -0.5719  2.7672
 9983TIP3   OH251363   3.266   1.993   1.196  0.0550 -0.2757 -0.8284
 9983TIP3    H151364   3.327   1.979   1.123  1.3689  0.7919  0.0464
 9983TIP3    H251365   3.309   2.057   1.252 -1.0478 -0.8846  0.7712
 9984TIP3   OH251366   4.875   1.663  12.735 -0.2016  0.7508 -0.3410
 9984TIP3    H151367   4.953   1.645  12.786 -0.1468  0.1756 -0.6204
 9984TIP3    H251368   4.900   1.645  12.644 -0.6782  0.4797 -0.4233
 9985TIP3   OH251369   3.650   2.707  14.526  0.4673 -0.0607 -0.5681
 9985TIP3    H151370   3.676   2.762  14.452  0.1501 -0.1727 -0.7656
 9985TIP3    H251371   3.691   2.748  14.602 -0.2876  0.8205 -0.6215
 9986TIP3   OH251372   2.081   1.025  11.391 -0.3910  0.2517 -0.8360
 9986TIP3    H151373   2.072   1.037  11.485 -1.3119 -0.0011 -0.8843
 9986TIP3    H251374   2.039   0.941  11.373 -1.6773  1.0581 -1.6898
 9987TIP3   OH251375   3.855   6.739   2.207  0.5167  0.5887 -0.2524
 9987TIP3    H151376   3.811   6.657   2.182 -1.0242  1.0098  0.9537
 9987TIP3    H251377   3.829   6.802   2.140 -0.0176  0.6082 -0.0319
 9988TIP3   OH251378   4.037   2.336  16.624 -0.1767  0.0659 -0.2452
 9988TIP3    H151379   4.107   2.400  16.641 -0.2228 -0.0895  0.5767
 9988TIP3    H251380   3.958   2.377  16.658 -0.5398  0.3441 -1.4025
 9989TIP3   OH251381   6.147   5.915  16.110 -0.6892 -0.0065 -0.2160
 9989TIP3    H151382   6.069   5.860  16.096 -0.1298 -0.3866 -1.9962
 9989TIP3    H251383   6.139   5.984  16.044  0.5608 -0.1528 -0.5327
 9990TIP3   OH251384   1.738   4.978  16.062  0.3324  0.0920 -0.4816
 9990TIP3    H151385   1.686   4.904  16.093  0.4390  0.6263  1.0332
 9990TIP3    H251386   1.823   4.941  16.041  0.0618 -0.3943 -0.7222
 9991TIP3   OH251387   2.073   6.736  15.684  0.5197 -0.6596 -0.1785
 9991TIP3    H151388   2.094   6.745  15.591 -1.3615  0.8134 -0.5207
 9991TIP3    H251389   2.008   6.665  15.688  0.3795 -0.5270 -0.0444
 9992TIP3   OH251390   5.104   4.616  13.487  0.4190 -0.6766 -0.2339
 9992TIP3    H151391   5.130   4.537  13.533  0.9232 -0.5106 -0.2242
 9992TIP3    H251392   5.132   4.688  13.544  0.3765 -0.4831 -0.4520
 9993TIP3   OH251393   1.262   4.093   2.861  0.0907 -0.0133  0.1931
 9993TIP3    H151394   1.223   4.071   2.777 -2.4112 -0.7930  1.4978
 9993TIP3    H251395   1.246   4.187   2.872 -1.5396 -0.3460  0.7542
 9994TIP3   OH251396   3.964   0.255  14.730 -0.0909  0.1200 -0.0764
 9994TIP3    H151397   4.049   0.257  14.773 -0.6842  0.9522  1.0765
 9994TIP3    H251398   3.909   0.313  14.782 -0.8037  1.2252 -2.0082
 9995TIP3   OH251399   0.675   2.557   2.140  0.7463  0.3508  0.0736
 9995TIP3    H151400   0.759   2.517   2.163  1.0027  0.3001 -0.9184
 9995TIP3    H251401   0.613   2.522   2.203  1.3803 -0.0057  0.4968
 9996TIP3   OH251402   0.308   2.814   5.041 -0.2235 -0.5588  0.0265
 9996TIP3    H151403   0.305   2.893   5.095 -0.4368 -0.3573 -0.2815
 9996TIP3    H251404   0.401   2.792   5.035 -0.2191 -0.7153  0.6733
 9997TIP3   OH251405   1.672   3.826   5.298  0.4169 -0.4158 -0.0126
 9997TIP3    H151406   1.735   3.756   5.316  1.9381  0.4110 -1.8355
 9997TIP3    H251407   1.718   3.883   5.236 -1.1363  1.6845  0.7212
 9998TIP3   OH251408   5.073   6.571   0.875  0.1188 -1.0519  0.7483
 9998TIP3    H151409   5.066   6.494   0.931 -0.2857 -0.8540  0.9722
 9998TIP3    H251410   5.135   6.545   0.806  0.2813 -1.4427  1.0390
 9999TIP3   OH251411   0.930   3.084  14.018 -0.7749 -0.1001  0.0237
 9999TIP3    H151412   0.889   3.068  14.103  1.1397 -0.7613  0.8596
 9999TIP3    H251413   0.882   3.158  13.982 -3.7258 -1.8336  0.2267
10000TIP3   OH251414   1.037   5.567   4.128  0.5847 -0.3190 -0.0401
10000TIP3    H151415   0.970   5.529   4.071  0.3689  0.7696 -0.5279
10000TIP3    H251416   1.119   5.550   4.083  0.4688  0.0069 -0.3713
10001TIP3   OH251417   4.316   4.555   3.558 -0.1400 -0.4789  0.6285
10001TIP3    H151418   4.252   4.626   3.559 -1.7909 -1.9458  1.9159
10001TIP3    H251419   4.375   4.575   3.630 -0.2851 -0.1247  0.6508
10002TIP3   OH251420   5.598   0.212  16.395  0.2000  0.4603  0.4769
10002TIP3    H151421   5.590   0.190  16.488 -0.4475 -0.2225  0.2707
10002TIP3    H251422   5.554   0.140  16.350  0.1087  1.0191 -0.3384
10003TIP3   OH251423   2.236   2.041  13.042  0.5687 -0.0159 -0.1596
10003TIP3    H151424   2.190   2.068  12.963 -0.1364 -0.6419  0.0312
10003TIP3    H251425   2.255   2.123  13.089 -0.7076  0.2179 -0.0426
10004TIP3   OH251426   5.411   1.981  15.363  0.1641  0.2418  0.1287
10004TIP3    H151427   5.332   1.951  15.408  0.3032  2.8289  2.1943
10004TIP3    H251428   5.473   2.002  15.433  1.3386  1.8482 -1.3384
10005TIP3   OH251429   6.324   4.631   3.834 -0.8421 -0.1676  0.2915
10005TIP3    H151430   6.328   4.625   3.930 -1.7050  1.2533  0.4340
10005TIP3    H251431   6.284   4.716   3.817  1.1320  0.4676 -1.3722
10006TIP3   OH251432   0.014   3.466  15.390  0.4663  0.1953  0.5147
10006TIP3    H151433   0.106   3.475  15.414  0.2402  0.6726  1.2136
10006TIP3    H251434   0.010   3.496  15.299  1.0261  0.0194  0.4299
10007TIP3   OH251435   2.544   6.741  16.551  1.4972 -0.8023 -0.0175
10007TIP3    H151436   2.590   6.806  16.498  0.9108 -0.4056 -0.0389
10007TIP3    H251437   2.500   6.792  16.619 -0.0406 -1.0360 -0.8095
10008TIP3   OH251438   2.323   1.793  15.060  1.0084  0.0046  0.2148
10008TIP3    H151439   2.312   1.808  15.154  2.8331 -1.7834  0.7368
10008TIP3    H251440   2.308   1.879  15.021  1.1076  0.9702  2.2143
10009TIP3   OH251441   2.614   2.852   4.486 -0.6163  0.7884  0.0202
10009TIP3    H151442   2.613   2.766   4.446 -1.4554  1.3330 -1.1666
10009TIP3    H251443   2.700   2.858   4.528 -0.1051 -0.1804 -0.8549
10010TIP3   OH251444   5.818   2.522   1.067  0.0086  0.1756 -0.8307
10010TIP3    H151445   5.888   2.474   1.023  0.2379  0.6999 -1.0324
10010TIP3    H251446   5.777   2.457   1.124 -0.3234 -0.5388 -1.8508
10011TIP3   OH251447   4.118   3.735   2.134  0.0722 -0.1863  0.0437
10011TIP3    H151448   4.085   3.684   2.059 -1.3421  1.7277 -0.6887
10011TIP3    H251449   4.159   3.812   2.094  0.3036  0.2902  1.1942
10012TIP3   OH251450   3.607   0.527  12.391 -0.3958 -0.0296 -0.8075
10012TIP3    H151451   3.649   0.535  12.305 -0.3590  1.0048 -0.6996
10012TIP3    H251452   3.672   0.482  12.445  0.5026  1.3278 -0.7170
10013TIP3   OH251453   2.969   6.264  15.220  0.2327  0.2031 -0.4600
10013TIP3    H151454   2.952   6.215  15.301 -0.8067  0.7926 -0.3082
10013TIP3    H251455   3.061   6.247  15.200  0.4068 -0.2163  0.6625
10014TIP3   OH251456   0.171   1.993  17.181 -0.0808 -0.2436  0.6413
10014TIP3    H151457   0.085   2.030  17.202 -0.6826 -0.8724 -0.6423
10014TIP3    H251458   0.232   2.065  17.192 -0.7759  0.2233  1.5252
10015TIP3   OH251459   4.892   4.639  13.759  0.3540  0.5579  0.7747
10015TIP3    H151460   4.865   4.722  13.799  0.9231 -0.0244  2.4337
10015TIP3    H251461   4.828   4.576  13.792  1.2338 -0.0551  1.3262
10016TIP3   OH251462   5.752   2.059  11.849 -0.1396  0.3906  0.0941
10016TIP3    H151463   5.834   2.070  11.897 -0.8267 -0.2660  1.4549
10016TIP3    H251464   5.709   2.144  11.854  1.4426  1.4017 -2.5546
10017TIP3   OH251465   6.024   3.604  14.904 -0.0668  0.1029 -0.4704
10017TIP3    H151466   5.953   3.542  14.917  0.3052 -0.2709 -0.2347
10017TIP3    H251467   6.073   3.603  14.986  0.6227 -0.1625 -0.8820
10018TIP3   OH251468   4.726   4.834   1.825 -0.1241  0.0042  0.4301
10018TIP3    H151469   4.804   4.887   1.813 -0.9784  1.3319  0.5792
10018TIP3    H251470   4.740   4.790   1.909 -0.5137  2.0281  1.6012
10019TIP3   OH251471   3.081   3.137   2.970  0.1602  0.2645 -0.2301
10019TIP3    H151472   3.154   3.087   2.934 -1.1352 -0.6766 -1.6029
10019TIP3    H251473   3.003   3.089   2.943 -0.9887  1.3130  1.1158
10020TIP3   OH251474   1.980   3.308  15.469  0.1535 -0.0673  0.0174
10020TIP3    H151475   1.919   3.368  15.425  3.5820  1.8214 -2.3578
10020TIP3    H251476   2.051   3.365  15.500  0.5740 -2.1505  3.1524
10021TIP3   OH251477   1.346   2.033  14.687  0.0587 -0.2768  0.3614
10021TIP3    H151478   1.290   2.072  14.753 -0.0809 -0.8526  0.5895
10021TIP3    H251479   1.330   1.939  14.695 -0.3176 -0.3181 -0.8156
10022TIP3   OH251480   3.782   1.238  13.157  0.2658 -0.4405  0.4998
10022TIP3    H151481   3.784   1.326  13.195  1.6068 -0.5237  0.6658
10022TIP3    H251482   3.698   1.202  13.184 -0.0407  0.5828  0.9314
10023TIP3   OH251483   1.685   6.467   5.451  0.4256  0.3086  0.0845
10023TIP3    H151484   1.729   6.386   5.423 -0.4902  0.9748 -3.4895
10023TIP3    H251485   1.743   6.503   5.518  2.0372 -2.1023  0.0586
10024TIP3   OH251486   0.395   3.601   1.225  0.6656 -0.3142  0.2933
10024TIP3    H151487   0.311   3.555   1.228 -0.7877  2.1442 -1.0302
10024TIP3    H251488   0.387   3.669   1.292  1.7473 -0.3034  0.4194
10025TIP3   OH251489   3.597   6.413   4.811 -0.3742  0.0836 -0.2847
10025TIP3    H151490   3.670   6.461   4.850  1.2526 -0.6260 -2.3859
10025TIP3    H251491   3.538   6.481   4.778 -0.0409  0.6389  0.2548
10026TIP3   OH251492   2.862   2.129  15.380  0.4720 -0.0066 -0.4265
10026TIP3    H151493   2.951   2.097  15.395  0.9597  1.4702 -0.1924
10026TIP3    H251494   2.860   2.150  15.287 -0.1433 -1.5744 -0.7927
10027TIP3   OH251495   1.076   1.741  12.207 -0.6706 -0.0360  0.3437
10027TIP3    H151496   1.156   1.694  12.182 -1.2362 -1.0138  0.3243
10027TIP3    H251497   1.103   1.799  12.278  0.2843  0.4271 -0.4047
10028TIP3   OH251498   3.447   4.075   0.834 -0.1140 -0.2228  0.3223
10028TIP3    H151499   3.420   4.167   0.839  1.3719  0.2963 -0.8868
10028TIP3    H251500   3.440   4.043   0.924 -0.9282  0.9958  0.6973
10029TIP3   OH251501   2.871   2.686   5.720  0.1280  0.1525  0.0130
10029TIP3    H151502   2.885   2.628   5.645  1.7045  1.0967 -0.4356
10029TIP3    H251503   2.874   2.629   5.796 -0.3346 -0.6443 -0.5639
10030TIP3   OH251504   4.190   1.609  13.559 -0.0233  0.1350 -0.4739
10030TIP3    H151505   4.191   1.701  13.586 -0.7725  0.1478 -0.4713
10030TIP3    H251506   4.161   1.562  13.637  0.4300 -0.1143 -0.4542
10031TIP3   OH251507   5.245   6.404  11.598 -0.5945 -0.1209 -0.0961
10031TIP3    H151508   5.279   6.321  11.631  1.0571 -0.5429 -2.7139
10031TIP3    H251509   5.157   6.410  11.634  0.6506 -1.0989  3.3456
10032TIP3   OH251510   4.330   5.814   6.598 -0.4642  0.1183  0.4575
10032TIP3    H151511   4.244   5.780   6.571 -0.4554 -0.1358  0.7431
10032TIP3    H251512   4.362   5.862   6.522 -0.9906  0.4626  0.4478
10033TIP3   OH251513   6.717   4.996   5.001 -0.4603  0.2048 -0.3053
10033TIP3    H151514   6.626   5.021   4.984 -0.1813  1.8878  0.6102
10033TIP3    H251515   6.746   5.054   5.071  1.3062 -0.3524 -0.5370
10034TIP3   OH251516   1.804   3.116  16.535  0.5145 -0.0413  0.0709
10034TIP3    H151517   1.738   3.139  16.600  0.0679  0.5475 -0.5840
10034TIP3    H251518   1.755   3.103  16.454  0.8206 -2.8116  0.2760
10035TIP3   OH251519   6.738   1.823  15.670 -0.3487  0.2662 -0.2679
10035TIP3    H151520   6.824   1.781  15.679 -0.3478  0.1609 -0.7437
10035TIP3    H251521   6.743   1.869  15.586  0.0430  2.1403  0.7672
10036TIP3   OH251522   6.263   1.653   0.192 -0.1511 -0.1707  0.1504
10036TIP3    H151523   6.211   1.694   0.123 -0.5064  0.3253  0.7055
10036TIP3    H251524   6.344   1.704   0.195  0.4014 -0.9813 -0.7556
10037TIP3   OH251525   1.869   0.007  12.381  0.8737  0.2543  0.6847
10037TIP3    H151526   1.875   0.094  12.341 -0.3397 -0.2526 -0.6324
10037TIP3    H251527   1.948  -0.000  12.435  2.3829  1.0884 -1.3826
10038TIP3   OH251528   2.323   3.430   0.878  0.5062 -0.9536 -0.2465
10038TIP3    H151529   2.228   3.441   0.880  0.6311  0.2941 -0.5059
10038TIP3    H251530   2.357   3.516   0.904  1.5669 -1.1026 -1.1208
10039TIP3   OH251531   4.709   4.806   4.384 -0.6856 -0.2457  0.5166
10039TIP3    H151532   4.618   4.825   4.407 -0.7644 -0.2857  0.2420
10039TIP3    H251533   4.736   4.738   4.445 -1.5036 -1.7620 -0.7644
10040TIP3   OH251534   1.235   6.754  13.320  0.2909 -0.5447  0.2956
10040TIP3    H151535   1.254   6.843  13.291  1.9812 -1.0507 -0.2384
10040TIP3    H251536   1.143   6.755  13.345 -0.4173  0.6777 -2.2670
10041TIP3   OH251537   6.576   6.697  16.654 -0.0659 -0.7654  0.2100
10041TIP3    H151538   6.502   6.719  16.711  0.5125  0.9645  0.3133
10041TIP3    H251539   6.628   6.778  16.650  1.6652 -1.8721 -0.0896
10042TIP3   OH251540   1.529   2.836   5.602 -0.2942  0.1994 -0.0073
10042TIP3    H151541   1.585   2.850   5.526  1.1275 -1.2437  0.7472
10042TIP3    H251542   1.488   2.751   5.587 -1.1929  0.6002  0.1195
10043TIP3   OH251543   0.721   2.504  15.204 -0.4276  0.6815  0.3371
10043TIP3    H151544   0.691   2.571  15.143  1.9417  0.5501 -1.0389
10043TIP3    H251545   0.684   2.530  15.288 -2.0206  2.0221 -0.7573
10044TIP3   OH251546   6.451   2.314   2.718  0.1391  0.5492  0.6385
10044TIP3    H151547   6.513   2.375   2.758  1.8596  0.1750 -1.3981
10044TIP3    H251548   6.365   2.349   2.743  1.1186  0.2539  4.6779
10045TIP3   OH251549   3.353   5.604  15.106  0.3743 -0.0216  0.5753
10045TIP3    H151550   3.263   5.576  15.091  0.5905 -0.2328 -0.2970
10045TIP3    H251551   3.402   5.570  15.032  0.6725  2.5084 -0.4504
10046TIP3   OH251552   2.302   5.497   3.908  0.4470  0.2887 -0.4398
10046TIP3    H151553   2.234   5.555   3.873  0.2639  0.0359 -0.5033
10046TIP3    H251554   2.261   5.454   3.983  0.7949  0.7258  0.0072
10047TIP3   OH251555   1.989   5.518   5.285 -0.2426 -0.2090  0.6525
10047TIP3    H151556   1.962   5.444   5.230 -1.5115 -0.0475  1.0448
10047TIP3    H251557   1.959   5.495   5.373 -0.8043  0.8454  0.7448
10048TIP3   OH251558   2.650   4.016   1.661 -0.1461  0.3475 -0.1476
10048TIP3    H151559   2.685   4.104   1.676 -2.4603  1.4459 -1.0413
10048TIP3    H251560   2.697   3.985   1.584  0.0998  1.1201 -0.3133
10049TIP3   OH251561   4.842   3.852   2.815  0.0872 -0.1279 -0.3470
10049TIP3    H151562   4.801   3.938   2.827 -1.8535 -1.0683 -0.0134
10049TIP3    H251563   4.878   3.830   2.901  2.7416  1.3789 -1.0056
10050TIP3   OH251564   0.781   1.729  14.082  0.0855  0.0972  0.6424
10050TIP3    H151565   0.774   1.709  13.989  0.3121  1.2908  0.3521
10050TIP3    H251566   0.764   1.646  14.127 -0.7040 -0.3257 -0.4422
10051TIP3   OH251567   0.848   0.031   1.915 -0.1102 -0.4360  0.0929
10051TIP3    H151568   0.904  -0.043   1.938  0.2358 -0.2839 -0.2703
10051TIP3    H251569   0.896   0.079   1.848 -0.0969  0.4044  0.6804
10052TIP3   OH251570   1.633   1.755   3.381  0.0489 -0.6307 -0.1649
10052TIP3    H151571   1.579   1.727   3.455 -0.6322 -0.1142 -0.4612
10052TIP3    H251572   1.701   1.808   3.420  0.3919 -1.3525  0.2229
10053TIP3   OH251573   4.345   5.962  15.323  0.2803  0.7811  0.4888
10053TIP3    H151574   4.341   5.975  15.228 -0.7751 -1.0331  0.2648
10053TIP3    H251575   4.255   5.970  15.353  0.6964  2.1202  1.4855
10054TIP3   OH251576   0.807   6.411  14.672 -0.5035 -0.4141  0.5296
10054TIP3    H151577   0.896   6.412  14.636 -1.1400  0.6526 -1.0712
10054TIP3    H251578   0.818   6.387  14.763  1.4495 -0.2060  0.3644
10055TIP3   OH251579   6.118   0.047  14.885  0.2553 -0.2959  0.2788
10055TIP3    H151580   6.115   0.131  14.931 -2.6270  0.3722 -0.9634
10055TIP3    H251581   6.072  -0.014  14.943 -0.5048 -0.2249 -0.2387
10056TIP3   OH251582   1.448   5.442   2.161  0.4905  0.1781 -0.0713
10056TIP3    H151583   1.473   5.501   2.232 -0.5314  0.0640  0.3998
10056TIP3    H251584   1.434   5.499   2.086 -0.3045  0.5205  0.3313
10057TIP3   OH251585   1.724   5.861   5.600 -0.2309 -0.0756 -0.1928
10057TIP3    H151586   1.790   5.828   5.539 -0.4776 -3.4547  1.2841
10057TIP3    H251587   1.773   5.920   5.658  0.7653  0.1426 -1.2356
10058TIP3   OH251588   1.416   0.240  12.062 -0.0870  0.4863  0.1471
10058TIP3    H151589   1.440   0.324  12.102  0.1756  0.2008  0.5977
10058TIP3    H251590   1.486   0.180  12.089  0.1755  0.3205 -0.8708
10059TIP3   OH251591   6.115   0.588   1.058  0.4533 -0.1584  0.5429
10059TIP3    H151592   6.164   0.568   0.978 -1.1004 -0.1263 -0.4307
10059TIP3    H251593   6.145   0.675   1.083 -0.4367  0.6324 -1.0822
10060TIP3   OH251594   1.225   5.718   2.552  0.3537 -0.3740 -0.3278
10060TIP3    H151595   1.222   5.643   2.492  0.5025 -0.5205 -0.1510
10060TIP3    H251596   1.276   5.687   2.627 -0.2582 -0.3526  0.0975
10061TIP3   OH251597   2.351   2.675   4.969 -0.0129 -0.2494 -0.6331
10061TIP3    H151598   2.300   2.756   4.970  2.1455  1.1623  2.2532
10061TIP3    H251599   2.356   2.652   4.876 -2.1758  1.9259 -1.3620
10062TIP3   OH251600   4.984   0.693   2.084  0.0948 -0.0222 -0.0399
10062TIP3    H151601   5.026   0.718   2.167 -0.0853 -0.5879  0.2252
10062TIP3    H251602   4.900   0.739   2.085 -0.9471 -1.8543  1.1934
10063TIP3   OH251603   5.767   5.358  16.736 -0.3902  0.0713 -0.2891
10063TIP3    H151604   5.743   5.385  16.825  1.1203  0.0033  0.1569
10063TIP3    H251605   5.720   5.419  16.679 -0.6619  0.6997  0.5928
10064TIP3   OH251606   0.348   5.934  11.377 -0.6599  0.6414 -0.3214
10064TIP3    H151607   0.317   5.945  11.287  0.2229  2.2346 -0.4403
10064TIP3    H251608   0.416   5.868  11.371 -1.6656 -0.3993 -0.5727
10065TIP3   OH251609   2.572   3.339  15.496  0.6974  0.0610 -0.2552
10065TIP3    H151610   2.502   3.403  15.504 -0.3018 -1.1020  0.4573
10065TIP3    H251611   2.651   3.391  15.478 -0.0660  1.4854  0.4785
10066TIP3   OH251612   3.843   4.007  15.988 -0.2148  0.3225  0.2690
10066TIP3    H151613   3.889   3.924  15.977 -0.7196  0.1281 -0.4157
10066TIP3    H251614   3.823   4.012  16.081  0.3344 -0.0489  0.4074
10067TIP3   OH251615   4.809   1.318   4.690 -0.3258 -0.2737  0.0573
10067TIP3    H151616   4.833   1.248   4.629 -1.2643 -1.4310  0.9939
10067TIP3    H251617   4.714   1.309   4.701  0.0358 -1.1570  2.9567
10068TIP3   OH251618   3.512   2.971  16.072 -0.6346  0.9429 -0.0325
10068TIP3    H151619   3.432   2.962  16.123 -1.3649  0.6485 -1.2056
10068TIP3    H251620   3.487   2.943  15.984  0.5506  1.6384 -0.5943
10069TIP3   OH251621   0.239   1.471  15.714 -0.3769  0.4669  0.8034
10069TIP3    H151622   0.194   1.556  15.715  0.1153  0.7474  0.1070
10069TIP3    H251623   0.198   1.423  15.642  0.9808  1.0375 -0.3717
10070TIP3   OH251624   0.032   5.256   1.813 -0.7907 -0.2805  0.5221
10070TIP3    H151625   0.117   5.243   1.855 -0.2791  0.2552 -0.3310
10070TIP3    H251626  -0.000   5.338   1.851  0.7017  1.4318 -1.7527
10071TIP3   OH251627   6.661   3.422  12.891  0.3102 -0.0305 -0.5946
10071TIP3    H151628   6.675   3.409  12.797  0.8666 -1.3051 -0.3578
10071TIP3    H251629   6.750   3.428  12.927  0.0912  1.4677 -0.2677
10072TIP3   OH251630   3.733   4.691   0.053 -0.6376  0.1409  0.5282
10072TIP3    H151631   3.757   4.757   0.119  0.8589  0.2030 -0.0589
10072TIP3    H251632   3.641   4.709   0.034 -0.5785  1.3003  1.2694
10073TIP3   OH251633   2.502   2.378  11.426 -0.2394  0.0160  0.0318
10073TIP3    H151634   2.495   2.423  11.510 -0.5543  1.0110 -0.5131
10073TIP3    H251635   2.535   2.291  11.447  0.3314  0.4890  1.1206
10074TIP3   OH251636   6.367   1.158   1.917  0.4571 -0.0287  0.6329
10074TIP3    H151637   6.431   1.126   1.854  1.2005  0.5150  1.1019
10074TIP3    H251638   6.333   1.239   1.877  0.7483  0.1841  0.8166
10075TIP3   OH251639   6.683   0.174   3.335  0.3521 -0.0543 -0.2101
10075TIP3    H151640   6.731   0.127   3.403  0.7234  0.8163  0.1427
10075TIP3    H251641   6.722   0.261   3.335  0.3225 -0.0381 -1.5122
10076TIP3   OH251642   4.556   0.670   6.074  0.1719 -0.1980  0.1636
10076TIP3    H151643   4.521   0.659   6.162 -0.7598 -0.0741 -0.1841
10076TIP3    H251644   4.515   0.600   6.023  0.4539 -0.0706 -0.2414
10077TIP3   OH251645   0.725   2.250  11.347 -0.3754 -0.2231 -0.8007
10077TIP3    H151646   0.664   2.321  11.366  0.3020  0.9407 -2.8539
10077TIP3    H251647   0.722   2.194  11.425 -2.6558  0.8011 -0.1191
10078TIP3   OH251648   0.181   5.676   4.216  0.1295  0.6478 -0.3632
10078TIP3    H151649   0.111   5.659   4.279  1.6090  0.9081  1.4023
10078TIP3    H251650   0.138   5.724   4.145 -1.2495  2.0243  1.3273
10079TIP3   OH251651   6.068   3.348  15.752 -0.3484  0.3777 -0.3446
10079TIP3    H151652   6.113   3.421  15.795  1.1467 -0.1564 -0.9441
10079TIP3    H251653   6.043   3.382  15.667 -2.0106  0.9845  0.3596
10080TIP3   OH251654   1.380   3.546   3.762  0.4770  0.2976 -0.4630
10080TIP3    H151655   1.474   3.559   3.779  0.0229  1.0890  1.6353
10080TIP3    H251656   1.354   3.479   3.825 -0.1541 -0.7363 -1.8071
10081TIP3   OH251657   1.645   6.195  16.043 -0.2149  0.6687 -0.3889
10081TIP3    H151658   1.610   6.214  15.956  0.4217  2.5553 -0.2682
10081TIP3    H251659   1.738   6.220  16.037  0.1706 -0.4867  0.4424
10082TIP3   OH251660   2.310   0.197  10.782  0.2985 -0.1008 -0.2674
10082TIP3    H151661   2.381   0.154  10.830  1.1607  0.7568 -0.7682
10082TIP3    H251662   2.314   0.288  10.809 -0.6491 -0.0545 -0.2642
10083TIP3   OH251663   4.645   1.092  14.198  0.8042 -0.6458  0.0397
10083TIP3    H151664   4.719   1.032  14.196  1.0280 -0.3612 -0.4050
10083TIP3    H251665   4.571   1.040  14.169  0.8000 -0.9721  0.6350
10084TIP3   OH251666   5.566   6.585   1.012 -0.0606  0.1597 -0.1615
10084TIP3    H151667   5.622   6.633   0.951 -0.4756  0.0765 -0.6125
10084TIP3    H251668   5.586   6.622   1.098  0.3951  0.4040 -0.3733
10085TIP3   OH251669   6.371   6.044   5.619 -0.2415  0.4136 -0.3548
10085TIP3    H151670   6.384   5.950   5.627 -1.2378  0.2486 -0.6650
10085TIP3    H251671   6.342   6.057   5.529  2.0112  1.2604 -0.9921
10086TIP3   OH251672   4.850   5.636  11.585 -0.0831 -0.1562 -0.5686
10086TIP3    H151673   4.862   5.543  11.564 -0.2292 -0.0444 -1.1426
10086TIP3    H251674   4.895   5.647  11.669 -1.5412 -1.1266  0.3761
10087TIP3   OH251675   0.088   1.725  14.217 -0.6111  0.1855 -0.5026
10087TIP3    H151676   0.004   1.740  14.261 -0.9807 -1.7473 -0.5011
10087TIP3    H251677   0.141   1.800  14.241 -1.5961  0.3164  1.3491
10088TIP3   OH251678   2.070   6.276   4.787  0.3409  0.0889  0.7420
10088TIP3    H151679   2.017   6.233   4.719  1.7468 -2.9344  1.4489
10088TIP3    H251680   2.160   6.259   4.761  0.9036  0.2756  2.5026
10089TIP3   OH251681   1.515   3.687  13.148  0.2813  0.3256 -0.2926
10089TIP3    H151682   1.595   3.733  13.122  0.3066  1.1101  1.1531
10089TIP3    H251683   1.540   3.637  13.225 -0.2322 -0.6566 -0.7548
10090TIP3   OH251684   6.476   0.332   4.723  0.4009  0.3107 -0.1655
10090TIP3    H151685   6.538   0.367   4.659 -0.6200  0.2814 -1.1807
10090TIP3    H251686   6.462   0.405   4.784  1.4996  0.2853  0.1322
10091TIP3   OH251687   5.231   5.253   1.054 -0.8283  0.3275 -0.0710
10091TIP3    H151688   5.167   5.279   0.988 -1.0111 -0.5646 -0.2463
10091TIP3    H251689   5.316   5.274   1.015 -0.9716  0.6608 -0.2057
10092TIP3   OH251690   5.158   3.930  13.863  0.4903 -0.1143 -0.4699
10092TIP3    H151691   5.215   3.985  13.918 -1.3498  0.9308  0.4582
10092TIP3    H251692   5.152   3.847  13.910 -0.1356  0.3754  0.3376
10093TIP3   OH251693   5.929   5.810  10.733  0.0747  0.2286  0.3329
10093TIP3    H151694   5.921   5.737  10.793  1.3044  0.0678  0.3207
10093TIP3    H251695   5.867   5.791  10.663 -0.2118 -0.3764  0.7507
10094TIP3   OH251696   4.541   6.100  14.133 -0.0948 -0.4799 -0.1869
10094TIP3    H151697   4.553   6.100  14.228  2.5188  0.2335 -0.4805
10094TIP3    H251698   4.530   6.192  14.110  3.8294 -0.1290 -1.0276
10095TIP3   OH251699   4.853   3.794   2.192  0.3013 -0.1278 -0.2072
10095TIP3    H151700   4.791   3.724   2.212 -1.2823  1.1221 -0.5960
10095TIP3    H251701   4.799   3.872   2.183  2.2692  1.7634  3.0408
10096TIP3   OH251702   2.587   2.936  13.392  0.2783  0.1445 -0.5912
10096TIP3    H151703   2.679   2.929  13.367  0.9290  0.7257  1.5006
10096TIP3    H251704   2.552   3.006  13.337  1.4518  0.8950 -0.3927
10097TIP3   OH251705   4.897   1.701  10.385  0.6583 -0.3505  0.1315
10097TIP3    H151706   4.860   1.613  10.376 -1.3139  0.4380  0.4018
10097TIP3    H251707   4.824   1.760  10.366  1.5210  1.2375  1.5955
10098TIP3   OH251708   3.354   3.169  14.362  0.0497 -0.3040  0.2881
10098TIP3    H151709   3.399   3.097  14.407  1.2107  0.6620  0.6893
10098TIP3    H251710   3.301   3.210  14.431  1.8783  1.2168  0.8447
10099TIP3   OH251711   3.705   0.037   1.987  0.2444  0.4945  0.7055
10099TIP3    H151712   3.655   0.119   1.984  0.6517  0.7280  0.3086
10099TIP3    H251713   3.769   0.045   1.917  0.1211 -0.2749  0.4935
10100TIP3   OH251714   6.145   6.733  10.161  0.1945 -0.3249 -0.5030
10100TIP3    H151715   6.219   6.787  10.188 -0.8656  0.3922  0.9992
10100TIP3    H251716   6.070   6.792  10.163 -0.4694 -1.0856 -1.8490
10101TIP3   OH251717   6.075   6.432   2.362 -0.4456 -0.0143 -0.0843
10101TIP3    H151718   6.070   6.451   2.456  1.0894  0.9976 -0.1911
10101TIP3    H251719   6.067   6.337   2.357 -0.2826 -0.1003  1.1010
10102TIP3   OH251720   1.311   3.039   5.558  0.2085  0.0883  0.2479
10102TIP3    H151721   1.390   2.990   5.580 -0.1543 -0.0536  1.2894
10102TIP3    H251722   1.252   3.022   5.632 -1.1576 -0.6200 -0.9965
10103TIP3   OH251723   2.062   3.109  12.373 -0.4233 -0.0214  0.6266
10103TIP3    H151724   1.969   3.126  12.360 -0.1079 -0.0007 -1.8720
10103TIP3    H251725   2.104   3.194  12.360  0.0708 -0.3391  0.0946
10104TIP3   OH251726   3.767   1.770   1.541 -0.0657  0.2385  0.4504
10104TIP3    H151727   3.800   1.700   1.485  0.1765  1.3948 -0.8730
10104TIP3    H251728   3.825   1.845   1.522 -0.1837  0.7329  2.0055
10105TIP3   OH251729   3.533   6.534   6.274 -0.0793 -0.4828  0.3754
10105TIP3    H151730   3.516   6.543   6.180  0.0018 -0.8491  0.3265
10105TIP3    H251731   3.475   6.598   6.315 -0.8897 -1.0743  0.1481
10106TIP3   OH251732   1.783   1.791  11.932  0.4091 -0.3843 -0.4109
10106TIP3    H151733   1.878   1.792  11.933  0.4028  0.3904 -0.3266
10106TIP3    H251734   1.757   1.825  12.018  0.0523 -2.0645  0.1667
10107TIP3   OH251735   5.682   4.589  14.980  0.2226 -0.0376 -0.5204
10107TIP3    H151736   5.769   4.565  15.011  0.0954 -1.0904 -0.9288
10107TIP3    H251737   5.637   4.621  15.057  0.0932 -2.0964  0.2955
10108TIP3   OH251738   6.637   6.186   0.067 -0.3450  0.1354 -0.4517
10108TIP3    H151739   6.719   6.166   0.023 -0.4698 -1.7517  0.1585
10108TIP3    H251740   6.579   6.216  -0.003  0.4929  0.3835 -1.0481
10109TIP3   OH251741   1.596   6.501  13.521  0.9184  0.5989 -0.2750
10109TIP3    H151742   1.527   6.531  13.462  0.8540 -0.0525 -0.5419
10109TIP3    H251743   1.574   6.539  13.606  0.9812  1.4986 -0.6615
10110TIP3   OH251744   1.956   0.688  14.626 -0.0912 -0.3495 -0.3582
10110TIP3    H151745   2.000   0.605  14.610  0.4613 -0.2378  0.5176
10110TIP3    H251746   1.879   0.686  14.570  0.2769 -1.1586 -0.8477
10111TIP3   OH251747   6.648   0.453   1.476  0.0805 -1.0792  0.1346
10111TIP3    H151748   6.649   0.486   1.386  1.0310 -0.9450  0.1854
10111TIP3    H251749   6.739   0.462   1.505 -0.0409 -1.9516  0.8037
10112TIP3   OH251750   6.776   1.640  16.459  0.2992 -0.2326  0.5471
10112TIP3    H151751   6.737   1.591  16.531  0.1938 -0.0969  0.5804
10112TIP3    H251752   6.841   1.581  16.422 -2.0230 -1.6283 -1.4354
10113TIP3   OH251753   4.258   5.612   1.703  0.6032  0.5796  0.0044
10113TIP3    H151754   4.267   5.700   1.667  1.5379 -0.4623 -2.4261
10113TIP3    H251755   4.164   5.598   1.711  0.2866  0.2677 -3.6358
10114TIP3   OH251756   0.240   0.176   6.131 -0.3778 -0.5596  0.5565
10114TIP3    H151757   0.279   0.179   6.218 -1.4870 -0.2956  1.0596
10114TIP3    H251758   0.150   0.206   6.144 -0.4179 -0.0484 -0.7619
10115TIP3   OH251759   0.534   1.215   4.630 -0.1420 -0.0069  0.0096
10115TIP3    H151760   0.507   1.244   4.718 -0.2979 -2.6976  0.8955
10115TIP3    H251761   0.591   1.284   4.598  0.6168  0.6074  2.6010
10116TIP3   OH251762   1.424   0.027  16.048 -0.8389  0.6179  0.0700
10116TIP3    H151763   1.434  -0.061  16.083 -1.8534  0.6219  0.3966
10116TIP3    H251764   1.505   0.044  16.000 -0.6906 -0.5330 -0.0911
10117TIP3   OH251765   0.272   1.602   5.978 -0.4953 -0.1810  0.6636
10117TIP3    H151766   0.321   1.650   6.044 -1.1264  4.9539 -2.3645
10117TIP3    H251767   0.180   1.620   5.998 -0.7513 -0.1350 -0.5219
10118TIP3   OH251768   0.825   2.880   3.228  0.0676  0.4051  0.7118
10118TIP3    H151769   0.737   2.896   3.264  0.0384  0.9536  0.4046
10118TIP3    H251770   0.857   2.804   3.276 -2.0669 -2.1702 -1.7262
10119TIP3   OH251771   2.798   6.201  14.973  0.3617 -0.2644 -0.1319
10119TIP3    H151772   2.838   6.190  14.887  1.5792 -0.4754  0.4571
10119TIP3    H251773   2.868   6.235  15.028 -1.1158  2.4663  0.1264
10120TIP3   OH251774   4.062   3.332   2.093  0.1149 -0.1949  0.9257
10120TIP3    H151775   4.141   3.385   2.092 -0.9153  1.3526  0.0508
10120TIP3    H251776   4.031   3.336   2.184  1.5320 -1.5840  1.4875
10121TIP3   OH251777   1.734   1.391  16.652 -0.2007 -0.0006  0.0649
10121TIP3    H151778   1.800   1.401  16.720 -1.5031  0.7162  1.2526
10121TIP3    H251779   1.765   1.445  16.580  1.5583 -1.3342 -0.2187
10122TIP3   OH251780   5.027   6.313  14.108  0.6213  0.1043 -0.5436
10122TIP3    H151781   4.942   6.300  14.066  0.3846 -1.0661  0.2646
10122TIP3    H251782   5.091   6.301  14.038  0.1594 -0.0584 -0.9405
10123TIP3   OH251783   4.312   6.640   5.545  0.4344 -0.0521  0.1760
10123TIP3    H151784   4.403   6.667   5.561  0.5706 -0.8437  0.7667
10123TIP3    H251785   4.286   6.595   5.625 -0.0625 -0.9436 -0.4772
10124TIP3   OH251786   0.316   4.405   0.511  0.3188  0.2686  0.3623
10124TIP3    H151787   0.253   4.372   0.575 -0.7704  2.1149  0.2921
10124TIP3    H251788   0.333   4.331   0.453 -3.4290  0.2656 -0.8857
10125TIP3   OH251789   2.105   1.209   0.895 -0.4131 -0.2034 -0.2907
10125TIP3    H151790   2.123   1.189   0.803 -1.8745  2.1735 -1.1115
10125TIP3    H251791   2.183   1.256   0.925 -0.4029 -0.0004 -0.6317
10126TIP3   OH251792   5.676   4.444  14.463  0.0348  0.2223 -0.1751
10126TIP3    H151793   5.747   4.385  14.437 -0.7570  0.1803 -2.3188
10126TIP3    H251794   5.658   4.421  14.554  0.0518 -2.5231 -0.8227
10127TIP3   OH251795   4.326   6.232  13.470 -0.6262 -0.1458  0.0755
10127TIP3    H151796   4.337   6.252  13.563  0.7387  0.1977 -0.1429
10127TIP3    H251797   4.260   6.164  13.467 -1.2819  0.4285  1.2474
10128TIP3   OH251798   6.655   2.935  11.455  0.5125  0.0848  0.4392
10128TIP3    H151799   6.626   3.024  11.436  0.2023  0.4068  2.2859
10128TIP3    H251800   6.728   2.920  11.395 -0.0437  1.2346 -0.5403
10129TIP3   OH251801   5.196   4.210  15.665 -0.3930 -0.4556  0.0290
10129TIP3    H151802   5.225   4.263  15.591 -1.0871 -0.7479 -0.4530
10129TIP3    H251803   5.265   4.222  15.731  0.1452 -0.0685 -0.5964
10130TIP3   OH251804   6.227   5.402   3.492 -0.3431  0.0796 -0.1452
10130TIP3    H151805   6.269   5.487   3.480  0.8980 -0.3802  0.8931
10130TIP3    H251806   6.293   5.338   3.465 -0.1442 -0.6725  2.0370
10131TIP3   OH251807   1.030   2.221  16.936 -0.0802  0.2601 -0.0456
10131TIP3    H151808   0.990   2.305  16.958 -1.0457 -0.1456 -0.2511
10131TIP3    H251809   1.102   2.244  16.878 -0.8766  0.8777 -0.7983
10132TIP3   OH251810   1.103   3.710   6.244  0.7983 -0.2969 -0.2415
10132TIP3    H151811   1.072   3.648   6.178  0.8731 -1.4714  0.8136
10132TIP3    H251812   1.026   3.762   6.267  0.5510 -0.5324 -0.5419
10133TIP3   OH251813   2.209   5.037   6.254 -0.1793  0.0618 -0.5183
10133TIP3    H151814   2.236   4.945   6.256 -0.4605 -0.0291 -0.7769
10133TIP3    H251815   2.189   5.057   6.346 -2.9810 -1.0250 -0.8386
10134TIP3   OH251816   4.904   2.945  16.259  0.6222  0.3612  0.1483
10134TIP3    H151817   4.827   2.987  16.220 -0.0783 -2.1554 -1.3092
10134TIP3    H251818   4.869   2.897  16.334  0.8170 -0.4416 -0.2666
10135TIP3   OH251819   4.286   5.873  13.687  0.5585 -0.0149 -0.2169
10135TIP3    H151820   4.344   5.843  13.757 -1.8878 -2.4344  0.8810
10135TIP3    H251821   4.249   5.955  13.719 -0.4657 -1.0533  1.3087
10136TIP3   OH251822   4.591   0.114  11.696 -0.2689  0.0978  0.1341
10136TIP3    H151823   4.571   0.028  11.658 -0.4033  0.4430 -0.5783
10136TIP3    H251824   4.511   0.140  11.741 -0.2342 -0.1410  0.3357
10137TIP3   OH251825   1.576   0.367  16.142 -0.0138 -0.5524  0.0380
10137TIP3    H151826   1.503   0.309  16.161 -0.4431 -0.7014 -1.9544
10137TIP3    H251827   1.630   0.318  16.080  1.1611  0.0092  0.6129
10138TIP3   OH251828   6.215   6.737  14.307  0.1452  0.1435  0.5255
10138TIP3    H151829   6.274   6.739  14.232  1.4429  0.6121  1.5358
10138TIP3    H251830   6.213   6.827  14.339 -1.0342  0.1081  0.5892
10139TIP3   OH251831   1.574   1.133   2.177  0.2337 -0.2309  0.0190
10139TIP3    H151832   1.501   1.186   2.209  2.1565  2.8073 -0.3745
10139TIP3    H251833   1.534   1.071   2.115 -2.0147  1.3254 -0.1462
10140TIP3   OH251834   2.073   4.795  16.162  0.0548  0.6313 -0.5809
10140TIP3    H151835   2.061   4.843  16.080  0.6004 -0.2091 -1.1577
10140TIP3    H251836   1.984   4.778  16.194 -0.1516  1.2451 -0.8291
10141TIP3   OH251837   1.956   2.603   4.529  0.1090  0.3498 -0.0937
10141TIP3    H151838   2.022   2.554   4.479 -0.4194  1.4733 -1.9749
10141TIP3    H251839   1.975   2.695   4.508 -1.3283  0.7397  0.2752
10142TIP3   OH251840   5.688   6.287  12.306 -0.0727  0.3837 -0.2150
10142TIP3    H151841   5.720   6.239  12.229  1.7883 -1.4281  1.6345
10142TIP3    H251842   5.593   6.276  12.303  0.2320 -2.6111 -0.4184
10143TIP3   OH251843   1.167   1.243   3.740  0.1673  0.5587  0.1815
10143TIP3    H151844   1.235   1.214   3.679  1.2660 -0.0861  1.6901
10143TIP3    H251845   1.148   1.166   3.794 -2.1148  0.5928 -0.5103
10144TIP3   OH251846   1.890   0.996  14.135 -0.4957  0.6395 -0.2242
10144TIP3    H151847   1.902   0.963  14.225  0.9652 -1.2296 -1.0683
10144TIP3    H251848   1.812   1.052  14.141 -0.5310  0.4141  2.1730
10145TIP3   OH251849   0.506   4.600   0.570  0.2967  0.0511 -0.4890
10145TIP3    H151850   0.458   4.527   0.532 -0.6855  0.3169  0.2378
10145TIP3    H251851   0.485   4.675   0.515  0.3358  0.0473 -0.5090
10146TIP3   OH251852   5.313   2.843  10.933  0.4281 -0.1067  0.0769
10146TIP3    H151853   5.284   2.918  10.881 -1.4273  0.1411  1.4521
10146TIP3    H251854   5.409   2.848  10.930  0.3252  1.8408 -0.5336
10147TIP3   OH251855   5.543   0.325   6.075  0.2814 -0.6000  0.1741
10147TIP3    H151856   5.541   0.409   6.120  0.3180 -0.7455  0.4526
10147TIP3    H251857   5.482   0.334   6.003 -2.0933 -1.3421  2.0087
10148TIP3   OH251858   2.493   6.017   2.266 -0.2407 -0.1579  0.3553
10148TIP3    H151859   2.442   6.075   2.322  0.5023  0.3713  0.4966
10148TIP3    H251860   2.569   6.070   2.240  0.3515 -1.0057  0.3407
10149TIP3   OH251861   1.867   3.288  13.373  0.1057  0.2729 -0.0271
10149TIP3    H151862   1.800   3.231  13.336 -0.5286  2.0520 -1.7197
10149TIP3    H251863   1.837   3.307  13.462 -0.1851 -1.1705  0.2004
10150TIP3   OH251864   4.120   2.269   0.054 -0.1431  0.5544  0.1247
10150TIP3    H151865   4.186   2.311   0.109  0.5327 -0.1616 -0.1263
10150TIP3    H251866   4.095   2.190   0.103 -1.3424  1.1989  0.5581
10151TIP3   OH251867   2.006   3.364  11.559  0.2301  0.1345 -0.1484
10151TIP3    H151868   2.058   3.301  11.609 -1.3212 -0.8270  0.3136
10151TIP3    H251869   2.069   3.409  11.503  1.6600 -0.4163  0.9820
10152TIP3   OH251870   0.506   1.346   1.349 -0.1653  0.1525  0.1756
10152TIP3    H151871   0.530   1.437   1.332 -0.1471  0.1981  0.4358
10152TIP3    H251872   0.565   1.294   1.295  0.6790  0.2535  0.9781
10153TIP3   OH251873   4.861   1.287  11.794 -0.3028  0.0809 -0.4524
10153TIP3    H151874   4.836   1.366  11.747 -0.3315  1.3778  1.6673
10153TIP3    H251875   4.943   1.310  11.838 -0.8458 -0.7185  1.0139
10154TIP3   OH251876   2.550   4.756   1.383 -0.0339 -0.0235 -0.0847
10154TIP3    H151877   2.586   4.840   1.356  0.3850  0.0440  0.6561
10154TIP3    H251878   2.563   4.698   1.308 -2.6291  1.2236 -1.5511
10155TIP3   OH251879   0.299   5.761   6.553 -0.4892 -0.1507 -0.2810
10155TIP3    H151880   0.239   5.688   6.566 -2.1213  0.8901 -1.7677
10155TIP3    H251881   0.242   5.838   6.549  1.1172  1.0809  0.1362
10156TIP3   OH251882   2.205   3.282   5.604  0.8042 -0.5438  0.4448
10156TIP3    H151883   2.245   3.314   5.522  0.2960  0.0769  0.4308
10156TIP3    H251884   2.186   3.362   5.653  0.6900 -0.8981  0.9704
10157TIP3   OH251885   4.963   1.397   5.364  0.6554  0.5219 -0.1765
10157TIP3    H151886   4.869   1.389   5.381  1.2570 -0.4652  3.1301
10157TIP3    H251887   4.996   1.307   5.366  1.5263  0.7599 -2.4573
10158TIP3   OH251888   1.545   5.210   1.041  0.0641  0.5328 -0.0338
10158TIP3    H151889   1.587   5.185   1.124 -2.0484 -0.8157  0.6886
10158TIP3    H251890   1.610   5.189   0.974 -0.0167 -3.1129  0.9129
10159TIP3   OH251891   3.137   4.735  13.383 -0.1148  0.3055  0.7248
10159TIP3    H151892   3.044   4.738  13.364 -0.6520 -0.3607  3.0987
10159TIP3    H251893   3.179   4.733  13.297 -2.1813  2.4199 -0.3940
10160TIP3   OH251894   4.732   5.569  14.171 -0.0007  0.8284  0.0923
10160TIP3    H151895   4.713   5.662  14.172  1.7421  1.2124 -0.2178
10160TIP3    H251896   4.761   5.551  14.081 -0.3949 -0.0184  0.1285
10161TIP3   OH251897   3.160   0.657   3.735  0.0321  0.2863 -0.4363
10161TIP3    H151898   3.067   0.681   3.730  0.2731  1.4265  0.3950
10161TIP3    H251899   3.164   0.570   3.696 -1.5314 -0.1181  0.2464
10162TIP3   OH251900   5.826   3.869   5.510  0.1417 -0.0140  0.2817
10162TIP3    H151901   5.870   3.941   5.556 -1.0061  0.4958  0.5847
10162TIP3    H251902   5.898   3.818   5.473  1.0276  0.4196  1.3578
10163TIP3   OH251903   0.057   0.338   4.218 -0.8881 -0.3055  0.4435
10163TIP3    H151904   0.129   0.284   4.184 -0.5224  0.2075  0.3927
10163TIP3    H251905   0.026   0.291   4.295 -0.3939 -0.4552  0.5541
10164TIP3   OH251906   4.838   2.114   0.907  0.4487 -0.3039 -0.0403
10164TIP3    H151907   4.769   2.089   0.969 -1.0543 -0.4712 -1.7458
10164TIP3    H251908   4.815   2.203   0.880  1.3667 -0.0501  0.0205
10165TIP3   OH251909   3.459   4.459  12.797  0.0355  0.6638 -0.3237
10165TIP3    H151910   3.516   4.494  12.866  0.3231 -0.6157  0.0866
10165TIP3    H251911   3.520   4.427  12.730 -0.1171 -2.4333  0.9457
10166TIP3   OH251912   3.170   5.269  14.734 -0.1516  0.1116 -0.2693
10166TIP3    H151913   3.091   5.222  14.760 -0.0484 -0.2887 -0.6722
10166TIP3    H251914   3.216   5.287  14.816  0.8166 -2.2792 -0.2573
10167TIP3   OH251915   2.726   0.961  15.643  0.3167 -0.1352 -0.4784
10167TIP3    H151916   2.767   0.895  15.700  0.8010  1.1926  0.7252
10167TIP3    H251917   2.798   1.019  15.618 -0.6376  1.7299  0.9674
10168TIP3   OH251918   4.887   0.226   3.321 -0.3515 -0.3752  0.2660
10168TIP3    H151919   4.891   0.217   3.225  1.5408  0.6761  0.2379
10168TIP3    H251920   4.853   0.314   3.335  0.0068 -0.2865  0.5658
10169TIP3   OH251921   0.904   5.425   0.074  0.1900 -0.4862  0.1754
10169TIP3    H151922   0.836   5.395   0.135  0.2611 -0.1364  0.4300
10169TIP3    H251923   0.856   5.456  -0.002  0.0185  0.5374  0.6946
10170TIP3   OH251924   1.529   0.078   3.068  0.0212 -0.0880 -0.0500
10170TIP3    H151925   1.476   0.061   3.146  0.4245 -0.6365  0.1099
10170TIP3    H251926   1.489   0.025   2.999 -0.9312  1.1547 -0.4701
10171TIP3   OH251927   4.290   4.622  15.121 -0.6051 -0.2169 -0.0173
10171TIP3    H151928   4.252   4.710  15.112  1.9964  0.8272 -1.3049
10171TIP3    H251929   4.384   4.636  15.118 -0.0305 -2.7033  3.6179
10172TIP3   OH251930   2.383   4.317  15.505 -0.3772 -0.2741  0.4468
10172TIP3    H151931   2.303   4.325  15.453 -0.9563 -0.2853  1.3274
10172TIP3    H251932   2.428   4.401  15.492 -0.7323 -0.1072  0.2815
10173TIP3   OH251933   0.012   3.340   0.375  0.1279 -0.0553  0.3394
10173TIP3    H151934  -0.028   3.409   0.427  2.6308  1.8727 -0.1830
10173TIP3    H251935   0.078   3.302   0.433  0.5803 -0.1968 -0.2638
10174TIP3   OH251936   0.031   4.713   2.807  0.4158 -0.2824  0.4853
10174TIP3    H151937  -0.057   4.744   2.786  0.2523 -0.5518  0.7576
10174TIP3    H251938   0.049   4.646   2.741  0.0559 -0.8585  0.9594
10175TIP3   OH251939   5.385   5.207   6.612  0.3669  0.1579  0.4230
10175TIP3    H151940   5.384   5.274   6.544 -0.4116  2.0572  2.2371
10175TIP3    H251941   5.476   5.180   6.618  0.5768  0.5622 -0.7955
10176TIP3   OH251942   2.363   1.558   1.930  0.3149 -0.2295 -0.4099
10176TIP3    H151943   2.280   1.527   1.968  0.1230  1.6050  0.7645
10176TIP3    H251944   2.349   1.554   1.836 -1.0674 -0.1103 -0.2281
10177TIP3   OH251945   2.719   1.559   2.568 -0.0345  0.0127  0.8610
10177TIP3    H151946   2.692   1.608   2.490 -0.8680  0.4847  1.4404
10177TIP3    H251947   2.701   1.467   2.546 -2.4694  0.3333  1.3558
10178TIP3   OH251948   3.572   4.404  14.679 -0.2683  0.1271  0.3962
10178TIP3    H151949   3.506   4.463  14.641 -0.5351  1.4005  2.7338
10178TIP3    H251950   3.526   4.322  14.693 -0.7027  0.2669 -0.1964
10179TIP3   OH251951   3.149   4.196   3.452  0.0229  0.8531 -0.1006
10179TIP3    H151952   3.176   4.185   3.361  0.5952 -0.6920  0.2369
10179TIP3    H251953   3.082   4.265   3.450 -0.2744  0.5242 -1.7392
10180TIP3   OH251954   6.346   4.918   1.039 -0.5899  0.5072  0.6107
10180TIP3    H151955   6.419   4.880   0.992 -0.9833  1.6149 -0.9192
10180TIP3    H251956   6.376   5.005   1.065 -0.7582  0.3144  1.4896
10181TIP3   OH251957   0.763   2.772   1.984  0.1812  0.2395 -0.2303
10181TIP3    H151958   0.704   2.707   2.021 -1.9311  1.7105 -0.9070
10181TIP3    H251959   0.770   2.747   1.892  2.5633 -1.3238  0.3448
10182TIP3   OH251960   0.991   5.536  14.124 -0.2936  0.2433 -0.0615
10182TIP3    H151961   1.038   5.458  14.096 -0.4700  0.1509 -0.1004
10182TIP3    H251962   0.899   5.519  14.102 -0.2505  0.7050 -0.6162
10183TIP3   OH251963   3.539   1.790   1.994 -0.5020  0.4497 -0.2526
10183TIP3    H151964   3.535   1.746   1.910  0.9746  1.9304 -1.1351
10183TIP3    H251965   3.466   1.753   2.045 -0.0604 -2.0270 -1.3813
10184TIP3   OH251966   1.170   3.225   5.393  0.3762  0.3124  0.1307
10184TIP3    H151967   1.211   3.155   5.444  2.5068  0.0084 -1.9025
10184TIP3    H251968   1.104   3.180   5.340 -1.1219  0.4819  1.8001
10185TIP3   OH251969   1.487   5.718   4.064 -0.2835  0.3433  0.3484
10185TIP3    H151970   1.451   5.805   4.049  0.8524  1.1703  2.3037
10185TIP3    H251971   1.540   5.700   3.987 -0.0085  1.6414  0.2337
10186TIP3   OH251972   5.714   3.993  13.375 -0.2215 -0.0399  1.1436
10186TIP3    H151973   5.778   3.981  13.445  1.1645 -0.6754 -0.2176
10186TIP3    H251974   5.643   3.933  13.398  0.2673 -0.3194  1.9568
10187TIP3   OH251975   0.593   0.157   0.653  0.4127  0.3697  0.1777
10187TIP3    H151976   0.629   0.205   0.579  0.1783 -0.9341 -0.7992
10187TIP3    H251977   0.660   0.165   0.722  0.3388  2.1208  0.0545
10188TIP3   OH251978   6.324   0.727   1.297  0.2863  0.0635 -0.8077
10188TIP3    H151979   6.324   0.632   1.284 -1.0861  0.0067 -0.4312
10188TIP3    H251980   6.416   0.752   1.286  0.4908 -1.1529 -1.9795
10189TIP3   OH251981   4.995   0.306  10.980 -0.3655 -0.3772  0.3601
10189TIP3    H151982   4.950   0.272  11.058 -2.7524  1.0301 -0.3562
10189TIP3    H251983   4.972   0.245  10.910 -1.6789  0.6837 -0.1406
10190TIP3   OH251984   5.451   2.648  12.409 -0.1061 -0.4202  0.1145
10190TIP3    H151985   5.403   2.610  12.483 -0.9142 -1.2044 -0.7944
10190TIP3    H251986   5.521   2.586  12.392 -0.4413 -0.6803 -0.3260
10191TIP3   OH251987   2.876   1.157  14.311  0.5003 -0.2801  0.2282
10191TIP3    H151988   2.902   1.140  14.402  1.8066 -0.0321 -0.0919
10191TIP3    H251989   2.874   1.070  14.271  0.5592 -0.3306  0.3316
10192TIP3   OH251990   0.391   6.104   2.186  0.1638  0.0977  0.5378
10192TIP3    H151991   0.390   6.191   2.145  0.7021 -0.2657 -0.2712
10192TIP3    H251992   0.484   6.086   2.201  0.1952 -1.1093 -0.9974
10193TIP3   OH251993   1.961   6.017  16.318 -0.1035  0.3677 -0.5118
10193TIP3    H151994   2.028   5.974  16.264 -0.2332  0.3266 -0.6384
10193TIP3    H251995   1.949   5.957  16.392  1.8145  1.5716  0.8139
10194TIP3   OH251996   5.047   2.791  15.454  0.2810  0.5274  0.2131
10194TIP3    H151997   5.061   2.706  15.412  1.4621  1.2213 -0.8398
10194TIP3    H251998   4.962   2.782  15.497  0.1643 -1.0259 -0.2809
10195TIP3   OH251999   1.819   6.045   5.786  0.0645 -0.0719 -0.6924
10195TIP3    H152000   1.870   6.125   5.772 -1.5607  1.5153  1.9262
10195TIP3    H252001   1.852   6.009   5.869 -1.6187 -0.1209 -0.0031
10196TIP3   OH252002   2.338   5.045  16.634 -0.0400  0.0425 -0.1346
10196TIP3    H152003   2.323   4.964  16.587  0.3819  0.3635 -0.8302
10196TIP3    H252004   2.255   5.092  16.628 -0.4215 -0.5271  0.6501
10197TIP3   OH252005   3.063   3.072   1.137  0.0200 -0.2351  0.9195
10197TIP3    H152006   2.996   3.005   1.130  1.2560 -1.3195 -0.7624
10197TIP3    H252007   3.019   3.153   1.109 -0.2251 -1.1749 -1.4467
10198TIP3   OH252008   6.263   6.324   0.476  0.2643  0.0405 -0.5096
10198TIP3    H152009   6.252   6.252   0.539  0.8501 -1.0188 -1.5793
10198TIP3    H252010   6.213   6.396   0.513  0.0267 -0.7785  0.8250
10199TIP3   OH252011   6.008   4.871   5.010 -0.2812 -0.1034 -0.3634
10199TIP3    H152012   6.000   4.847   5.103  0.0736  0.1177 -0.2770
10199TIP3    H252013   6.050   4.795   4.969 -2.3658 -1.0925 -0.7347
10200TIP3   OH252014   0.501   2.127   2.472  0.2088  0.1156 -0.3566
10200TIP3    H152015   0.406   2.128   2.488  0.3723 -0.9736  0.7529
10200TIP3    H252016   0.525   2.220   2.468 -0.9609  0.4003 -1.0099
10201TIP3   OH252017   6.683   6.639   3.183 -0.7416 -0.4831  0.3297
10201TIP3    H152018   6.638   6.705   3.236  0.1532 -0.8568  1.5501
10201TIP3    H252019   6.737   6.691   3.123  0.6244 -0.0832  1.8601
10202TIP3   OH252020   5.067   5.760   2.540  0.1331  0.0604 -0.2530
10202TIP3    H152021   4.977   5.762   2.505  0.6402 -2.4517 -1.8385
10202TIP3    H252022   5.100   5.848   2.524 -2.0538  1.0546  0.4007
10203TIP3   OH252023   6.586   6.119   3.002  0.2874  0.4993 -0.0731
10203TIP3    H152024   6.535   6.199   3.017  0.1759  1.1114 -3.2608
10203TIP3    H252025   6.525   6.048   3.019 -0.6928  1.1731 -0.7087
10204TIP3   OH252026   5.620   1.140   0.023 -0.3311  0.4679 -0.4338
10204TIP3    H152027   5.573   1.170  -0.054 -0.2059 -1.0737 -1.1291
10204TIP3    H252028   5.658   1.219   0.061 -1.7170  1.4406 -1.0602
10205TIP3   OH252029   5.397   1.511  11.539  0.0682  0.2320 -0.7581
10205TIP3    H152030   5.366   1.427  11.573 -0.2937  0.4155 -0.6288
10205TIP3    H252031   5.467   1.536  11.599  1.2653 -0.7385 -1.7267
10206TIP3   OH252032   4.845   3.760   5.381 -0.7114  0.6630  0.4010
10206TIP3    H152033   4.872   3.807   5.302 -0.3934 -0.0009  0.1186
10206TIP3    H252034   4.756   3.791   5.397 -1.0145  0.3251 -0.5853
10207TIP3   OH252035   0.159   3.198  11.256 -0.1172  0.0314  0.5804
10207TIP3    H152036   0.121   3.271  11.305 -0.2207  0.5927 -0.3155
10207TIP3    H252037   0.245   3.184  11.295 -0.1618  0.5285  0.8539
10208TIP3   OH252038   0.616   4.089   6.488  0.3288  0.1284 -0.4345
10208TIP3    H152039   0.619   4.062   6.580 -1.5316  1.0989 -0.0624
10208TIP3    H252040   0.526   4.121   6.475  0.5954  0.1064 -2.5621
10209TIP3   OH252041   0.954   4.035   5.003 -0.1647 -0.2649 -0.3764
10209TIP3    H152042   0.972   3.949   4.965 -1.4656 -1.4196  1.5359
10209TIP3    H252043   0.869   4.060   4.966  0.4353  0.4509 -1.3087
10210TIP3   OH252044   2.584   5.469  14.138  0.1947 -0.4074 -0.4080
10210TIP3    H152045   2.561   5.557  14.166  1.5453 -0.4645  0.9304
10210TIP3    H252046   2.535   5.456  14.057 -1.4302  0.8885  0.3430
10211TIP3   OH252047   5.729   1.714  14.544  0.3761 -0.0267  0.7043
10211TIP3    H152048   5.718   1.620  14.534  2.4170 -0.2116  0.0825
10211TIP3    H252049   5.639   1.749  14.542 -0.2089 -1.4565 -3.8843
10212TIP3   OH252050   4.640   5.606  13.544 -0.0671  0.4541 -0.7448
10212TIP3    H152051   4.692   5.676  13.583 -1.8799  0.5928  1.5135
10212TIP3    H252052   4.551   5.642  13.541 -0.5947 -0.9065 -1.6948
10213TIP3   OH252053   4.444   6.636   3.609 -0.1201 -0.2706  0.5940
10213TIP3    H152054   4.396   6.559   3.579  2.7782 -0.9290 -2.5073
10213TIP3    H252055   4.511   6.601   3.668 -0.3037  0.1524  1.0594
10214TIP3   OH252056   2.431   2.128   2.686  0.4623  0.0774  0.4045
10214TIP3    H152057   2.424   2.036   2.714  0.2076 -0.1581 -0.4224
10214TIP3    H252058   2.520   2.153   2.711  1.0014 -0.8068 -0.5531
10215TIP3   OH252059   4.711   1.626   1.386  0.2581 -0.9172 -0.1548
10215TIP3    H152060   4.659   1.612   1.307 -1.5039 -1.6598  1.0874
10215TIP3    H252061   4.699   1.719   1.406 -2.3103 -1.4932  1.2339
10216TIP3   OH252062   6.779   0.428   3.262  0.2147 -0.0565  0.1732
10216TIP3    H152063   6.735   0.507   3.229  1.1964  0.5399  0.2501
10216TIP3    H252064   6.819   0.456   3.344  1.1401 -0.4439 -0.1393
10217TIP3   OH252065   1.835   1.581  11.139  0.4378 -0.3429 -0.0050
10217TIP3    H152066   1.918   1.567  11.093  1.7460 -0.6156  2.3286
10217TIP3    H252067   1.802   1.664  11.104  1.0789 -0.8171 -1.8231
10218TIP3   OH252068   4.243   2.318  14.278 -0.1833 -0.3275  0.6116
10218TIP3    H152069   4.311   2.273  14.229 -0.4771  0.4606 -0.5229
10218TIP3    H252070   4.266   2.304  14.370  0.4612 -1.6448  0.2491
10219TIP3   OH252071   3.021   4.841   2.234 -0.3353 -1.0455 -0.3522
10219TIP3    H152072   3.069   4.763   2.207 -0.0515 -1.7258  1.9895
10219TIP3    H252073   2.959   4.810   2.300  0.1004  0.7486  0.9438
10220TIP3   OH252074   1.647   3.285   5.879 -0.5768  0.7088  0.4034
10220TIP3    H152075   1.567   3.232   5.887 -0.9719  1.4439  1.3627
10220TIP3    H252076   1.682   3.289   5.968  1.7634 -1.4715 -0.3618
10221TIP3   OH252077   3.135   0.863   2.818 -0.1898 -0.1316  0.0484
10221TIP3    H152078   3.118   0.844   2.910  1.7203  0.2422  0.5038
10221TIP3    H252079   3.095   0.948   2.803 -0.6088 -0.2476  0.4944
10222TIP3   OH252080   2.363   4.979  15.162  0.2239 -0.4245 -0.3856
10222TIP3    H152081   2.284   4.930  15.141  1.4769 -2.5091 -0.3919
10222TIP3    H252082   2.377   4.963  15.256  1.5094 -1.4201 -0.7261
10223TIP3   OH252083   1.269   2.725  14.638 -0.8366  0.4385  0.1752
10223TIP3    H152084   1.303   2.661  14.700  0.1823  0.4381 -0.3730
10223TIP3    H252085   1.320   2.711  14.558 -1.4819  1.0742 -0.3575
10224TIP3   OH252086   0.611   5.237  17.049 -0.1493 -0.1622  0.6852
10224TIP3    H152087   0.695   5.205  17.081  1.0630  0.8992 -1.3792
10224TIP3    H252088   0.546   5.190  17.102  1.6839 -2.1928  1.1950
10225TIP3   OH252089   6.012   5.581   5.135  0.4612  0.3864  0.4138
10225TIP3    H152090   5.987   5.585   5.043  0.9355  2.1152  0.3359
10225TIP3    H252091   5.929   5.581   5.183  0.1944  2.8757  0.0577
10226TIP3   OH252092   1.458   1.997  15.124  0.1359 -0.6446  0.6524
10226TIP3    H152093   1.491   2.042  15.203 -1.4929  0.3643  0.7815
10226TIP3    H252094   1.432   1.910  15.155 -2.9184  0.6070  1.8200
10227TIP3   OH252095   0.042   5.496  12.195 -0.0188 -0.0013  0.0530
10227TIP3    H152096   0.095   5.526  12.121  0.3377 -0.5616  0.0791
10227TIP3    H252097  -0.045   5.483  12.158 -0.3232  1.6497  0.1769
10228TIP3   OH252098   4.598   3.269  14.934 -0.5234  0.1147  0.3262
10228TIP3    H152099   4.648   3.336  14.887 -1.5808  1.5661  1.1950
10228TIP3    H252100   4.627   3.277  15.024  2.1198 -3.2410 -0.1690
10229TIP3   OH252101   1.604   2.978   3.448  0.1867 -0.4628  0.2784
10229TIP3    H152102   1.616   3.008   3.538 -0.2055 -0.9843  0.5111
10229TIP3    H252103   1.672   3.023   3.398 -0.2595  0.6319  0.6493
10230TIP3   OH252104   0.126   1.716  10.643  0.1948 -0.2867  0.1050
10230TIP3    H152105   0.074   1.657  10.588  0.6269  0.7888 -1.4815
10230TIP3    H252106   0.101   1.804  10.614  3.1467  0.2474 -0.9429
10231TIP3   OH252107   3.396   4.072   5.099 -0.7044  0.5337  0.1624
10231TIP3    H152108   3.397   4.165   5.120 -2.8327  0.5819  0.2140
10231TIP3    H252109   3.441   4.030   5.172  0.9480  1.5804 -0.2400
10232TIP3   OH252110   1.170   5.214   3.193  0.0634 -0.4508 -0.2846
10232TIP3    H152111   1.202   5.176   3.112 -1.0197 -1.2173 -0.3695
10232TIP3    H252112   1.109   5.148   3.228 -0.9837  0.7201  0.1370
10233TIP3   OH252113   3.827   0.882  14.282  0.1623 -0.4268  0.4848
10233TIP3    H152114   3.837   0.903  14.189  1.2814 -0.3493  0.6132
10233TIP3    H252115   3.733   0.885  14.298  0.0045  0.0808 -0.5291
10234TIP3   OH252116   0.592   6.260  12.889  0.6667 -0.2758  0.1690
10234TIP3    H152117   0.656   6.322  12.923 -1.5265  1.8348  0.5836
10234TIP3    H252118   0.538   6.237  12.965 -0.6694 -0.0233 -0.6945
10235TIP3   OH252119   2.088   5.956   5.583  0.2350  0.2347 -0.1482
10235TIP3    H152120   2.064   6.032   5.636  1.5358  0.9479 -0.5718
10235TIP3    H252121   2.074   5.984   5.493  1.8311  0.3852 -0.3643
10236TIP3   OH252122   3.826   1.163   4.182 -0.0010  0.0225 -0.6161
10236TIP3    H152123   3.818   1.130   4.093 -0.0267  0.4425 -0.7702
10236TIP3    H252124   3.744   1.137   4.224 -0.3158  0.4962 -0.9354
10237TIP3   OH252125   1.678   3.534   1.031  0.5232  0.3552 -0.0813
10237TIP3    H152126   1.712   3.456   1.075 -0.8605 -0.8194 -1.0568
10237TIP3    H252127   1.625   3.578   1.097 -2.3382 -1.9111 -0.7329
10238TIP3   OH252128   3.846   2.187   5.743 -0.8385 -0.4176  0.9212
10238TIP3    H152129   3.918   2.240   5.710 -1.1935  1.1623  2.6469
10238TIP3    H252130   3.820   2.133   5.668  1.2208 -0.0217 -0.1051
10239TIP3   OH252131   5.545   3.305  14.913 -0.0836 -0.1733 -0.8508
10239TIP3    H152132   5.483   3.268  14.850 -0.8102  0.4717 -0.5269
10239TIP3    H252133   5.524   3.260  14.995  0.1152 -0.2054 -0.8183
10240TIP3   OH252134   0.649   4.173   2.126 -0.2288 -0.4268 -0.2479
10240TIP3    H152135   0.667   4.100   2.185  0.0931  0.5759  0.9140
10240TIP3    H252136   0.572   4.216   2.164 -0.2172  0.0266 -0.7376
10241TIP3   OH252137   1.806   0.248  14.550  0.3075 -0.1746 -0.2262
10241TIP3    H152138   1.711   0.250  14.543  0.1609  1.2706  1.5967
10241TIP3    H252139   1.822   0.219  14.640  1.5947 -0.8654 -0.6694
10242TIP3   OH252140   6.497   4.297  12.167 -0.8291 -0.8640 -0.4257
10242TIP3    H152141   6.511   4.341  12.083  0.9472 -0.7149 -0.0866
10242TIP3    H252142   6.552   4.219  12.162 -1.3208 -1.2579  0.2844
10243TIP3   OH252143   5.662   0.330   3.993  0.0161 -0.2808  0.1114
10243TIP3    H152144   5.644   0.236   3.997 -0.0934 -0.2759 -0.2069
10243TIP3    H252145   5.631   0.365   4.076 -0.7904 -0.3835 -0.1392
10244TIP3   OH252146   5.534   0.339   5.145  0.1518 -0.1217  0.2374
10244TIP3    H152147   5.471   0.409   5.129  0.1652 -0.1962 -0.1657
10244TIP3    H252148   5.586   0.335   5.064  0.0376 -0.7165  0.1887
10245TIP3   OH252149   6.586   2.042   4.131 -1.3280 -0.4120  0.1732
10245TIP3    H152150   6.507   2.003   4.093 -2.8176  0.4317  2.3159
10245TIP3    H252151   6.623   1.974   4.187 -1.7697 -0.0826  0.8752
10246TIP3   OH252152   3.531   4.067  13.223 -0.2944 -0.3372 -0.1104
10246TIP3    H152153   3.482   4.140  13.185  0.6852 -0.6006 -1.9515
10246TIP3    H252154   3.551   4.011  13.148  0.8901 -1.3726  0.9567
10247TIP3   OH252155   0.562   2.514   1.299 -0.7143 -0.0889  0.5255
10247TIP3    H152156   0.564   2.566   1.219 -0.3661 -0.3775  0.3405
10247TIP3    H252157   0.525   2.430   1.271  2.7096 -1.4721 -0.1375
10248TIP3   OH252158   2.693   3.001   5.037 -0.2170  0.4652 -0.7312
10248TIP3    H152159   2.717   3.093   5.026  0.6025  0.3891  0.2878
10248TIP3    H252160   2.630   2.984   4.968  2.2317  0.8676 -3.1624
10249TIP3   OH252161   4.376   5.066   5.245 -0.4255  0.0369 -0.0287
10249TIP3    H152162   4.371   5.005   5.318 -0.5453  0.1160  0.0288
10249TIP3    H252163   4.396   5.011   5.169  0.1285  0.0069  0.1337
10250TIP3   OH252164   2.062   0.397  13.366 -0.1196  0.2614  0.8706
10250TIP3    H152165   2.129   0.435  13.423 -0.4136  0.3166  1.1804
10250TIP3    H252166   2.015   0.473  13.331 -0.8450  0.1808  1.6569
10251TIP3   OH252167   5.967   5.475  11.561 -0.6805 -0.2777 -0.2812
10251TIP3    H152168   5.998   5.445  11.647  1.6786  0.7636 -0.7574
10251TIP3    H252169   5.899   5.411  11.537  0.7667 -2.3380  0.9762
10252TIP3   OH252170   3.426   4.867  14.610 -0.5774 -0.1723 -0.2686
10252TIP3    H152171   3.446   4.960  14.602 -0.4470 -0.1805 -0.0248
10252TIP3    H252172   3.503   4.828  14.651 -0.5967 -0.4031 -0.4486
10253TIP3   OH252173   1.098   6.777  12.237  0.1103  0.4103  0.0896
10253TIP3    H152174   1.188   6.799  12.262  0.3998 -0.4543 -0.1709
10253TIP3    H252175   1.071   6.851  12.182  0.8245  0.4566 -0.2151
10254TIP3   OH252176   3.909   6.175  16.046 -0.1383  0.2231  0.5381
10254TIP3    H152177   3.815   6.167  16.033 -0.0201 -0.3923  0.0271
10254TIP3    H252178   3.942   6.207  15.962  0.1222  0.3069  0.6726
10255TIP3   OH252179   4.896   4.259   1.243  0.0945 -0.2599  0.1291
10255TIP3    H152180   4.897   4.316   1.319  1.0493  1.8566 -1.4092
10255TIP3    H252181   4.842   4.184   1.269 -1.8250  1.6860  1.9623
10256TIP3   OH252182   3.771   1.510  12.324  0.0386 -0.3013 -0.1523
10256TIP3    H152183   3.767   1.562  12.243  2.1021  0.4776  0.2319
10256TIP3    H252184   3.776   1.575  12.394  0.9246 -1.0076  0.4443
10257TIP3   OH252185   1.934   3.527  11.980 -0.1467  0.5028  0.2904
10257TIP3    H152186   1.842   3.534  12.006  0.0175  0.9542  0.7504
10257TIP3    H252187   1.981   3.577  12.046  0.3909  0.6368 -0.1973
10258TIP3   OH252188   2.696   1.128  13.413  0.7561 -0.6305 -0.0332
10258TIP3    H152189   2.709   1.210  13.461  1.0309 -0.3749 -0.5393
10258TIP3    H252190   2.615   1.092  13.448  1.7858 -1.2568  1.7746
10259TIP3   OH252191   3.115   6.179  16.716 -0.5278  0.5270 -0.0282
10259TIP3    H152192   3.054   6.160  16.645 -0.6577  0.9312 -0.0269
10259TIP3    H252193   3.114   6.275  16.724 -0.5317  0.4848  0.5290
10260TIP3   OH252194   2.799   0.275  14.278  0.1752 -0.0441 -0.7762
10260TIP3    H152195   2.806   0.367  14.252  1.4926  0.0132 -0.2133
10260TIP3    H252196   2.856   0.228  14.216 -0.3380 -0.4645 -0.9380
10261TIP3   OH252197   5.090   1.514   2.139 -0.1572  0.1810  0.4892
10261TIP3    H152198   5.040   1.433   2.129 -1.8636  1.2052  0.5025
10261TIP3    H252199   5.080   1.558   2.054 -0.9149  1.3059  1.1631
10262TIP3   OH252200   4.777   3.731  12.960  0.2282  0.1562  0.0554
10262TIP3    H152201   4.778   3.783  13.040  1.1208 -1.7683  1.3357
10262TIP3    H252202   4.869   3.717  12.940  0.0229  1.6362 -2.0005
10263TIP3   OH252203   4.818   3.620  14.371  0.4111 -0.1087 -0.1483
10263TIP3    H152204   4.767   3.575  14.304 -0.2071  1.7554 -0.9581
10263TIP3    H252205   4.895   3.653  14.325  0.7879 -0.2163  0.4034
10264TIP3   OH252206   2.258   4.276   5.605  0.3867  0.5147  0.0869
10264TIP3    H152207   2.263   4.256   5.512  0.5766  1.0334 -0.0163
10264TIP3    H252208   2.349   4.269   5.636  0.1397 -0.9849  0.5171
10265TIP3   OH252209   3.819   0.139   2.821 -0.0733  0.3789 -0.0202
10265TIP3    H152210   3.789   0.095   2.742 -1.5581  0.2695  0.5863
10265TIP3    H252211   3.908   0.106   2.835 -0.0417 -0.0919 -1.2667
10266TIP3   OH252212   3.757   3.398  11.981 -0.0785  0.3837 -0.2515
10266TIP3    H152213   3.704   3.440  12.049 -2.5503 -0.8342 -1.3740
10266TIP3    H252214   3.816   3.467  11.949 -1.0723  1.7930  0.9146
10267TIP3   OH252215   6.633   0.357  13.263  0.2272 -0.2116  0.2976
10267TIP3    H152216   6.626   0.288  13.329 -1.3551 -0.3900 -0.0470
10267TIP3    H252217   6.618   0.313  13.180  0.4790  0.3256 -0.0392
10268TIP3   OH252218   4.310   6.277  12.870  0.2187  0.1679 -0.3394
10268TIP3    H152219   4.234   6.293  12.815  1.0008 -0.2666 -1.5635
10268TIP3    H252220   4.323   6.182  12.867  1.0266  0.2780 -0.4369
10269TIP3   OH252221   6.478   0.904  16.524 -0.5343  0.5905 -0.3452
10269TIP3    H152222   6.565   0.877  16.496  0.1899  1.3236  1.1239
10269TIP3    H252223   6.459   0.983  16.473 -0.6955 -0.0145 -1.2449
10270TIP3   OH252224   0.578   5.163   3.066 -0.0112 -0.0657  0.4439
10270TIP3    H152225   0.622   5.078   3.074  0.4082  0.2475  1.5264
10270TIP3    H252226   0.611   5.199   2.984 -0.7205 -1.2485 -0.3792
10271TIP3   OH252227   2.953   4.496  12.128  0.3495  0.6968  0.1538
10271TIP3    H152228   2.974   4.402  12.133 -1.0177  0.2059 -2.4831
10271TIP3    H252229   2.858   4.499  12.116  0.5293  2.3723 -0.9731
10272TIP3   OH252230   4.481   0.580   5.264 -0.3492  0.1280  0.3564
10272TIP3    H152231   4.548   0.566   5.330  0.8526 -0.5642 -0.9712
10272TIP3    H252232   4.403   0.538   5.300 -0.1344  1.1031  1.9959
10273TIP3   OH252233   4.047   5.496   4.091 -0.1155  0.2288  0.5462
10273TIP3    H152234   4.017   5.410   4.063  0.8737  0.2695 -0.6721
10273TIP3    H252235   4.087   5.481   4.177 -0.1893 -0.4840  0.4592
10274TIP3   OH252236   1.462   1.069  13.243 -0.2585  0.5056  0.0083
10274TIP3    H152237   1.528   1.045  13.178 -0.1347 -0.7577  0.5720
10274TIP3    H252238   1.427   1.153  13.213  2.6302  1.9318  0.4555
10275TIP3   OH252239   0.383   2.744  13.364  0.1362  0.0620 -0.4075
10275TIP3    H152240   0.442   2.748  13.440  0.5814  2.5645 -0.8645
10275TIP3    H252241   0.357   2.835  13.349 -2.8254 -0.8440 -1.0327
10276TIP3   OH252242   0.589   6.442  15.397 -0.4118 -0.1376 -0.4427
10276TIP3    H152243   0.595   6.365  15.341 -0.3930 -0.4040 -0.0805
10276TIP3    H252244   0.496   6.465  15.396 -0.1424  0.9663 -2.0352
10277TIP3   OH252245   5.681   5.716  11.089  0.1786 -0.3959 -0.0476
10277TIP3    H152246   5.594   5.734  11.054  0.0414  0.3684  0.6696
10277TIP3    H252247   5.723   5.662  11.022 -1.0408 -1.2426 -0.1358
10278TIP3   OH252248   1.988   0.038   2.733 -0.2966  0.9453 -0.5902
10278TIP3    H152249   1.954   0.025   2.645  1.5822  0.6905 -1.3109
10278TIP3    H252250   1.920   0.004   2.791 -0.7625 -0.5692 -2.0104
10279TIP3   OH252251   0.085   1.626   2.576  0.0724 -0.0215  0.2550
10279TIP3    H152252   0.060   1.643   2.667 -2.4039  1.6634 -0.6786
10279TIP3    H252253   0.058   1.536   2.561  0.3475 -0.2610  1.1402
10280TIP3   OH252254   6.106   5.071  15.238  0.5215 -0.4532 -0.1885
10280TIP3    H152255   6.072   5.043  15.323 -0.4085  1.6555  0.1900
10280TIP3    H252256   6.201   5.078  15.250  0.5466 -1.5601  0.2414
10281TIP3   OH252257   1.119   6.054  14.997  0.0232 -0.2612  0.2897
10281TIP3    H152258   1.115   5.979  14.937  2.4956 -0.5470  0.4264
10281TIP3    H252259   1.213   6.063  15.017 -0.6241  0.7054  3.0037
10282TIP3   OH252260   3.642   4.693   3.688  0.1135 -0.5817 -0.1176
10282TIP3    H152261   3.729   4.717   3.719  0.3077 -1.2798 -0.1015
10282TIP3    H252262   3.634   4.736   3.602  0.5076 -0.5896 -0.1577
10283TIP3   OH252263   0.655   3.801   4.311  0.5159  0.1649  0.0717
10283TIP3    H152264   0.629   3.729   4.369 -2.7747  1.0561 -0.2332
10283TIP3    H252265   0.683   3.757   4.231 -0.5246 -0.8445  0.2416
10284TIP3   OH252266   5.813   3.877  13.596  0.1380 -0.0520 -0.5059
10284TIP3    H152267   5.782   3.798  13.641  2.2336 -0.4659  0.2893
10284TIP3    H252268   5.903   3.887  13.627 -0.0879  2.6156 -0.6656
10285TIP3   OH252269   3.217   2.267  11.014  0.3634 -0.3460 -0.3576
10285TIP3    H152270   3.250   2.347  11.055  0.1745  0.0282 -0.9306
10285TIP3    H252271   3.223   2.284  10.920 -1.1508 -0.3947 -0.4719
10286TIP3   OH252272   0.140   0.880   1.451 -0.8966  0.6265  0.2553
10286TIP3    H152273   0.229   0.889   1.486 -0.7456 -0.4012  0.1526
10286TIP3    H252274   0.101   0.811   1.504 -1.7256  1.2524  0.4669
10287TIP3   OH252275   5.169   3.398   5.515  0.2003  0.2238  0.1543
10287TIP3    H152276   5.258   3.425   5.492  0.6819  0.1485  1.9039
10287TIP3    H252277   5.176   3.305   5.537 -0.4256  0.0753 -0.2407
10288TIP3   OH252278   0.895   6.460  15.601 -0.1661  0.3423 -0.6787
10288TIP3    H152279   0.907   6.452  15.506 -2.4514 -3.0774 -0.7843
10288TIP3    H252280   0.813   6.508  15.611 -0.7742 -0.7155 -0.4980
10289TIP3   OH252281   1.239   1.764   3.738 -0.0333  0.8919 -0.2987
10289TIP3    H152282   1.271   1.746   3.650 -0.4020  0.4395 -0.3440
10289TIP3    H252283   1.306   1.728   3.796 -0.0676  0.6761 -0.3929
10290TIP3   OH252284   6.768   1.241  16.707  0.0327  0.7979 -0.5919
10290TIP3    H152285   6.716   1.233  16.787  2.7455 -2.0960  0.9932
10290TIP3    H252286   6.846   1.291  16.734  0.6360  0.4029 -1.5847
10291TIP3   OH252287   0.172   2.137   1.504  0.3517  0.7393 -0.5391
10291TIP3    H152288   0.244   2.079   1.480 -0.5257 -0.8767  0.6414
10291TIP3    H252289   0.096   2.079   1.512 -0.8083  2.2198 -0.4670
10292TIP3   OH252290   3.072   5.603  15.025  0.4707  0.2033  0.2407
10292TIP3    H152291   3.010   5.559  15.084 -0.7746  0.9909 -0.4423
10292TIP3    H252292   3.050   5.696  15.035  1.0068  0.4205 -0.6271
10293TIP3   OH252293   4.448   1.984   0.211  0.0307  0.3186 -0.2333
10293TIP3    H152294   4.476   1.991   0.302 -1.4016 -1.4519  0.3840
10293TIP3    H252295   4.522   2.018   0.160  1.7855 -0.8204  1.4810
10294TIP3   OH252296   1.761   0.395   1.061 -0.5854  0.1621  0.0320
10294TIP3    H152297   1.683   0.402   1.116  0.5827  0.1110  1.7144
10294TIP3    H252298   1.823   0.456   1.100  1.4901 -2.4368  0.8920
10295TIP3   OH252299   2.100   0.284  15.346 -0.0603  0.8839  0.2880
10295TIP3    H152300   2.097   0.275  15.441  1.2319  0.7956  0.3220
10295TIP3    H252301   2.120   0.376  15.330  0.4613  0.7449  0.1188
10296TIP3   OH252302   6.458   4.788  11.297 -0.3355  0.0908  0.3516
10296TIP3    H152303   6.430   4.704  11.261 -2.0596  0.9124 -0.3013
10296TIP3    H252304   6.406   4.799  11.377 -0.2575  0.6201  0.3346
10297TIP3   OH252305   4.093   0.795  13.601  0.0095  0.0480  0.0152
10297TIP3    H152306   4.184   0.766  13.604  0.4854  1.3913 -0.6991
10297TIP3    H252307   4.065   0.777  13.511 -0.2873  0.0473  0.1069
10298TIP3   OH252308   4.462   1.914  11.835  0.0339 -0.3476  0.1296
10298TIP3    H152309   4.471   1.908  11.930 -0.1607  1.4256  0.2809
10298TIP3    H252310   4.491   2.003  11.814  0.1643 -0.7576 -1.4807
10299TIP3   OH252311   1.014   0.838   4.722 -0.3444  0.2855 -0.1466
10299TIP3    H152312   0.961   0.860   4.646 -0.3796  1.0406  0.0991
10299TIP3    H252313   1.049   0.922   4.753  0.8178 -0.1717 -0.1778
10300TIP3   OH252314   1.927   6.705   1.740 -0.5156 -0.2128  0.1556
10300TIP3    H152315   1.842   6.661   1.737 -0.6181 -0.0978  1.3268
10300TIP3    H252316   1.939   6.728   1.832  0.9592 -0.5875  0.0718
10301TIP3   OH252317   5.195   4.263   3.818  0.5269  0.3882  0.7675
10301TIP3    H152318   5.243   4.185   3.788 -0.0876 -0.3757  1.7391
10301TIP3    H252319   5.196   4.256   3.914 -0.0291  1.2815  0.8420
10302TIP3   OH252320   1.999   1.243   1.170 -0.3168  0.7467  0.1715
10302TIP3    H152321   2.039   1.262   1.085 -4.0649  1.1663 -1.5691
10302TIP3    H252322   2.000   1.327   1.215  0.1559  0.8824 -0.0781
10303TIP3   OH252323   5.778   6.304  14.801 -0.2698  0.1936  0.6382
10303TIP3    H152324   5.747   6.216  14.780 -0.7262  0.6554 -0.6498
10303TIP3    H252325   5.810   6.297  14.892 -0.1906 -1.3178  0.5079
10304TIP3   OH252326   3.583   5.356  16.765  0.0139  0.2075  0.4627
10304TIP3    H152327   3.658   5.332  16.819 -0.0163 -1.4473 -0.2001
10304TIP3    H252328   3.564   5.446  16.789  1.4665  0.2524  1.5048
10305TIP3   OH252329   2.356   0.540   3.385 -0.2743 -0.0686 -0.3159
10305TIP3    H152330   2.333   0.466   3.328 -2.2951 -0.2476  0.7020
10305TIP3    H252331   2.391   0.607   3.324  2.8517 -2.2795 -1.0962
10306TIP3   OH252332   0.868   5.809  14.517 -0.5120 -0.4480 -0.4033
10306TIP3    H152333   0.824   5.729  14.491  1.5677 -1.3172 -1.3351
10306TIP3    H252334   0.881   5.800  14.612 -0.8750 -0.9023 -0.3964
10307TIP3   OH252335   3.279   5.597  15.891 -0.2046  0.5403 -0.2415
10307TIP3    H152336   3.252   5.674  15.941 -3.1312 -0.9773  0.6490
10307TIP3    H252337   3.200   5.570  15.844  1.8411  0.5394 -3.9549
10308TIP3   OH252338   3.213   1.988   5.642  0.5113 -0.4681  0.1914
10308TIP3    H152339   3.255   2.068   5.673 -2.7867  1.0697  0.8787
10308TIP3    H252340   3.186   1.942   5.721 -0.1406 -0.8360 -0.2346
10309TIP3   OH252341   2.606   1.070   5.449  0.0694  0.3140 -0.3677
10309TIP3    H152342   2.681   1.129   5.438 -0.6476  1.6359  1.5062
10309TIP3    H252343   2.532   1.128   5.462 -0.7288 -0.9910  1.1006
10310TIP3   OH252344   5.804   6.347   2.367  0.0448  0.2890 -0.2016
10310TIP3    H152345   5.876   6.397   2.328 -1.0708  2.6566  0.6983
10310TIP3    H252346   5.808   6.366   2.460 -1.3773 -0.0361 -0.0555
10311TIP3   OH252347   0.452   5.604  16.939 -0.1174  0.5631  0.2262
10311TIP3    H152348   0.510   5.585  16.865 -1.1598  1.5164 -0.8489
10311TIP3    H252349   0.417   5.519  16.964  2.3461 -0.1608  1.4277
10312TIP3   OH252350   6.477   2.258   0.506 -0.0717  0.3388 -0.5407
10312TIP3    H152351   6.530   2.181   0.484  1.2060  1.3486 -1.0338
10312TIP3    H252352   6.390   2.222   0.525  0.7244 -1.3077  0.0581
10313TIP3   OH252353   4.900   4.393   3.449 -0.4091  0.2609  0.2360
10313TIP3    H152354   4.986   4.366   3.481 -0.1873 -0.3309 -0.8248
10313TIP3    H252355   4.869   4.458   3.512  1.3568  1.3903 -0.0319
10314TIP3   OH252356   5.387   6.173  15.516 -0.6750  0.6779  0.6600
10314TIP3    H152357   5.318   6.208  15.461 -0.0837  1.4875  0.4242
10314TIP3    H252358   5.349   6.096  15.557 -1.5233  0.7913  0.0842
10315TIP3   OH252359   1.144   2.882   1.641 -0.3410  0.6538  0.0042
10315TIP3    H152360   1.236   2.889   1.618 -0.4502 -1.1495 -1.0917
10315TIP3    H252361   1.098   2.929   1.571 -0.2638  1.4134  0.4632
10316TIP3   OH252362   3.175   4.217   0.321 -0.0179  0.2043  0.3378
10316TIP3    H152363   3.174   4.271   0.242 -1.5156 -1.0680 -0.5259
10316TIP3    H252364   3.193   4.129   0.290  1.5816  0.0459  1.6593
10317TIP3   OH252365   2.054   3.615   0.522  0.3506 -0.5994 -0.4325
10317TIP3    H152366   2.084   3.630   0.611 -0.8334 -1.0734  0.0465
10317TIP3    H252367   1.961   3.635   0.523  0.3483 -0.4833 -1.5973
10318TIP3   OH252368   3.735   0.021  17.115  0.3913  0.3889  0.3522
10318TIP3    H152369   3.810   0.080  17.117  0.4192  0.3749 -0.4209
10318TIP3    H252370   3.674   0.059  17.179  1.9623 -0.8514  2.6691
10319TIP3   OH252371   0.416   5.171  13.482  0.0689  0.1004  0.5665
10319TIP3    H152372   0.355   5.239  13.513 -1.3951 -0.9544  0.0468
10319TIP3    H252373   0.466   5.147  13.560  1.7663  2.9466  0.4022
10320TIP3   OH252374   3.228   5.918   0.345  0.0990 -0.0335  0.4041
10320TIP3    H152375   3.151   5.896   0.294 -0.2127  1.3002  0.2687
10320TIP3    H252376   3.301   5.914   0.283 -0.1015  0.3319  0.1407
10321TIP3   OH252377   2.921   5.702  14.392  0.5263 -0.0165 -0.6429
10321TIP3    H152378   2.909   5.795  14.373  1.2988 -0.0310 -1.2700
10321TIP3    H252379   2.874   5.658  14.322 -2.2237 -0.1293  1.2373
10322TIP3   OH252380   2.821   6.367   5.048  0.1574  0.0829 -0.4554
10322TIP3    H152381   2.868   6.296   5.005  1.1171 -0.3920  1.3493
10322TIP3    H252382   2.889   6.429   5.074 -0.5366  0.9792 -0.7152
10323TIP3   OH252383   0.416   0.423   1.472 -0.0075 -0.2236 -0.1410
10323TIP3    H152384   0.357   0.465   1.535  0.0606 -0.7651  0.2891
10323TIP3    H252385   0.480   0.491   1.451  1.6996 -0.9158  2.6070
10324TIP3   OH252386   3.514   2.320  11.695 -0.0137  0.0139  0.1187
10324TIP3    H152387   3.532   2.406  11.732  1.3392  0.1379 -0.7980
10324TIP3    H252388   3.574   2.312  11.621 -1.6019 -0.8618 -1.1160
10325TIP3   OH252389   6.777   5.095   2.174  0.1337  0.1261 -0.1480
10325TIP3    H152390   6.855   5.041   2.161 -0.7306 -1.8651  2.4376
10325TIP3    H252391   6.724   5.080   2.096 -0.4319 -3.4551  0.8325
10326TIP3   OH252392   5.203   6.572  13.609 -0.0378 -0.5186  0.1396
10326TIP3    H152393   5.234   6.590  13.520  0.0579 -0.5115  0.1747
10326TIP3    H252394   5.128   6.630  13.621  0.8588  0.5606  0.6074
10327TIP3   OH252395   4.850   2.853  11.887 -0.6208 -0.1814  0.2183
10327TIP3    H152396   4.919   2.842  11.821  0.0376  2.4115  0.4268
10327TIP3    H252397   4.771   2.820  11.844 -0.0102  0.5401 -1.5337
10328TIP3   OH252398   5.389   1.862  13.179  0.4968  0.6260 -0.0625
10328TIP3    H152399   5.347   1.941  13.214  0.3303  1.3885 -1.9230
10328TIP3    H252400   5.318   1.798  13.174  0.3764  0.7254  0.3318
10329TIP3   OH252401   1.795   6.253  16.293 -0.8087 -0.1921 -0.2831
10329TIP3    H152402   1.847   6.173  16.287 -0.5534  0.0330 -1.2549
10329TIP3    H252403   1.802   6.280  16.384  0.7544 -0.1996 -0.3843
10330TIP3   OH252404   0.728   0.562   1.063 -0.1089  0.1796  0.0560
10330TIP3    H152405   0.793   0.552   1.133  0.3400 -1.8216 -0.6193
10330TIP3    H252406   0.721   0.657   1.051  1.2110  0.4923  1.4995
10331TIP3   OH252407   2.157   5.412   6.075  0.6516 -0.0004  0.0483
10331TIP3    H152408   2.146   5.469   5.999  0.5040 -1.0787 -0.7616
10331TIP3    H252409   2.077   5.425   6.127  0.6952  0.6510 -0.0480
10332TIP3   OH252410   4.134   6.020   4.289  0.5526 -0.2274  0.6203
10332TIP3    H152411   4.100   5.931   4.289 -1.5948  0.5623 -0.5774
10332TIP3    H252412   4.130   6.048   4.381  1.8702 -1.5694  1.1070
10333TIP3   OH252413   2.646   2.562   5.334  0.0015 -0.4310  0.0228
10333TIP3    H152414   2.617   2.537   5.422 -1.4761  1.9418  0.2517
10333TIP3    H252415   2.594   2.639   5.313  2.2025  0.5885 -1.8799
10334TIP3   OH252416   4.360   5.898   2.468  0.2148  0.0876 -0.6204
10334TIP3    H152417   4.320   5.954   2.534 -0.5936 -0.1567 -0.8879
10334TIP3    H252418   4.357   5.950   2.387 -0.3650 -0.2588 -0.8283
10335TIP3   OH252419   1.007   4.178  12.038 -0.3805 -0.2798 -0.3876
10335TIP3    H152420   1.049   4.205  12.120  1.6259  1.8440 -2.0554
10335TIP3    H252421   1.005   4.083  12.042  2.0491 -0.3047  0.9906
10336TIP3   OH252422   5.567   1.871   3.791  0.2248  0.7589  0.3597
10336TIP3    H152423   5.497   1.811   3.766  2.1245 -1.7918  0.9253
10336TIP3    H252424   5.617   1.885   3.710  0.2291  0.9402  0.3941
10337TIP3   OH252425   2.416   6.759  17.074 -0.1805  0.1977  0.1162
10337TIP3    H152426   2.331   6.746  17.032  1.0342  0.1233 -2.4339
10337TIP3    H252427   2.461   6.675  17.064 -0.1422 -0.0607  2.2804
10338TIP3   OH252428   0.802   0.595   0.251 -0.4668 -0.0648 -0.0960
10338TIP3    H152429   0.737   0.529   0.275  0.5468 -0.1368  2.6581
10338TIP3    H252430   0.797   0.660   0.322  1.2802  0.7878 -0.7298
10339TIP3   OH252431   5.167   5.128  11.217  0.7397  0.0471  0.5681
10339TIP3    H152432   5.257   5.117  11.247  0.9905  0.0647 -0.1579
10339TIP3    H252433   5.160   5.070  11.141  0.5035  0.9645 -0.1228
10340TIP3   OH252434   1.520   2.735  15.324 -0.1448  0.1295  0.1247
10340TIP3    H152435   1.598   2.767  15.369 -0.2181  0.1786  0.2164
10340TIP3    H252436   1.466   2.697  15.393 -0.8941  1.4726  0.2933
10341TIP3   OH252437   1.689   4.846   4.631 -0.6140  0.5152 -0.4839
10341TIP3    H152438   1.758   4.780   4.620  0.1766  1.0928  0.9065
10341TIP3    H252439   1.727   4.926   4.594 -1.5533  0.2286 -2.1187
10342TIP3   OH252440   4.990   6.418   2.051  0.1666  0.7851 -0.2217
10342TIP3    H152441   5.049   6.477   2.004  0.1669  1.4233  0.5689
10342TIP3    H252442   4.999   6.334   2.006  2.3519  0.6408  0.3864
10343TIP3   OH252443   0.173   0.722  15.575  0.4411  0.6624 -0.0900
10343TIP3    H152444   0.095   0.673  15.549  1.6188 -1.9577  1.1664
10343TIP3    H252445   0.204   0.763  15.494 -0.4435 -0.8464 -1.2149
10344TIP3   OH252446   6.229   2.636   0.776  0.0083 -0.2711  0.0172
10344TIP3    H152447   6.246   2.707   0.714 -0.4929  1.1163  1.4318
10344TIP3    H252448   6.294   2.569   0.755  2.0353  1.5832  0.1706
10345TIP3   OH252449   0.610   0.285  14.921 -0.3330  0.2742 -0.0374
10345TIP3    H152450   0.678   0.309  14.984 -1.5293 -1.2046  1.8828
10345TIP3    H252451   0.578   0.368  14.888 -0.1658  1.1202  1.8547
10346TIP3   OH252452   5.339   1.250   3.619  0.4333 -0.6825  0.2221
10346TIP3    H152453   5.350   1.306   3.696  0.8217  0.4579 -0.6537
10346TIP3    H252454   5.397   1.175   3.636  1.5477  0.2114  0.4439
10347TIP3   OH252455   5.630   1.618   0.940 -0.8213  0.5256  0.4078
10347TIP3    H152456   5.558   1.567   0.904 -0.2867  1.4389 -2.0509
10347TIP3    H252457   5.624   1.605   1.035 -1.4464 -3.0882 -0.0564
10348TIP3   OH252458   4.909   4.262  14.418 -0.1687 -0.1171  0.7497
10348TIP3    H152459   4.945   4.181  14.453  0.3704 -0.0584  0.3372
10348TIP3    H252460   4.982   4.324  14.419  0.2186 -0.4589 -1.5803
10349TIP3   OH252461   4.757   4.957  15.984 -0.4830  0.9723 -0.0241
10349TIP3    H152462   4.757   4.889  15.918 -0.2221  0.6349  0.3236
10349TIP3    H252463   4.810   4.922  16.056  1.2093  2.2859 -0.6006
10350TIP3   OH252464   5.067   4.502   2.208  0.5882  0.6143 -0.0851
10350TIP3    H152465   5.104   4.447   2.277 -0.4898 -1.0475 -0.8041
10350TIP3    H252466   4.983   4.462   2.188 -0.1696  2.4659 -0.7253
10351TIP3   OH252467   6.134   2.964   5.444  0.2595  0.4647  0.4675
10351TIP3    H152468   6.155   3.019   5.369  0.5131  0.5927  0.6312
10351TIP3    H252469   6.038   2.963   5.447  0.2412  2.2126  1.4097
10352TIP3   OH252470   1.348   1.547   0.604 -0.1259  0.0172 -0.3968
10352TIP3    H152471   1.311   1.547   0.693  0.3826  1.3918 -0.1801
10352TIP3    H252472   1.279   1.584   0.550 -0.4740 -0.9139 -0.6093
10353TIP3   OH252473   1.324   6.180   1.814 -0.1502  0.2115  0.5464
10353TIP3    H152474   1.356   6.109   1.757 -1.9516  0.7107 -1.1278
10353TIP3    H252475   1.313   6.138   1.900  0.6318 -1.0595  0.0458
10354TIP3   OH252476   2.453   2.130  14.333  0.4738 -0.7611 -0.4435
10354TIP3    H152477   2.501   2.115  14.251 -0.1056  0.2820 -1.0002
10354TIP3    H252478   2.493   2.210  14.368  0.5745 -1.0909  0.1831
10355TIP3   OH252479   4.512   3.022  16.914 -0.3497  0.6634 -0.2870
10355TIP3    H152480   4.491   3.065  16.831  0.6177  0.1415 -0.8264
10355TIP3    H252481   4.447   3.054  16.976 -0.5171  1.7813 -1.0274
10356TIP3   OH252482   4.487   6.104   4.867 -0.4078  0.0756 -0.6525
10356TIP3    H152483   4.566   6.104   4.812 -0.4234  2.0727 -0.7124
10356TIP3    H252484   4.481   6.014   4.900  1.4865 -0.2894 -1.2260
10357TIP3   OH252485   2.253   0.640  11.076 -0.1856  0.1820 -0.2376
10357TIP3    H152486   2.298   0.711  11.030 -0.5463 -0.0048 -0.8926
10357TIP3    H252487   2.225   0.678  11.159  1.6610  0.1485  0.4382
10358TIP3   OH252488   6.294   2.317  11.273  0.2668  0.1898 -0.2295
10358TIP3    H152489   6.349   2.395  11.286  2.1406 -0.6653 -2.7033
10358TIP3    H252490   6.246   2.334  11.192 -0.2431 -0.7042 -0.1215
10359TIP3   OH252491   0.139   3.364  13.802 -0.2876 -0.3143 -0.4073
10359TIP3    H152492   0.181   3.334  13.721  0.0868 -1.3813  0.1668
10359TIP3    H252493   0.072   3.298  13.820  0.4137 -0.7163  0.7749
10360TIP3   OH252494   5.866   3.788   3.183  0.0435 -0.2888  0.0143
10360TIP3    H152495   5.872   3.791   3.278 -0.5142  1.5344  0.0127
10360TIP3    H252496   5.829   3.702   3.164 -1.4870 -0.0102  1.5543
10361TIP3   OH252497   0.269   1.837  16.307  0.3461  0.4488 -0.0637
10361TIP3    H152498   0.277   1.769  16.373  0.7466 -1.4312 -2.0074
10361TIP3    H252499   0.303   1.916  16.350  0.5637 -0.7169  1.9705
10362TIP3   OH252500   0.487   6.323   1.090  0.4002  0.7282  0.6752
10362TIP3    H152501   0.462   6.383   1.020 -1.0281  0.9989  1.3845
10362TIP3    H252502   0.572   6.355   1.121  1.6581 -0.1464 -1.7360
10363TIP3   OH252503   3.080   2.216   5.539 -0.5723 -0.1595 -0.6058
10363TIP3    H152504   3.171   2.188   5.539 -1.4225 -3.0545 -1.6437
10363TIP3    H252505   3.053   2.210   5.631  0.5000  1.6397 -0.1333
10364TIP3   OH252506   4.455   6.035   1.169 -0.8603 -0.0252 -0.1398
10364TIP3    H152507   4.531   6.047   1.225 -0.7799  1.9132 -0.6132
10364TIP3    H252508   4.483   6.068   1.083 -2.6508  2.0728  0.0281
10365TIP3   OH252509   0.103   2.322  12.794 -0.2079 -0.1907 -0.3793
10365TIP3    H152510   0.174   2.372  12.835 -1.9023  1.0811  1.0993
10365TIP3    H252511   0.124   2.321  12.701  1.3986  0.7219 -0.0347
10366TIP3   OH252512   0.754   4.936  13.128 -0.1070  0.2113  0.2416
10366TIP3    H152513   0.743   5.017  13.176 -2.0154  1.6477 -2.5195
10366TIP3    H252514   0.669   4.892  13.133 -0.0410 -0.0811 -0.9902
10367TIP3   OH252515   5.995   0.965  14.070 -0.1590 -0.3045  0.0225
10367TIP3    H152516   6.003   0.912  14.149  0.2158 -0.3513 -0.0448
10367TIP3    H252517   6.072   0.943  14.018 -1.4557 -1.8476 -1.3131
10368TIP3   OH252518   5.344   1.645   3.618 -0.0499  0.9234  0.1114
10368TIP3    H152519   5.278   1.706   3.649  0.1452  0.7484  0.8792
10368TIP3    H252520   5.364   1.674   3.529  0.7596  2.5813  0.8210
10369TIP3   OH252521   6.164   4.737   0.908  0.3023  0.0967 -0.5874
10369TIP3    H152522   6.216   4.662   0.939 -0.6950 -1.2534 -2.1192
10369TIP3    H252523   6.196   4.811   0.960 -0.4288 -1.8244  2.7497
10370TIP3   OH252524   0.026   4.311  16.412 -0.0023 -0.1052  0.0993
10370TIP3    H152525   0.042   4.398  16.376  1.1688 -0.3571 -0.0391
10370TIP3    H252526   0.086   4.305  16.487 -0.7779 -0.4271  0.6962
10371TIP3   OH252527   1.971   5.453  15.285  0.0154 -0.0572 -0.4189
10371TIP3    H152528   1.885   5.474  15.249  0.4991  0.5142 -1.2359
10371TIP3    H252529   1.969   5.489  15.374 -0.6663 -0.2531 -0.3490
10372TIP3   OH252530   5.966   6.378   6.122 -0.1307 -0.4374  0.9199
10372TIP3    H152531   5.882   6.414   6.151  0.7258 -0.6160  3.7660
10372TIP3    H252532   5.957   6.370   6.027 -3.0963  0.1428  1.1031
10373TIP3   OH252533   3.648   1.338  11.819  0.0017  0.1092  0.2174
10373TIP3    H152534   3.696   1.370  11.895 -1.9482 -0.7771  1.8932
10373TIP3    H252535   3.715   1.315  11.755  1.8898 -1.9960  2.8318
10374TIP3   OH252536   2.208   6.458   3.461  0.2478  0.4216 -0.7814
10374TIP3    H152537   2.198   6.425   3.371 -1.3391  1.9666 -1.1970
10374TIP3    H252538   2.278   6.524   3.455  0.4855  0.1721 -0.7756
10375TIP3   OH252539   1.838   1.598   5.321  0.0687 -0.1007 -0.7908
10375TIP3    H152540   1.891   1.586   5.399  0.1202 -1.3532 -1.0094
10375TIP3    H252541   1.802   1.686   5.329  0.7355  0.0764  0.2354
10376TIP3   OH252542   5.349   2.217   6.443  0.3706 -0.0706  0.1244
10376TIP3    H152543   5.324   2.205   6.352  3.3325 -1.5398 -0.5517
10376TIP3    H252544   5.357   2.312   6.454 -2.2983  0.2589 -0.4409
10377TIP3   OH252545   4.240   6.663   4.323 -0.4411  0.1598 -0.4306
10377TIP3    H152546   4.241   6.591   4.385 -0.3876  0.3695 -0.1883
10377TIP3    H252547   4.168   6.642   4.263  0.6471 -0.9590 -1.3783
10378TIP3   OH252548   0.521   3.899   0.809 -0.4780 -0.0090 -0.5459
10378TIP3    H152549   0.498   3.873   0.898  0.3228 -1.4034 -0.7473
10378TIP3    H252550   0.520   3.995   0.812  1.8051  0.0089  1.5606
10379TIP3   OH252551   5.465   4.652   4.623 -0.2105 -0.0246 -0.1412
10379TIP3    H152552   5.523   4.620   4.554  1.7508 -0.5063  1.6841
10379TIP3    H252553   5.377   4.626   4.595  0.8796 -3.0929 -0.8609
10380TIP3   OH252554   5.127   4.648   3.743  0.1973  0.2104 -0.5956
10380TIP3    H152555   5.055   4.628   3.683 -0.6989 -1.5821  1.0320
10380TIP3    H252556   5.085   4.683   3.821  1.3376  2.2413 -0.8706
10381TIP3   OH252557   4.993   6.460  11.698  0.3489 -0.2085  0.4693
10381TIP3    H152558   4.919   6.444  11.639 -0.1342 -0.0229  1.0237
10381TIP3    H252559   4.957   6.514  11.768  0.6919 -1.2527  1.4604
10382TIP3   OH252560   5.404   3.205  14.673  0.0573  0.7083  0.1673
10382TIP3    H152561   5.349   3.275  14.707  0.3054  0.9332  0.1041
10382TIP3    H252562   5.357   3.124  14.694  0.1764  0.8513  0.9929
10383TIP3   OH252563   4.365   2.502  13.564 -0.2013  0.0421 -0.0345
10383TIP3    H152564   4.332   2.459  13.643 -1.8305 -2.1439 -1.8347
10383TIP3    H252565   4.339   2.593  13.574 -1.6860 -0.5020  1.3084
10384TIP3   OH252566   2.611   3.405   5.258  0.1385 -0.1141  0.1151
10384TIP3    H152567   2.680   3.470   5.266 -1.1129  1.8889 -3.8137
10384TIP3    H252568   2.632   3.357   5.178 -1.0486 -1.9567  0.8603
10385TIP3   OH252569   1.551   4.103  10.871 -0.3367  0.3043 -0.2744
10385TIP3    H152570   1.644   4.097  10.851 -0.7812 -1.2376 -1.9450
10385TIP3    H252571   1.510   4.036  10.817 -2.2688  0.0387  1.4755
10386TIP3   OH252572   5.820   4.379  11.201 -0.2693 -0.3566 -0.2178
10386TIP3    H152573   5.889   4.434  11.238 -2.2812  1.8476  0.4051
10386TIP3    H252574   5.770   4.437  11.144 -3.0154 -1.2273  1.1568
10387TIP3   OH252575   5.953   6.749   2.720  0.0289 -0.1233 -0.2803
10387TIP3    H152576   5.905   6.781   2.644 -0.9048 -1.8591 -0.4425
10387TIP3    H252577   6.020   6.816   2.737 -1.5084  1.5963 -0.9326
10388TIP3   OH252578   1.913   1.128  10.544  0.0983 -0.5791  0.7391
10388TIP3    H152579   1.855   1.203  10.557  0.8838  0.6678 -2.4509
10388TIP3    H252580   1.997   1.166  10.520 -0.4638 -2.3473 -4.8821
10389TIP3   OH252581   6.446   5.238   0.882 -0.0954  0.6327  0.1054
10389TIP3    H152582   6.477   5.301   0.817 -0.5426 -0.2651 -0.9926
10389TIP3    H252583   6.408   5.167   0.831  1.8210 -1.2949  1.2437
10390TIP3   OH252584   5.144   5.542   3.989 -0.6994  0.0433  0.4849
10390TIP3    H152585   5.233   5.562   3.959 -0.8248 -0.9688 -0.6172
10390TIP3    H252586   5.156   5.472   4.053 -0.5984  0.8099  1.3084
10391TIP3   OH252587   5.308   5.569   1.815 -0.2916 -0.5585 -0.3676
10391TIP3    H152588   5.221   5.586   1.778 -0.1645  0.8066 -0.0322
10391TIP3    H252589   5.358   5.648   1.797  0.3863 -0.6895  0.9176
10392TIP3   OH252590   6.372   3.904  15.809  0.0184 -0.4903 -0.5940
10392TIP3    H152591   6.379   3.819  15.853 -2.0933  0.0835  0.9276
10392TIP3    H252592   6.404   3.967  15.873 -1.8371  0.2209 -0.3249
10393TIP3   OH252593   2.856   5.276  16.300 -0.9337  0.2303 -0.0382
10393TIP3    H152594   2.910   5.265  16.222  0.8244  1.7072  0.9234
10393TIP3    H252595   2.795   5.346  16.279 -1.6512 -0.5788 -0.6833
10394TIP3   OH252596   2.282   2.862   5.982 -0.3332  0.1312  0.4215
10394TIP3    H152597   2.352   2.905   5.933 -0.7649 -0.6695 -0.9370
10394TIP3    H252598   2.312   2.772   5.993 -0.9660 -0.1141  0.1860
10395TIP3   OH252599   0.763   4.074   6.272 -0.2787  0.7830 -0.1442
10395TIP3    H152600   0.685   4.062   6.327 -0.8726  1.7308 -0.7654
10395TIP3    H252601   0.747   4.156   6.226  0.3640  0.1591 -1.4943
10396TIP3   OH252602   1.870   4.071  16.058 -0.4191  0.1814  0.4449
10396TIP3    H152603   1.801   4.085  16.122  1.0679  0.8271  1.9388
10396TIP3    H252604   1.830   4.096  15.974 -1.8888  0.8479  1.3225
10397TIP3   OH252605   4.848   6.019  11.013 -0.1726 -0.4382 -0.5048
10397TIP3    H152606   4.754   6.014  11.026 -0.1376  0.0567 -0.0103
10397TIP3    H252607   4.861   6.102  10.966  0.1188  0.1253  0.5485
10398TIP3   OH252608   0.403   2.850  14.664  0.1877 -0.0300  0.5798
10398TIP3    H152609   0.380   2.795  14.589 -2.2437  0.1398  1.1739
10398TIP3    H252610   0.484   2.895  14.637 -0.0895 -0.7508 -1.5192
10399TIP3   OH252611   5.044   5.971  11.179 -0.2566 -0.0970 -0.1357
10399TIP3    H152612   4.968   6.007  11.132  0.8683  0.1850 -1.7663
10399TIP3    H252613   5.036   5.876  11.168 -0.6794 -0.1012  0.1863
10400TIP3   OH252614   2.699   0.229  13.494  0.3452  0.1530 -0.6778
10400TIP3    H152615   2.748   0.310  13.511  0.6651 -0.5926  2.2728
10400TIP3    H252616   2.766   0.161  13.492 -0.3554 -0.6284  1.4886
10401TIP3   OH252617   6.686   2.857   3.906 -0.4288 -0.5538 -0.2022
10401TIP3    H152618   6.652   2.900   3.984  0.6150  0.8257 -0.4937
10401TIP3    H252619   6.615   2.799   3.877 -2.0525  1.3715 -0.1306
10402TIP3   OH252620   3.000   2.010   1.755  0.1868  0.2746 -0.0565
10402TIP3    H152621   2.920   2.051   1.789 -1.2624 -0.5076 -2.4052
10402TIP3    H252622   3.064   2.082   1.752 -1.1427  1.4571 -0.4487
10403TIP3   OH252623   2.339   3.098   3.405 -0.6428 -0.3290  0.2593
10403TIP3    H152624   2.245   3.085   3.392 -0.1751 -2.5433 -1.2074
10403TIP3    H252625   2.365   3.030   3.466  0.0271  0.2496  0.6309
10404TIP3   OH252626   4.778   6.537  14.475  0.1194 -0.1017 -0.4556
10404TIP3    H152627   4.757   6.520  14.383  1.7590  1.7129 -1.2035
10404TIP3    H252628   4.726   6.614  14.498 -0.0356 -0.3521  0.0610
10405TIP3   OH252629   5.575   5.134   4.808  0.6551  0.0228  0.2770
10405TIP3    H152630   5.665   5.139   4.839  0.8147 -2.1666  0.2025
10405TIP3    H252631   5.570   5.052   4.760 -1.6177 -0.3257  1.0479
10406TIP3   OH252632   2.584   4.417   1.489 -0.3392  0.7364 -0.2588
10406TIP3    H152633   2.504   4.431   1.539  0.9877  0.1361  2.0981
10406TIP3    H252634   2.563   4.344   1.430 -1.1731 -0.2624  1.2216
10407TIP3   OH252635   0.362   2.764   0.020 -0.5342  0.2792  0.4730
10407TIP3    H152636   0.311   2.838   0.054  0.4027  0.1165  2.2759
10407TIP3    H252637   0.393   2.794  -0.065 -1.6722  1.2756  0.3840
10408TIP3   OH252638   2.248   1.937   5.118  0.9967 -0.0162 -0.6289
10408TIP3    H152639   2.187   1.886   5.171  1.3548  0.1181 -0.0907
10408TIP3    H252640   2.253   2.022   5.161  1.7200 -0.0917 -0.5518
10409TIP3   OH252641   2.697   4.137  14.611 -0.0357 -0.0365  0.3486
10409TIP3    H152642   2.774   4.118  14.558 -0.2339  0.4511 -0.1171
10409TIP3    H252643   2.626   4.148  14.547 -0.8962 -2.3063  0.8500
10410TIP3   OH252644   3.949   2.297   4.448  0.3052 -0.5455  0.2095
10410TIP3    H152645   3.950   2.240   4.525  1.1561 -0.5832  0.1724
10410TIP3    H252646   4.001   2.251   4.382  1.0807  0.3109  0.2075
10411TIP3   OH252647   1.525   1.914   4.476  0.1671 -0.2071  0.0803
10411TIP3    H152648   1.570   1.980   4.423  0.1018 -0.6426 -0.5188
10411TIP3    H252649   1.453   1.963   4.517 -0.3942 -0.0779 -1.0323
10412TIP3   OH252650   2.970   5.997   1.743  0.1730 -0.0376  0.1244
10412TIP3    H152651   2.922   6.037   1.671 -0.3802 -2.8408 -1.1349
10412TIP3    H252652   3.062   6.008   1.721  0.0381  0.9168  0.0281
10413TIP3   OH252653   3.743   4.469  12.349  0.1172 -0.1498  0.3499
10413TIP3    H152654   3.786   4.517  12.277  0.6249 -1.9834 -0.5874
10413TIP3    H252655   3.706   4.392  12.307  0.3971 -1.2316  2.0700
10414TIP3   OH252656   3.101   0.543  14.813 -1.1044  0.8240 -0.0935
10414TIP3    H152657   3.165   0.614  14.810 -1.1051  0.7753 -1.3568
10414TIP3    H252658   3.152   0.464  14.797 -1.4160  0.7468 -0.7167
10415TIP3   OH252659   4.920   0.150   0.786  0.4734  0.3118  0.6859
10415TIP3    H152660   4.868   0.083   0.742 -1.9498  2.5677 -0.0277
10415TIP3    H252661   4.928   0.119   0.877 -0.8282 -0.7934  0.4334
10416TIP3   OH252662   5.874   5.723  14.218 -0.2569  0.0604 -0.0366
10416TIP3    H152663   5.786   5.693  14.240 -0.7811  1.1700 -0.5929
10416TIP3    H252664   5.862   5.812  14.185  1.0956  0.2970  0.0690
10417TIP3   OH252665   6.500   1.536   2.084 -0.1599 -0.3265 -0.5517
10417TIP3    H152666   6.453   1.453   2.086 -0.0984 -0.3584 -0.4355
10417TIP3    H252667   6.434   1.602   2.107  0.0101 -0.4434  0.3068
10418TIP3   OH252668   6.004   1.558  11.205  0.1993 -0.1036 -0.7778
10418TIP3    H152669   6.056   1.486  11.243 -0.0455 -0.1120 -0.4627
10418TIP3    H252670   5.950   1.515  11.138  0.5881 -0.0969 -1.1026
10419TIP3   OH252671   1.160   0.361   0.991 -0.4086  0.4444  0.5276
10419TIP3    H152672   1.093   0.382   0.926  1.8048  1.6195 -1.4736
10419TIP3    H252673   1.220   0.435   0.988  1.3294 -0.8684  1.7858
10420TIP3   OH252674   3.290   4.699   4.288 -0.2479 -0.5469 -0.2798
10420TIP3    H152675   3.206   4.653   4.293  0.1457 -1.4275 -1.7528
10420TIP3    H252676   3.348   4.647   4.344 -1.1827  1.2588  2.5130
10421TIP3   OH252677   3.853   2.439   1.510 -0.6292  0.0315 -0.5028
10421TIP3    H152678   3.814   2.362   1.552  1.6279 -1.4024 -0.9500
10421TIP3    H252679   3.887   2.406   1.426  1.6694  1.1431 -0.0609
10422TIP3   OH252680   5.422   4.108   3.711 -0.2719  0.1082 -0.9855
10422TIP3    H152681   5.403   4.142   3.624  0.8300  0.6367 -1.0224
10422TIP3    H252682   5.490   4.166   3.745 -1.3692  0.5129  0.6140
10423TIP3   OH252683   0.160   4.443   3.681  0.1454  0.0924 -0.0183
10423TIP3    H152684   0.203   4.361   3.659 -0.5321 -0.0737 -0.7596
10423TIP3    H252685   0.222   4.489   3.738  0.0245 -1.4308  1.3595
10424TIP3   OH252686   6.600   3.194  16.673 -0.0082  0.9857 -0.2813
10424TIP3    H152687   6.617   3.281  16.636 -3.5363  1.6031 -0.6260
10424TIP3    H252688   6.571   3.211  16.762  0.0510  0.0999 -0.0906
10425TIP3   OH252689   6.077   5.096   4.411  0.3464  0.3688 -0.1221
10425TIP3    H152690   6.019   5.025   4.383 -1.0487  1.4172  0.0491
10425TIP3    H252691   6.057   5.168   4.352  0.9461  0.9928  0.4264
10426TIP3   OH252692   4.349   2.567   5.111  0.4167 -0.3330 -0.0263
10426TIP3    H152693   4.382   2.649   5.076  2.0985 -0.8405  0.3270
10426TIP3    H252694   4.291   2.533   5.043 -0.7779  1.4217  0.0749
10427TIP3   OH252695   3.729   0.474  12.993  0.6221 -0.9986 -0.2636
10427TIP3    H152696   3.717   0.461  13.087  2.5017 -0.3318  0.0935
10427TIP3    H252697   3.654   0.526  12.965 -1.0542 -2.9579  0.4439
10428TIP3   OH252698   3.261   1.790   4.432  0.1383  0.5878 -0.6621
10428TIP3    H152699   3.319   1.716   4.451 -0.4513  0.1887 -0.4037
10428TIP3    H252700   3.255   1.792   4.336 -2.0586 -1.4516 -0.6254
10429TIP3   OH252701   2.740   5.381   0.074 -0.6137 -0.3099 -0.6385
10429TIP3    H152702   2.660   5.342   0.109  0.0996 -0.5388  0.7907
10429TIP3    H252703   2.808   5.356   0.137 -0.0176  2.6672  0.0073
10430TIP3   OH252704   2.941   4.357   5.860 -0.7571  0.1937 -0.0174
10430TIP3    H152705   2.974   4.300   5.929 -0.6275  0.6287  0.2756
10430TIP3    H252706   2.940   4.444   5.898 -1.2519  0.3463 -0.3668
10431TIP3   OH252707   2.324   2.707  15.385 -0.0868  0.2746  0.2333
10431TIP3    H152708   2.290   2.644  15.321 -0.8485  2.6875 -1.8233
10431TIP3    H252709   2.405   2.739  15.346  0.3760  0.4889  1.3426
10432TIP3   OH252710   5.723   5.204   1.654 -0.4183  0.2078 -0.2487
10432TIP3    H152711   5.676   5.225   1.735  0.5631  0.6939  0.1936
10432TIP3    H252712   5.689   5.118   1.629 -1.2429  0.3669  0.2926
10433TIP3   OH252713   0.884   0.536   3.916 -0.0295 -0.0480  0.0208
10433TIP3    H152714   0.956   0.576   3.966 -0.3139 -1.7691  1.9008
10433TIP3    H252715   0.855   0.605   3.856  1.9837  1.2747  0.4941
10434TIP3   OH252716   1.426   4.464  16.778 -0.1578  0.0631 -0.2427
10434TIP3    H152717   1.386   4.382  16.806 -1.4661  1.1139  1.0685
10434TIP3    H252718   1.519   4.452  16.794 -0.1704 -1.6665 -1.3626
10435TIP3   OH252719   4.814   6.184   1.537 -0.1955  0.3467  0.4360
10435TIP3    H152720   4.842   6.275   1.541  2.3227 -0.3993  0.3454
10435TIP3    H252721   4.816   6.153   1.628 -1.2070  0.3992  0.4897
10436TIP3   OH252722   0.326   5.589  15.977 -0.5730 -0.7665 -0.5880
10436TIP3    H152723   0.379   5.544  16.043 -0.1903  0.2771 -0.1809
10436TIP3    H252724   0.372   5.573  15.895  0.8848  0.8846 -0.1174
10437TIP3   OH252725   3.297   3.217  15.226 -0.1900 -0.4199  0.4820
10437TIP3    H152726   3.287   3.150  15.293 -1.3836  0.2002  0.9388
10437TIP3    H252727   3.376   3.192  15.178 -0.6481 -2.1789  0.6126
10438TIP3   OH252728   6.083   3.931   1.522 -0.1875  0.8870  0.2565
10438TIP3    H152729   6.152   3.885   1.569 -0.2519 -0.3913 -0.9043
10438TIP3    H252730   6.037   3.980   1.591 -1.5964 -2.5906  1.9045
10439TIP3   OH252731   2.854   5.080   5.368 -0.1244 -0.3503 -0.2209
10439TIP3    H152732   2.788   5.150   5.372  0.6670  0.3387  1.1049
10439TIP3    H252733   2.803   5.000   5.357 -1.2586  0.1077  1.4471
10440TIP3   OH252734   1.053   4.493  11.707  0.9979 -0.1109 -0.0337
10440TIP3    H152735   0.986   4.487  11.639  0.1788 -1.5540  0.8896
10440TIP3    H252736   1.031   4.573  11.755 -0.9377 -1.3164  1.1506
10441TIP3   OH252737   4.255   1.138   6.247  0.1692 -0.0913  0.1891
10441TIP3    H152738   4.328   1.095   6.202  0.3211  0.0142  0.3350
10441TIP3    H252739   4.180   1.081   6.231  0.4185 -0.5288  0.5691
10442TIP3   OH252740   5.950   3.903   1.775 -0.2007 -0.2944 -0.2866
10442TIP3    H152741   5.883   3.852   1.731 -2.5559  0.1333  2.6780
10442TIP3    H252742   6.009   3.837   1.812 -0.5847 -0.7408 -0.4567
10443TIP3   OH252743   4.673   5.731  13.238  0.4027  0.2091  0.3625
10443TIP3    H152744   4.600   5.769  13.286 -0.0291 -0.8746  0.5902
10443TIP3    H252745   4.748   5.785  13.260 -0.2493  1.0746  0.4742
10444TIP3   OH252746   4.324   6.637   2.579 -0.1991 -0.0149 -0.0432
10444TIP3    H152747   4.263   6.568   2.554  0.5008  0.0143 -1.9445
10444TIP3    H252748   4.305   6.655   2.671  1.2966 -4.5137  1.2718
10445TIP3   OH252749   2.693   5.664   0.443 -0.0339  0.1026 -0.3763
10445TIP3    H152750   2.775   5.651   0.491  0.9819 -0.1812 -2.1464
10445TIP3    H252751   2.655   5.577   0.437  0.8194 -0.1825 -1.7874
10446TIP3   OH252752   1.583   4.802  17.163  0.7457 -0.2229  0.0037
10446TIP3    H152753   1.579   4.777  17.070 -1.6858 -0.6248  0.1759
10446TIP3    H252754   1.493   4.795  17.193  1.4661  0.1826  2.3505
10447TIP3   OH252755   5.810   1.050  14.892  0.6245  0.5343 -0.0225
10447TIP3    H152756   5.742   1.103  14.934  0.4045  1.3487 -1.3966
10447TIP3    H252757   5.765   0.969  14.867  0.5624  0.3858  0.5628
10448TIP3   OH252758   1.977   4.030   1.713 -0.2131 -0.2763 -0.3121
10448TIP3    H152759   2.020   4.017   1.798  0.0941 -0.6455 -0.5210
10448TIP3    H252760   2.001   3.952   1.662 -0.2363  0.0375 -0.8044
10449TIP3   OH252761   0.620   4.675  11.819  0.1856  0.5746 -0.5505
10449TIP3    H152762   0.527   4.693  11.832 -0.6979 -3.0043 -1.1890
10449TIP3    H252763   0.652   4.652  11.907  0.3180  1.1817 -0.4390
10450TIP3   OH252764   6.412   5.455   6.061 -0.1936 -0.0972  0.2644
10450TIP3    H152765   6.394   5.379   6.006 -1.1914  0.9854 -0.9580
10450TIP3    H252766   6.367   5.437   6.143 -1.1273 -0.4734 -0.3199
10451TIP3   OH252767   0.460   1.455   0.750  0.8212  0.2567  0.2265
10451TIP3    H152768   0.367   1.458   0.774  0.9618  0.4329  0.7630
10451TIP3    H252769   0.461   1.459   0.655  0.2889  0.5593  0.2340
10452TIP3   OH252770   3.119   2.926  14.359 -0.4391  0.2261 -0.1306
10452TIP3    H152771   3.075   3.007  14.335 -2.3884 -0.7878 -0.0454
10452TIP3    H252772   3.060   2.857  14.331  1.6974 -1.2196 -1.2021
10453TIP3   OH252773   0.051   4.766  11.296  0.6483  0.1595 -0.0845
10453TIP3    H152774   0.042   4.756  11.391 -0.0746  2.1409  0.0992
10453TIP3    H252775   0.008   4.688  11.260 -0.6979  0.2604  1.2009
10454TIP3   OH252776   4.299   5.653   0.988  0.1048 -0.0814 -0.1055
10454TIP3    H152777   4.312   5.744   0.963 -0.0590  0.3368  1.2717
10454TIP3    H252778   4.387   5.615   0.986  0.2884  0.3244  0.0932
10455TIP3   OH252779   0.562   4.617  11.560  0.5684  0.1513  0.1544
10455TIP3    H152780   0.576   4.650  11.649  0.8607  1.4161 -0.3449
10455TIP3    H252781   0.476   4.650  11.535  0.0433 -1.0708  0.3486
10456TIP3   OH252782   1.790   2.518  11.386  0.6972  0.6041  0.1776
10456TIP3    H152783   1.843   2.503  11.307 -0.1711  0.3463 -0.3611
10456TIP3    H252784   1.801   2.437  11.437 -0.6926 -0.2279 -0.8206
10457TIP3   OH252785   5.953   6.391   3.814 -0.0011  0.0491  0.1615
10457TIP3    H152786   5.898   6.352   3.881 -0.7109 -2.6053 -1.8847
10457TIP3    H252787   5.891   6.419   3.746  0.8782  0.6006 -0.4281
10458TIP3   OH252788   0.841   5.841   2.237 -0.4133 -0.0573  0.1920
10458TIP3    H152789   0.873   5.760   2.198  0.3966 -0.1720  1.0893
10458TIP3    H252790   0.916   5.878   2.283 -0.5205  1.6817 -0.9790
10459TIP3   OH252791   4.968   5.668  12.768 -0.0596  0.5953 -0.1845
10459TIP3    H152792   4.929   5.696  12.851 -0.7083 -1.1606  0.1284
10459TIP3    H252793   5.000   5.749  12.728  0.3032  1.4556  1.8006
10460TIP3   OH252794   6.625   0.167  11.561  0.0916 -0.7522 -0.7721
10460TIP3    H152795   6.618   0.081  11.519 -1.3851 -1.4161  0.7857
10460TIP3    H252796   6.717   0.172  11.589 -0.4977 -3.1147  1.7543
10461TIP3   OH252797   2.676   5.590   2.570  1.3058 -0.3414  0.2681
10461TIP3    H152798   2.664   5.669   2.518 -0.0743 -0.3116  0.6099
10461TIP3    H252799   2.676   5.621   2.661  0.8682 -0.7052  0.3975
10462TIP3   OH252800   4.894   0.224   4.813 -0.0654 -0.9031  0.0542
10462TIP3    H152801   4.847   0.236   4.896  0.5690  3.4441 -0.0988
10462TIP3    H252802   4.944   0.304   4.802  2.8927 -2.9993 -2.6944
10463TIP3   OH252803   3.318   0.639   5.578  0.3780 -0.2280  0.1631
10463TIP3    H152804   3.291   0.673   5.664  0.8206 -0.8423  0.5510
10463TIP3    H252805   3.392   0.693   5.552 -0.3766  0.5929 -0.2835
10464TIP3   OH252806   2.601   4.421  10.813 -0.1857 -0.0121  0.1040
10464TIP3    H152807   2.651   4.502  10.797  0.8455 -0.5231  0.7069
10464TIP3    H252808   2.555   4.405  10.730 -1.3168  1.8127  0.3383
10465TIP3   OH252809   2.988   0.890   4.268  0.1021  0.3093 -0.4217
10465TIP3    H152810   3.074   0.914   4.232  0.5462 -1.4665 -0.5972
10465TIP3    H252811   2.965   0.809   4.222 -2.1764  1.3533 -1.1483
10466TIP3   OH252812   5.526   5.358   6.428 -0.7902 -0.2937  0.1953
10466TIP3    H152813   5.567   5.378   6.344 -1.9665 -1.3696 -0.6588
10466TIP3    H252814   5.457   5.424   6.438 -0.6437 -0.1592  0.3230
10467TIP3   OH252815   5.533   3.491  12.950 -0.1150 -0.9719 -0.1801
10467TIP3    H152816   5.593   3.560  12.977 -0.8312 -0.0948 -0.7865
10467TIP3    H252817   5.589   3.418  12.926  0.6834 -0.3088 -0.3326
10468TIP3   OH252818   1.596   3.520  17.102 -0.2294 -0.2525  0.1930
10468TIP3    H152819   1.676   3.467  17.093  0.2187  0.1901  1.4590
10468TIP3    H252820   1.527   3.464  17.068 -0.0384 -2.3967  3.0984
10469TIP3   OH252821   4.180   6.103   1.025  0.1848 -0.1134 -0.4803
10469TIP3    H152822   4.275   6.099   1.039  0.5071 -1.5523 -2.7386
10469TIP3    H252823   4.148   6.017   1.053 -0.2930 -0.0346 -0.7860
10470TIP3   OH252824   1.865   0.965  12.971  0.3457  0.1045 -0.1862
10470TIP3    H152825   1.823   0.914  13.040 -0.2688  0.8500 -0.0098
10470TIP3    H252826   1.792   1.003  12.922  0.7776 -0.3158 -1.1711
10471TIP3   OH252827   2.915   3.892  16.444  0.5548  0.1754 -0.1426
10471TIP3    H152828   3.010   3.906  16.441  0.7234 -0.5871  1.0733
10471TIP3    H252829   2.884   3.953  16.511  0.3948 -0.5105  0.4295
10472TIP3   OH252830   0.769   2.780  12.149 -0.0001 -0.5200 -0.7955
10472TIP3    H152831   0.767   2.869  12.113  3.3475 -0.1672 -0.3186
10472TIP3    H252832   0.827   2.732  12.090 -1.8231 -2.4362 -1.0791
10473TIP3   OH252833   3.614   4.094   3.169 -0.2640 -0.0848  0.2664
10473TIP3    H152834   3.613   4.055   3.081 -1.4251  0.2600  0.1155
10473TIP3    H252835   3.548   4.045   3.217  0.2783 -0.1812  0.9228
10474TIP3   OH252836   1.429   6.196  16.937  0.2526  1.2186  0.2297
10474TIP3    H152837   1.446   6.256  17.009  0.8967  1.5896 -0.2293
10474TIP3    H252838   1.352   6.233  16.892 -0.1180  1.0130  0.6862
10475TIP3   OH252839   3.985   3.463  12.571  0.0533  0.0066  0.0188
10475TIP3    H152840   3.942   3.393  12.622  1.3006 -0.8596 -0.0902
10475TIP3    H252841   3.933   3.469  12.491  0.4490 -1.4320 -0.3628
10476TIP3   OH252842   0.529   1.730   4.739  0.3809  0.4991  0.1422
10476TIP3    H152843   0.618   1.695   4.739 -0.2738 -1.2009 -0.6432
10476TIP3    H252844   0.501   1.726   4.648 -0.8415  0.1499  0.5201
10477TIP3   OH252845   2.761   4.183   5.347  0.0375  0.3899  0.8265
10477TIP3    H152846   2.804   4.154   5.428 -0.0991 -1.0106  0.4159
10477TIP3    H252847   2.831   4.179   5.281 -0.1485  0.3530  0.6334
10478TIP3   OH252848   3.120   5.165  15.421 -0.3069  0.1644  0.4416
10478TIP3    H152849   3.142   5.146  15.512  0.6917 -0.7717  0.0081
10478TIP3    H252850   3.037   5.120  15.406 -0.3158  0.0662  0.7899
10479TIP3   OH252851   0.027   4.582  16.536  0.3291  0.1964  0.0962
10479TIP3    H152852   0.117   4.614  16.538  0.4766 -0.1026 -1.1252
10479TIP3    H252853  -0.000   4.594  16.445 -0.7725  0.0362  0.3964
10480TIP3   OH252854   2.104   6.597   4.243 -0.5934  0.3867  0.0993
10480TIP3    H152855   2.191   6.632   4.225 -1.3919  1.7112 -1.3416
10480TIP3    H252856   2.059   6.599   4.159 -1.2684 -2.5174  0.3228
10481TIP3   OH252857   1.220   6.591   0.735 -0.3492 -0.6278  0.4231
10481TIP3    H152858   1.223   6.686   0.723 -2.6877 -0.5431  0.3603
10481TIP3    H252859   1.239   6.555   0.649 -0.3215 -0.2096  0.2535
10482TIP3   OH252860   6.672   1.861  15.107 -0.2375 -0.0871 -0.4673
10482TIP3    H152861   6.611   1.788  15.093  0.1732 -0.3293 -1.0087
10482TIP3    H252862   6.747   1.841  15.051 -0.4619  1.1470 -1.2338
10483TIP3   OH252863   1.719   6.014  15.185  0.3694  0.2177 -0.0687
10483TIP3    H152864   1.800   5.973  15.215 -0.1588 -1.6411 -1.1333
10483TIP3    H252865   1.659   5.941  15.170 -0.9265  1.4489 -1.0223
10484TIP3   OH252866   5.288   0.778  10.306  0.2339  0.2065 -0.1607
10484TIP3    H152867   5.321   0.688  10.305 -1.3187 -0.3675 -0.0493
10484TIP3    H252868   5.360   0.829  10.343  0.7575 -1.1365  0.7039
10485TIP3   OH252869   5.918   1.519  15.772 -0.4257  0.3582 -0.1523
10485TIP3    H152870   5.879   1.585  15.830  0.5933  0.0162  0.9396
10485TIP3    H252871   5.958   1.456  15.832  0.9948  0.2136 -1.2357
10486TIP3   OH252872   0.326   2.693   1.379  0.1191  0.0773 -0.2465
10486TIP3    H152873   0.418   2.677   1.358  0.1807 -1.8937  1.3899
10486TIP3    H252874   0.285   2.606   1.373 -1.2145  0.6089  1.0092
10487TIP3   OH252875   2.113   3.604  14.082 -0.1653 -0.1208  0.4578
10487TIP3    H152876   2.043   3.546  14.051 -0.9760 -0.2149  2.4025
10487TIP3    H252877   2.087   3.627  14.172  1.9290  0.4355  0.9414
10488TIP3   OH252878   1.218   5.032   3.012 -0.6771  0.4994  0.2664
10488TIP3    H152879   1.283   5.026   2.942  0.5335 -0.4015  1.4310
10488TIP3    H252880   1.135   5.012   2.969 -0.0778  0.8593 -1.0923
10489TIP3   OH252881   3.722   5.377   1.712  0.4742  0.0952  0.2253
10489TIP3    H152882   3.811   5.351   1.688 -0.3779  0.6774 -3.9316
10489TIP3    H252883   3.669   5.300   1.691 -0.3774  0.7677 -0.0735
10490TIP3   OH252884   4.009   4.432   0.899 -0.8871 -0.3418  0.1765
10490TIP3    H152885   4.050   4.516   0.919  1.1925 -1.1413 -0.5849
10490TIP3    H252886   3.943   4.420   0.966  1.0986  0.3313  2.3109
10491TIP3   OH252887   4.908   4.532  12.783  0.0023 -0.1699 -0.4503
10491TIP3    H152888   4.900   4.623  12.812 -0.3851 -0.2398 -0.3330
10491TIP3    H252889   4.985   4.531  12.726 -0.0300  0.2416 -0.4983
10492TIP3   OH252890   1.123   4.647  15.614 -0.4510  0.2453  0.1040
10492TIP3    H152891   1.112   4.554  15.595 -1.4628  0.4812 -0.5003
10492TIP3    H252892   1.039   4.687  15.588  0.6285  1.5980 -1.4382
10493TIP3   OH252893   0.455   2.231  11.056  0.6080 -0.0841  0.1190
10493TIP3    H152894   0.399   2.154  11.054 -0.5019  0.7012  0.2082
10493TIP3    H252895   0.544   2.197  11.065  0.2160 -1.3693 -0.8980
10494TIP3   OH252896   2.363   4.874  17.100  0.4279 -0.5161  0.4930
10494TIP3    H152897   2.289   4.818  17.075  1.0003 -1.1155  0.1352
10494TIP3    H252898   2.354   4.952  17.046 -0.0750 -0.4878  0.6158
10495TIP3   OH252899   4.363   4.775   3.921 -0.9130  0.4148 -0.0704
10495TIP3    H152900   4.338   4.750   4.010  0.1181  0.4587  0.2324
10495TIP3    H252901   4.443   4.725   3.903 -1.9211 -0.7079 -1.5231
10496TIP3   OH252902   5.055   5.231   2.346  0.3912 -0.3398 -0.0292
10496TIP3    H152903   5.116   5.222   2.419  2.4321 -0.4902 -1.7081
10496TIP3    H252904   5.065   5.322   2.317  0.1250 -0.4738 -0.5575
10497TIP3   OH252905   2.096   5.855  11.925  0.2206 -0.4569 -0.1748
10497TIP3    H152906   2.125   5.899  12.004  1.6476 -3.7034  1.1878
10497TIP3    H252907   2.176   5.825  11.883 -0.6215 -0.3017 -1.9394
10498TIP3   OH252908   0.222   0.014   1.206 -0.3882  0.4347 -0.7587
10498TIP3    H152909   0.268   0.034   1.288  0.9626  0.4868 -1.5151
10498TIP3    H252910   0.169  -0.063   1.226 -0.6384  0.8935  0.3715
10499TIP3   OH252911   5.040   3.796   2.002  0.2335  0.4815  0.7203
10499TIP3    H152912   4.977   3.762   2.066  0.7101  0.8219  1.3790
10499TIP3    H252913   5.126   3.778   2.041  0.5683 -0.7114 -0.5469
10500TIP3   OH252914   5.091   6.442  15.102 -0.3825  0.1639 -0.6363
10500TIP3    H152915   5.054   6.468  15.186  0.2633 -0.0724 -0.2684
10500TIP3    H252916   5.105   6.524  15.055 -0.3159  0.3313 -0.3245
10501TIP3   OH252917   5.959   3.560  13.975 -0.0167 -0.2686 -0.1541
10501TIP3    H152918   5.946   3.512  13.893 -0.3642 -0.8202  0.2253
10501TIP3    H252919   5.944   3.652  13.951  0.7075 -0.3319 -0.8910
10502TIP3   OH252920   5.281   3.781  17.128 -1.2093 -0.6211 -0.1908
10502TIP3    H152921   5.253   3.863  17.087 -1.6678 -1.0365 -0.7162
10502TIP3    H252922   5.207   3.721  17.116 -0.5732 -1.3586 -0.5065
10503TIP3   OH252923   4.330   0.707  14.429  0.0148 -0.1994  0.0780
10503TIP3    H152924   4.247   0.675  14.463 -0.4846  0.5703 -0.4109
10503TIP3    H252925   4.384   0.721  14.507 -0.6010  0.0955  0.4537
10504TIP3   OH252926   2.897   2.273   5.347  0.2804  0.0007 -0.1926
10504TIP3    H152927   2.839   2.322   5.405  1.9058  1.6594  0.0935
10504TIP3    H252928   2.966   2.240   5.405 -0.4749 -2.1446 -0.4834
10505TIP3   OH252929   4.298   5.789   3.179 -0.0154 -0.3933  0.1115
10505TIP3    H152930   4.274   5.704   3.217 -2.2373 -0.0227 -0.4084
10505TIP3    H252931   4.388   5.776   3.147 -0.2024 -2.4442  0.3428
10506TIP3   OH252932   3.362   2.566  11.412  0.1096 -0.5903 -0.1628
10506TIP3    H152933   3.402   2.617  11.483 -0.9893  1.1610 -0.7725
10506TIP3    H252934   3.311   2.499  11.457  1.4797 -1.1268  0.6533
10507TIP3   OH252935   6.669   3.140   0.534  0.7521  0.1537  0.4291
10507TIP3    H152936   6.614   3.179   0.601  0.2506  0.6940 -0.2831
10507TIP3    H252937   6.690   3.213   0.475 -0.4810 -0.6802 -1.1100
10508TIP3   OH252938   1.629   4.335   1.216 -0.6702 -0.0997 -0.0020
10508TIP3    H152939   1.688   4.386   1.160 -0.5956  0.4224  0.5417
10508TIP3    H252940   1.621   4.250   1.172  0.2463 -0.0672 -0.2405
10509TIP3   OH252941   5.254   4.685   2.083 -0.1473 -0.2286  0.0922
10509TIP3    H152942   5.220   4.774   2.070 -0.8685 -0.4938  0.1314
10509TIP3    H252943   5.185   4.640   2.132  0.1095 -0.8844 -0.1395
10510TIP3   OH252944   5.634   5.534  16.536 -0.4913 -0.1379 -0.4581
10510TIP3    H152945   5.701   5.594  16.504 -0.1271 -0.8021 -0.9531
10510TIP3    H252946   5.555   5.587  16.540  0.0258  0.6197  0.0024
10511TIP3   OH252947   0.459   3.123  11.902 -0.7206  0.0439 -0.2494
10511TIP3    H152948   0.461   3.218  11.900 -1.2242  0.0373 -1.7850
10511TIP3    H252949   0.369   3.101  11.927 -0.3890 -0.0335  0.9054
10512TIP3   OH252950   3.190   6.212   1.488 -0.1010 -0.4163  0.2814
10512TIP3    H152951   3.166   6.251   1.572  0.9901  0.3345  0.2473
10512TIP3    H252952   3.276   6.174   1.503 -1.0564 -2.6806  0.2602
10513TIP3   OH252953   2.814   0.225   6.840  0.0260  0.1177 -0.6089
10513TIP3    H152954   2.771   0.250   6.758 -0.2474  3.3488  0.4343
10513TIP3    H252955   2.896   0.275   6.840 -0.3423  0.7743  1.4210
10514TIP3   OH252956   2.917   4.627  16.412 -0.1629  0.7106  0.2038
10514TIP3    H152957   2.945   4.614  16.322 -1.1913 -1.7336  0.1979
10514TIP3    H252958   2.966   4.704  16.442  3.4194 -0.9566 -1.0948
10515TIP3   OH252959   4.742   5.777   3.602 -0.3890 -0.6523 -0.3898
10515TIP3    H152960   4.782   5.857   3.570  0.4139 -0.7811  0.2852
10515TIP3    H252961   4.749   5.715   3.529 -1.7929  0.1407 -1.2227
10516TIP3   OH252962   2.021   0.941  14.714  0.4005  0.2141 -0.7975
10516TIP3    H152963   1.981   0.855  14.702 -0.0832  0.3478 -0.1809
10516TIP3    H252964   2.099   0.939  14.659  0.4588 -0.6660 -0.6915
10517TIP3   OH252965   5.525   6.046  15.711  0.6102 -0.6252  0.1340
10517TIP3    H152966   5.506   6.099  15.634 -0.8843 -1.9635 -0.4291
10517TIP3    H252967   5.618   6.025  15.703  0.6584 -0.0531 -0.8581
10518TIP3   OH252968   2.614   4.156  16.275 -0.5332 -0.0590  0.5208
10518TIP3    H152969   2.520   4.157  16.256 -0.3499  0.1388 -0.4321
10518TIP3    H252970   2.636   4.247  16.292 -0.1269  0.1976 -1.3080
10519TIP3   OH252971   5.764   2.492   2.063  0.6895  0.1809 -0.5573
10519TIP3    H152972   5.678   2.517   2.030  0.3757 -0.1113  0.0385
10519TIP3    H252973   5.826   2.531   2.001  0.1579  0.9804 -0.5884
10520TIP3   OH252974   5.392   6.554  15.392 -0.4364  0.2304 -0.0485
10520TIP3    H152975   5.487   6.559  15.402 -0.4841  2.3063 -0.4063
10520TIP3    H252976   5.357   6.609  15.462 -1.4176 -1.0310  0.4831
10521TIP3   OH252977   2.767   5.549  15.544 -0.3777 -0.5640 -0.0657
10521TIP3    H152978   2.761   5.468  15.495 -2.3452  0.7994 -2.1605
10521TIP3    H252979   2.707   5.538  15.618 -1.0615 -0.7845 -0.6645
10522TIP3   OH252980   3.990   1.699   0.510  0.2781  1.0630 -0.3913
10522TIP3    H152981   3.900   1.671   0.493  0.2962  0.7493  0.0336
10522TIP3    H252982   4.042   1.619   0.503  0.2878  0.9181  1.1359
10523TIP3   OH252983   6.512   0.685  13.022 -0.5143  0.9938  0.3414
10523TIP3    H152984   6.538   0.644  12.939  0.0429  1.1937  0.4093
10523TIP3    H252985   6.593   0.725  13.054 -0.4097 -0.2613  1.6669
10524TIP3   OH252986   0.709   5.441   6.209  0.6418  0.4942  0.0966
10524TIP3    H152987   0.657   5.362   6.220  0.8217  0.3886  0.1894
10524TIP3    H252988   0.755   5.451   6.292  0.5981  0.7113  0.0955
10525TIP3   OH252989   2.724   0.579   3.311 -0.2124 -0.6105 -0.0071
10525TIP3    H152990   2.663   0.653   3.312 -0.6373 -0.9578  1.0298
10525TIP3    H252991   2.762   0.580   3.224 -0.3167  0.7579 -0.0469
10526TIP3   OH252992   1.643   0.676   5.128  0.2216 -0.6080 -0.1022
10526TIP3    H152993   1.617   0.602   5.072  1.1439  0.6620 -2.2808
10526TIP3    H252994   1.560   0.714   5.156 -0.2834 -0.4415 -1.7533
10527TIP3   OH252995   6.272   3.443   2.577 -0.4287  0.5736 -0.3613
10527TIP3    H152996   6.249   3.437   2.670 -0.5068  1.1793 -0.3451
10527TIP3    H252997   6.229   3.366   2.538 -0.4482  0.3505  0.0902
10528TIP3   OH252998   5.781   6.041   1.894  0.2260 -0.6157  0.2698
10528TIP3    H152999   5.805   6.030   1.802 -0.3915 -0.6159  0.1088
10528TIP3    H253000   5.691   6.008   1.899  0.0795 -0.1290  0.7715
10529TIP3   OH253001   6.322   1.225   0.520  0.0163  0.0159  0.0306
10529TIP3    H153002   6.358   1.137   0.531  0.7751  0.3712  0.3920
10529TIP3    H253003   6.296   1.251   0.608  1.4205  0.8547  0.1972
10530TIP3   OH253004   1.948   3.018  16.117 -0.3824  0.4583  0.4283
10530TIP3    H153005   1.942   3.024  16.022  1.0793  1.0518  0.3688
10530TIP3    H253006   2.041   3.026  16.136 -0.6390  0.0509  1.8924
10531TIP3   OH253007   4.133   1.823  13.090  0.1636  0.2764  0.5128
10531TIP3    H153008   4.156   1.746  13.142  0.2174  0.4985  0.8189
10531TIP3    H253009   4.174   1.807  13.004 -0.6308 -0.4739  0.2728
10532TIP3   OH253010   2.763   2.438  17.128 -0.2440  0.0657 -0.0556
10532TIP3    H153011   2.851   2.401  17.134 -0.1616  0.2225 -0.2770
10532TIP3    H253012   2.762   2.509  17.192  0.3465  1.1697 -1.2364
10533TIP3   OH253013   0.359   2.778  13.855 -0.5328  0.4682  0.1455
10533TIP3    H153014   0.375   2.869  13.832  1.5916 -0.4393 -2.2695
10533TIP3    H253015   0.391   2.769  13.944 -1.1496  2.1824  0.5390
10534TIP3   OH253016   5.884   2.895   4.624 -0.2919  0.3801  0.3523
10534TIP3    H153017   5.805   2.946   4.607 -0.4439  0.6063  1.6356
10534TIP3    H253018   5.950   2.932   4.566 -0.6338  1.4710  0.6473
10535TIP3   OH253019   3.299   3.499   3.129 -0.4169  0.4439  0.0054
10535TIP3    H153020   3.368   3.441   3.095 -0.8933  0.1583 -0.4814
10535TIP3    H253021   3.282   3.466   3.217 -1.6429 -1.0217 -0.7656
10536TIP3   OH253022   5.755   4.993   2.806 -0.1337  0.1829  0.2499
10536TIP3    H153023   5.737   4.947   2.724 -1.4783  1.3459 -0.1196
10536TIP3    H253024   5.697   4.952   2.869 -0.3178  0.4364  0.2432
10537TIP3   OH253025   4.613   1.202   3.809  0.2787  0.2169  0.6490
10537TIP3    H153026   4.704   1.211   3.835  0.1958  0.1609  0.9632
10537TIP3    H253027   4.567   1.180   3.890 -0.1591  1.1905  0.6768
10538TIP3   OH253028   0.964   2.364  11.448  0.1831  0.0841  0.2882
10538TIP3    H153029   0.884   2.365  11.396  0.8152  2.0525 -0.7015
10538TIP3    H253030   0.958   2.284  11.500 -1.9228 -0.3258 -0.5368
10539TIP3   OH253031   3.071   5.630   4.173 -0.3263  0.1335  0.4180
10539TIP3    H153032   3.150   5.677   4.199 -0.7107  0.8009  0.4153
10539TIP3    H253033   3.101   5.566   4.109  0.0884  1.0185 -0.2938
10540TIP3   OH253034   5.015   3.964   0.566 -0.5716  0.1892  0.2474
10540TIP3    H153035   5.053   3.884   0.602 -0.7478  0.5578  1.2599
10540TIP3    H253036   4.924   3.941   0.548 -0.5538  0.0821  0.2946
10541TIP3   OH253037   3.972   1.762  17.039  0.4316 -0.0529  0.3203
10541TIP3    H153038   3.932   1.778  17.124 -0.6708 -0.1109 -0.1753
10541TIP3    H253039   4.038   1.694  17.056 -1.2941 -1.6682  0.7509
10542TIP3   OH253040   1.941   2.516   4.782 -0.1963  0.5957  0.2122
10542TIP3    H153041   1.934   2.508   4.687  0.8525  3.0919 -0.1297
10542TIP3    H253042   2.035   2.512   4.799 -0.2938  1.5217  0.9994
10543TIP3   OH253043   4.960   0.819   0.842  0.5389  0.5179  0.2332
10543TIP3    H153044   4.939   0.907   0.874  1.6548  0.8997 -0.0683
10543TIP3    H253045   5.056   0.816   0.841  0.5337  0.2277 -2.3033
10544TIP3   OH253046   0.072   2.409   3.183  0.1258  1.1979  0.2862
10544TIP3    H153047   0.125   2.439   3.109 -0.1349  3.0236  0.8090
10544TIP3    H253048  -0.017   2.437   3.161 -0.3645 -0.4580  0.1437
10545TIP3   OH253049   5.732   4.052   5.328  0.2806  0.0682 -0.0150
10545TIP3    H153050   5.814   4.100   5.340  0.6167 -0.7207  0.9496
10545TIP3    H253051   5.730   3.990   5.402 -0.3538 -1.0775 -0.9833
10546TIP3   OH253052   5.447   4.497  15.919 -0.0712 -0.2000  0.0646
10546TIP3    H153053   5.363   4.536  15.944  0.0176 -1.3258  2.2504
10546TIP3    H253054   5.513   4.550  15.964  0.3307 -0.1211 -0.6008
10547TIP3   OH253055   4.835   2.628   0.884  0.8016 -0.1351  0.0797
10547TIP3    H153056   4.851   2.672   0.800 -0.4655 -2.1637 -1.2719
10547TIP3    H253057   4.923   2.611   0.919  1.3359  1.1591 -0.6094
10548TIP3   OH253058   5.712   0.576  11.981 -0.5300 -0.0689  0.4776
10548TIP3    H153059   5.767   0.524  12.040  1.2065 -0.0898 -1.0924
10548TIP3    H253060   5.650   0.620  12.038  1.4590  0.3277  2.3970
10549TIP3   OH253061   5.931   3.100  16.082  0.0049  0.1550  0.2084
10549TIP3    H153062   5.944   3.186  16.042 -1.7365  0.0178 -0.6896
10549TIP3    H253063   5.837   3.097  16.102 -0.0423 -1.7475 -0.2641
10550TIP3   OH253064   0.551   2.911   3.294  0.2315  0.2292 -0.9091
10550TIP3    H153065   0.552   2.841   3.229 -0.6634 -1.5372  0.9296
10550TIP3    H253066   0.465   2.951   3.285  0.0745 -0.0724 -0.7532
10551TIP3   OH253067   4.467   1.237   1.270  0.4275 -0.2871  0.5289
10551TIP3    H153068   4.486   1.190   1.189 -1.2349 -0.1105  0.0217
10551TIP3    H253069   4.515   1.189   1.337  0.6633 -1.3003 -0.3412
10552TIP3   OH253070   1.999   3.667  14.322  0.0561  0.4406  0.3790
10552TIP3    H153071   1.944   3.735  14.360  1.6141  1.2939  1.1688
10552TIP3    H253072   2.085   3.679  14.364  0.9961 -0.5004 -1.2197
10553TIP3   OH253073   5.148   4.041   1.580  0.0481 -0.4758 -0.4643
10553TIP3    H153074   5.176   4.121   1.535  1.0861 -0.9094 -0.5885
10553TIP3    H253075   5.150   3.973   1.513 -3.8180 -0.0322 -1.1407
10554TIP3   OH253076   0.524   5.844   0.575  0.0457  0.4558 -0.0852
10554TIP3    H153077   0.461   5.913   0.554 -1.6912 -0.5078  1.8497
10554TIP3    H253078   0.509   5.776   0.508 -0.0405  0.7926 -0.4114
10555TIP3   OH253079   4.365   2.444   2.639 -0.0264  0.2830 -0.3284
10555TIP3    H153080   4.359   2.493   2.557 -1.0377 -0.4620 -0.7105
10555TIP3    H253081   4.457   2.418   2.644  0.3185  1.4421 -0.5763
10556TIP3   OH253082   3.578   6.468  13.096 -0.0410  0.0047  0.1163
10556TIP3    H153083   3.556   6.557  13.123 -1.3358 -0.1093 -0.5291
10556TIP3    H253084   3.536   6.412  13.162  0.0310 -0.1520  0.0304
10557TIP3   OH253085   0.322   1.035   5.076  0.4377 -0.4007  0.3566
10557TIP3    H153086   0.395   1.017   5.016  0.7766 -1.4373  1.0621
10557TIP3    H253087   0.250   1.060   5.019  1.0127 -0.5097 -0.4333
10558TIP3   OH253088   4.834   3.918  14.065 -0.0370 -0.5400  0.1164
10558TIP3    H153089   4.777   3.993  14.077  1.8018  1.0140 -0.5377
10558TIP3    H253090   4.775   3.846  14.042 -2.0038  0.2166  2.6307
10559TIP3   OH253091   2.027   2.721  10.879  0.2263 -0.4791 -0.1949
10559TIP3    H153092   1.979   2.676  10.809 -1.6790 -0.1149  0.8734
10559TIP3    H253093   2.075   2.791  10.833 -3.3013  1.6402 -0.8175
10560TIP3   OH253094   3.775   6.457   2.167  0.2624 -0.2499  0.1834
10560TIP3    H153095   3.859   6.423   2.198  0.5991  1.9909  1.8152
10560TIP3    H253096   3.711   6.422   2.229 -0.0833 -2.1098 -1.1669
10561TIP3   OH253097   6.001   6.660  11.709 -0.5449 -0.2783 -0.4709
10561TIP3    H153098   5.950   6.643  11.789  0.0574  0.0475 -0.0170
10561TIP3    H253099   5.942   6.634  11.638 -0.5871 -1.8924  0.1230
10562TIP3   OH253100   1.457   6.322  16.619 -0.1211  0.4999 -0.0823
10562TIP3    H153101   1.397   6.389  16.653 -1.0757 -0.1490 -0.4630
10562TIP3    H253102   1.402   6.269  16.561  0.2487 -1.4912  1.3307
10563TIP3   OH253103   1.157   1.598   0.130  0.4698  0.2459 -0.7672
10563TIP3    H153104   1.157   1.693   0.134 -0.1596  0.2564 -0.9920
10563TIP3    H253105   1.229   1.572   0.188 -0.0478  0.8245  0.1394
10564TIP3   OH253106   1.841   1.069  11.673  0.1284 -0.3909  0.3459
10564TIP3    H153107   1.751   1.046  11.697  0.6418 -3.1904 -0.2492
10564TIP3    H253108   1.893   1.047  11.751  0.7053 -1.8513 -0.4345
10565TIP3   OH253109   4.462   3.035   1.137 -0.2480 -0.3334 -0.2581
10565TIP3    H153110   4.480   3.001   1.049  2.7084  0.8735 -0.1687
10565TIP3    H253111   4.500   2.969   1.196 -1.0781 -0.4950  0.1046
10566TIP3   OH253112   0.592   4.846  10.876  0.1555 -0.3996 -0.9962
10566TIP3    H153113   0.570   4.935  10.850 -1.8325 -0.3984  0.5160
10566TIP3    H253114   0.525   4.792  10.832 -1.5238 -0.6540  1.7649
10567TIP3   OH253115   2.322   4.054  13.263 -0.3510  0.2332 -0.1382
10567TIP3    H153116   2.319   4.112  13.186 -0.4430 -0.1130 -0.3979
10567TIP3    H253117   2.248   3.995  13.251 -0.3673  0.1808  0.2232
10568TIP3   OH253118   4.622   6.097  12.015  0.7329  0.4816 -0.2671
10568TIP3    H153119   4.622   6.191  11.998 -0.3069  0.5490  0.0787
10568TIP3    H253120   4.654   6.058  11.933  0.8841  1.1150 -0.5107
10569TIP3   OH253121   0.319   0.115   5.855  0.6618 -0.0705  0.1321
10569TIP3    H153122   0.359   0.101   5.769 -1.6702  0.2735 -1.0617
10569TIP3    H253123   0.226   0.129   5.836  0.2988  1.1915  2.6201
10570TIP3   OH253124   2.400   3.357  12.609 -0.5681 -0.7668  0.1200
10570TIP3    H153125   2.415   3.281  12.553 -1.3579 -0.7575 -0.1073
10570TIP3    H253126   2.473   3.416  12.588  0.2886 -1.6264  0.6143
10571TIP3   OH253127   2.455   5.836   6.147  0.2178 -0.1511  0.3450
10571TIP3    H153128   2.432   5.898   6.216  0.0833 -2.2969  2.2894
10571TIP3    H253129   2.417   5.752   6.176 -2.2510 -0.5650 -3.6743
10572TIP3   OH253130   4.009   6.280   4.919  0.0253 -0.1180  0.1852
10572TIP3    H153131   4.030   6.207   4.861  2.4202  0.2617  0.5248
10572TIP3    H253132   3.986   6.352   4.860 -2.3787 -1.1125 -0.1489
10573TIP3   OH253133   1.336   4.310  15.262 -0.4513  0.7293 -0.2116
10573TIP3    H153134   1.352   4.223  15.297  0.1326  0.0025 -2.1932
10573TIP3    H253135   1.254   4.338  15.303 -1.5611 -1.4824 -0.8507
10574TIP3   OH253136   4.511   4.681   2.556 -0.2386  0.0475  0.6331
10574TIP3    H153137   4.457   4.605   2.580 -1.7531  0.3618 -1.6716
10574TIP3    H253138   4.504   4.739   2.632 -0.5885 -1.2767  1.6460
10575TIP3   OH253139   5.230   2.593  10.982 -0.0567 -0.2662 -0.9016
10575TIP3    H153140   5.261   2.682  10.964  0.6821 -0.2646  0.2982
10575TIP3    H253141   5.145   2.605  11.024  0.5645 -0.0655  0.3279
10576TIP3   OH253142   6.111   0.670  15.261  1.0676  0.2409 -0.0985
10576TIP3    H153143   6.119   0.592  15.316  1.1031  0.7841  0.6674
10576TIP3    H253144   6.163   0.649  15.183  0.9667 -0.5514  0.0427
10577TIP3   OH253145   4.309   6.250  15.909 -0.0185 -0.8872  0.3004
10577TIP3    H153146   4.329   6.199  15.987 -1.0148 -2.3668 -0.4017
10577TIP3    H253147   4.250   6.319  15.940  0.1643 -1.0339  0.9749
10578TIP3   OH253148   1.375   3.102  16.468  0.0945  0.7900 -0.2656
10578TIP3    H153149   1.445   3.163  16.492  0.7196 -0.9843  2.7410
10578TIP3    H253150   1.419   3.019  16.452 -1.1002  0.1587 -0.3915
10579TIP3   OH253151   4.375   2.044   1.043  0.2146 -0.0329  0.7705
10579TIP3    H153152   4.298   2.009   0.999 -0.0827  0.1096  1.1729
10579TIP3    H253153   4.347   2.128   1.079  0.6178  0.1200  0.7334
10580TIP3   OH253154   2.208   4.231   3.610  0.8549  0.0918 -0.2882
10580TIP3    H153155   2.187   4.228   3.704  0.6320 -2.6161 -0.3833
10580TIP3    H253156   2.228   4.323   3.593 -0.5138  0.8853  2.1097
10581TIP3   OH253157   5.096   1.517  17.030  0.0104  0.2836  0.0312
10581TIP3    H153158   5.119   1.600  16.988 -1.8032  0.4169 -0.7487
10581TIP3    H253159   5.088   1.539  17.123  0.6294  0.7370 -0.0168
10582TIP3   OH253160   4.278   3.985   4.768  0.2865 -0.0595  0.2181
10582TIP3    H153161   4.371   3.978   4.744  0.5453  0.1271  1.1486
10582TIP3    H253162   4.256   3.900   4.806 -0.4647 -0.8013 -1.8270
10583TIP3   OH253163   0.135   0.201   3.845  0.2373 -0.0574  0.0347
10583TIP3    H153164   0.052   0.234   3.811  0.6043  0.6871 -0.1480
10583TIP3    H253165   0.191   0.278   3.852  1.1672 -0.6624 -0.5623
10584TIP3   OH253166   3.431   5.203  13.641 -0.1461 -0.1535 -0.7064
10584TIP3    H153167   3.376   5.195  13.563 -0.3155 -0.6865 -0.5400
10584TIP3    H253168   3.493   5.272  13.621 -0.5281  0.0697 -1.1132
10585TIP3   OH253169   4.239   2.728  16.567 -0.2031 -0.2143  0.3303
10585TIP3    H153170   4.260   2.756  16.656  2.4214  1.4073 -0.7554
10585TIP3    H253171   4.177   2.794  16.535  1.6049  1.2483 -0.2428
10586TIP3   OH253172   3.328   1.228   1.819 -0.1085 -0.1534  0.6107
10586TIP3    H153173   3.262   1.159   1.823  0.2053 -0.4428  0.8036
10586TIP3    H253174   3.396   1.200   1.880  0.7497 -0.4529 -0.4669
10587TIP3   OH253175   3.025   2.222   5.823 -0.2423  0.2956  0.2634
10587TIP3    H153176   2.969   2.156   5.865 -2.5158  1.2996 -1.1407
10587TIP3    H253177   3.062   2.271   5.897 -0.4979 -0.9249  1.2313
10588TIP3   OH253178   3.621   5.180  14.776  0.2846 -0.6413 -0.5365
10588TIP3    H153179   3.586   5.091  14.771  0.3513 -0.6759 -0.3895
10588TIP3    H253180   3.684   5.177  14.848 -0.7947 -0.0933  0.4482
10589TIP3   OH253181   3.687   4.704   4.155 -0.1598 -0.0791 -0.4114
10589TIP3    H153182   3.635   4.736   4.229  1.0751 -1.5111  1.1431
10589TIP3    H253183   3.637   4.728   4.077 -0.8924  2.5688  0.8324
10590TIP3   OH253184   0.895   2.781   4.745  0.0360  0.2894 -0.0157
10590TIP3    H153185   0.989   2.799   4.755  0.0863  0.4236 -0.7082
10590TIP3    H253186   0.892   2.705   4.687 -0.2375 -0.7070  1.2744
10591TIP3   OH253187   0.777   3.467  15.307 -0.3418 -0.0362  0.4300
10591TIP3    H153188   0.847   3.512  15.260  0.1064 -0.3545  0.7899
10591TIP3    H253189   0.709   3.453  15.242  0.5506 -1.0891 -0.2753
10592TIP3   OH253190   2.484   4.545  11.583 -0.4755  0.0168 -0.2421
10592TIP3    H153191   2.573   4.576  11.601 -0.5544 -0.6046  1.3119
10592TIP3    H253192   2.482   4.528  11.489  0.8958  0.5174 -0.3640
10593TIP3   OH253193   5.303   4.932  15.000 -0.8803 -0.2112 -0.6781
10593TIP3    H153194   5.237   4.955  14.935 -0.5901 -1.1338 -1.3132
10593TIP3    H253195   5.308   4.836  14.995  0.1605 -0.1776 -0.2965
10594TIP3   OH253196   3.432   3.695   2.466  0.0529 -0.1071  0.4545
10594TIP3    H153197   3.355   3.654   2.505 -0.9853  2.6472  1.3929
10594TIP3    H253198   3.441   3.779   2.512  2.3391  0.5650 -1.1231
10595TIP3   OH253199   3.140   6.482   2.009 -0.0542 -0.0522  0.1083
10595TIP3    H153200   3.125   6.576   1.998 -2.2791 -0.4358 -0.3705
10595TIP3    H253201   3.229   6.468   1.976 -0.1085  1.7106 -0.8514
10596TIP3   OH253202   6.161   5.760   3.819  0.4091 -0.3326 -0.2092
10596TIP3    H153203   6.110   5.837   3.843 -1.4600 -1.6597  0.1418
10596TIP3    H253204   6.128   5.735   3.733  0.3478 -1.2918  0.0927
10597TIP3   OH253205   0.950   2.854   3.935  0.8772 -0.0190  0.3912
10597TIP3    H153206   0.863   2.885   3.959  0.3131 -0.7550 -0.6986
10597TIP3    H253207   0.984   2.815   4.016  0.2175  0.2854  0.8218
10598TIP3   OH253208   5.945   0.260  11.522 -0.4746  0.5740 -0.8287
10598TIP3    H153209   5.871   0.223  11.569 -0.5506  0.8298 -0.7425
10598TIP3    H253210   5.914   0.347  11.494  0.6309  1.6942  1.3507
10599TIP3   OH253211   5.831   5.903  14.689 -0.2624 -0.5615  0.5435
10599TIP3    H153212   5.744   5.942  14.686 -0.4855 -1.0236  0.8460
10599TIP3    H253213   5.816   5.811  14.666 -0.0117 -0.8860  1.6502
10600TIP3   OH253214   0.256   3.862  15.774  0.3296  0.3064 -0.1702
10600TIP3    H153215   0.253   3.773  15.739  0.7926  0.1995  0.0644
10600TIP3    H253216   0.257   3.850  15.869  1.1141  0.5470 -0.1517
10601TIP3   OH253217   0.615   3.921  11.784 -0.0076 -0.2431  0.3095
10601TIP3    H153218   0.637   4.014  11.793 -0.0243  0.0402 -2.1224
10601TIP3    H253219   0.529   3.912  11.825  0.1385  0.7567  0.8343
10602TIP3   OH253220   4.743   2.971  13.031  0.3051 -0.5970 -0.7358
10602TIP3    H153221   4.748   2.969  12.935  0.8032  2.2831 -0.8002
10602TIP3    H253222   4.835   2.965  13.059  0.3142  0.6430 -0.4987
10603TIP3   OH253223   1.126   6.661   4.966  0.6503 -0.2633 -0.1862
10603TIP3    H153224   1.094   6.751   4.974  2.5493  0.4498 -0.3609
10603TIP3    H253225   1.059   6.608   5.009 -2.0330  0.8887 -2.6934
10604TIP3   OH253226   1.887   3.988  13.799 -0.2982 -0.1286  0.3727
10604TIP3    H153227   1.848   3.992  13.886 -2.2625  0.7199 -0.5035
10604TIP3    H253228   1.834   3.924  13.752  2.2011 -2.3502  0.4517
10605TIP3   OH253229   1.120   0.602  12.891  0.1389  0.3925  0.2067
10605TIP3    H153230   1.069   0.681  12.873 -0.0157  0.1147 -0.6124
10605TIP3    H253231   1.191   0.604  12.826 -0.1983 -0.4378 -0.1865
10606TIP3   OH253232   0.252   5.908  14.876 -0.6389  0.2354  0.1732
10606TIP3    H153233   0.329   5.950  14.914 -0.0697  0.1307 -0.8407
10606TIP3    H253234   0.237   5.955  14.794 -0.5903 -0.8682 -0.4886
10607TIP3   OH253235   3.892   1.591  14.497 -0.1855  0.4780  0.0340
10607TIP3    H153236   3.856   1.642  14.569 -0.4035 -1.4979  1.3503
10607TIP3    H253237   3.951   1.528  14.539  2.1486  1.3639 -1.7787
10608TIP3   OH253238   1.441   1.542   2.695  0.2546 -0.1345 -0.3190
10608TIP3    H153239   1.494   1.463   2.704  1.1512  0.4220 -0.6425
10608TIP3    H253240   1.416   1.543   2.603 -0.7851 -0.6892 -0.0451
10609TIP3   OH253241   2.701   1.302  13.642 -0.4837  0.2670  0.5869
10609TIP3    H153242   2.767   1.340  13.700  0.4109  1.0887 -0.9180
10609TIP3    H253243   2.625   1.288  13.698 -0.0732  2.2092  1.6981
10610TIP3   OH253244   3.904   4.697   3.428  0.4654 -0.0070  0.3922
10610TIP3    H153245   3.956   4.728   3.502 -0.3961  0.8488  0.6410
10610TIP3    H253246   3.967   4.651   3.372  1.2395 -0.0871  1.3242
10611TIP3   OH253247   0.572   0.905   4.083 -0.3019 -0.2408  0.1301
10611TIP3    H153248   0.620   0.944   4.010 -0.0220 -0.3815  0.2379
10611TIP3    H253249   0.482   0.935   4.072 -0.7220 -1.9826 -1.5031
10612TIP3   OH253250   6.617   5.508  16.486 -0.0345 -0.0072  0.3356
10612TIP3    H153251   6.700   5.539  16.450  0.1778 -0.8723  0.0795
10612TIP3    H253252   6.627   5.515  16.581  0.2427  0.1180  0.2971
10613TIP3   OH253253   1.180   4.007   5.693  0.1017 -0.8418  0.1725
10613TIP3    H153254   1.144   4.020   5.605 -0.5948  0.7676  0.6760
10613TIP3    H253255   1.275   4.003   5.679 -0.0735 -1.8587 -0.7947
10614TIP3   OH253256   3.148   2.217   2.756 -0.0443 -0.0220 -0.3399
10614TIP3    H153257   3.076   2.156   2.769  1.2355 -1.5128 -0.1260
10614TIP3    H253258   3.139   2.244   2.665 -0.8397 -0.2276 -0.3322
10615TIP3   OH253259   4.948   1.765   0.858 -0.6566  0.8153  0.2510
10615TIP3    H153260   4.973   1.767   0.950 -2.2496 -1.1060  0.7524
10615TIP3    H253261   5.025   1.729   0.813 -1.2973 -2.1405  1.3852
10616TIP3   OH253262   2.797   1.630  13.774 -0.5040 -0.0465 -0.0250
10616TIP3    H153263   2.778   1.550  13.823 -1.4057 -0.8270 -1.5728
10616TIP3    H253264   2.714   1.678  13.773 -0.0417  0.7681  0.6474
10617TIP3   OH253265   0.712   4.232   3.204  0.7339 -0.5191 -0.1629
10617TIP3    H153266   0.733   4.260   3.115  2.9974  0.7213  0.6998
10617TIP3    H253267   0.723   4.137   3.203  5.8249 -0.0617 -0.0260
10618TIP3   OH253268   5.782   4.068   2.367 -0.1284 -0.0698  0.8160
10618TIP3    H153269   5.769   4.044   2.275 -0.6140  1.1655  0.5444
10618TIP3    H253270   5.762   3.988   2.416 -2.6484  0.0158  0.0151
10619TIP3   OH253271   4.242   2.140  11.824  0.7040 -0.9010  0.4657
10619TIP3    H153272   4.291   2.145  11.742  0.8524  0.7619  0.6503
10619TIP3    H253273   4.292   2.194  11.885 -1.2083  0.5943  0.7288
10620TIP3   OH253274   3.518   6.624   2.709 -0.3220 -0.2905 -0.3843
10620TIP3    H153275   3.567   6.685   2.654 -1.6251  0.9613 -0.1933
10620TIP3    H253276   3.502   6.548   2.653 -0.1700  0.2600 -1.1780
10621TIP3   OH253277   1.074   4.077  11.299  0.3692  0.4035  0.2933
10621TIP3    H153278   1.069   4.077  11.203 -0.3306  1.0430  0.3281
10621TIP3    H253279   1.002   4.135  11.327  1.2445  1.0754  1.1694
10622TIP3   OH253280   4.477   5.276  15.494  0.2224 -0.1305 -0.3601
10622TIP3    H153281   4.496   5.356  15.544 -0.7563  0.0448 -0.2616
10622TIP3    H253282   4.414   5.228  15.548  1.0911 -1.1613 -0.2432
10623TIP3   OH253283   4.672   1.554  14.564  0.1321  0.2932 -0.1883
10623TIP3    H153284   4.737   1.596  14.509 -0.7851  0.0068 -1.5152
10623TIP3    H253285   4.610   1.515  14.503 -0.3454 -0.9285  1.0365
10624TIP3   OH253286   0.466   4.675   0.055 -0.3746 -0.4054  0.3316
10624TIP3    H153287   0.417   4.665  -0.027 -1.6921 -4.0576  1.4590
10624TIP3    H253288   0.558   4.677   0.028 -0.8564 -0.2306 -1.3349
10625TIP3   OH253289   0.908   6.743   1.538 -0.4989  0.3375 -0.4898
10625TIP3    H153290   0.823   6.760   1.580  0.8660  0.0979  2.5672
10625TIP3    H253291   0.908   6.649   1.520 -1.0783  0.4295 -0.9641
10626TIP3   OH253292   3.179   5.524  17.000  0.0047  0.1766  0.1585
10626TIP3    H153293   3.152   5.484  16.918 -0.5169  2.7838 -1.0052
10626TIP3    H253294   3.107   5.508  17.060 -0.4781 -0.0512 -0.4760
10627TIP3   OH253295   5.671   6.210  13.464 -0.1834 -0.2963  0.9244
10627TIP3    H153296   5.614   6.139  13.435 -1.3757  0.1589  2.1436
10627TIP3    H253297   5.661   6.278  13.398  1.0986 -1.2944 -0.3474
10628TIP3   OH253298   5.216   3.704   0.442  0.2011 -0.1488 -0.0996
10628TIP3    H153299   5.308   3.717   0.421  0.5785 -2.2544  0.1248
10628TIP3    H253300   5.206   3.741   0.530  0.8745 -0.0639 -0.0566
10629TIP3   OH253301   5.645   3.537  17.191 -0.4424  0.0848  0.1326
10629TIP3    H153302   5.726   3.497  17.160  0.3066  0.2787  1.8365
10629TIP3    H253303   5.581   3.465  17.192  0.0867 -0.3837  0.2337
10630TIP3   OH253304   5.733   4.293   5.045  0.5007  0.0929  0.3878
10630TIP3    H153305   5.712   4.327   4.958 -0.3639 -0.3804  0.4020
10630TIP3    H253306   5.677   4.344   5.104  0.1646 -0.4500  0.5398
10631TIP3   OH253307   3.150   2.281   6.099  0.2382 -0.3004 -0.0882
10631TIP3    H153308   3.063   2.285   6.140  0.0528 -0.8104 -0.4246
10631TIP3    H253309   3.172   2.373   6.081 -0.5403 -0.2181 -0.6449
10632TIP3   OH253310   5.064   5.758  14.325  0.2970 -0.2826  0.4030
10632TIP3    H153311   5.054   5.670  14.290  0.6364  0.1389 -0.7759
10632TIP3    H253312   5.154   5.782  14.304  1.1048 -0.7382  3.2406
10633TIP3   OH253313   0.203   0.702  16.828  0.0288 -0.0314  0.3827
10633TIP3    H153314   0.239   0.648  16.898  1.7720 -0.6633 -0.9497
10633TIP3    H253315   0.201   0.791  16.865  1.6605 -0.2266  0.9761
10634TIP3   OH253316   4.585   5.014   2.419  0.4351 -0.2310  0.1437
10634TIP3    H153317   4.667   5.047   2.381  1.0675  0.1455  1.7809
10634TIP3    H253318   4.600   5.018   2.514 -0.7227 -2.0629  0.4271
10635TIP3   OH253319   3.490   2.759   3.475  0.0273  0.2896  0.2314
10635TIP3    H153320   3.487   2.757   3.571 -1.7065  1.8609  0.2425
10635TIP3    H253321   3.400   2.737   3.448  0.5516 -0.3201 -1.0468
10636TIP3   OH253322   5.752   2.037  13.706  0.5621  0.2628  0.3918
10636TIP3    H153323   5.677   2.071  13.657  0.0836  0.8372  1.5090
10636TIP3    H253324   5.767   1.949  13.669  0.3401  0.7604 -0.9094
10637TIP3   OH253325   5.916   5.310   4.608  0.6482  0.5790  0.0032
10637TIP3    H153326   5.947   5.224   4.582  1.3118  0.9791 -0.5472
10637TIP3    H253327   5.927   5.365   4.530 -3.3374  0.2870 -0.8330
10638TIP3   OH253328   4.851   4.430   5.336 -0.1867 -0.8366 -0.5993
10638TIP3    H153329   4.861   4.374   5.259  1.0411 -1.7436  0.1969
10638TIP3    H253330   4.894   4.381   5.407  1.3739  1.3235  0.0098
10639TIP3   OH253331   1.571   5.845  10.929 -0.6952 -0.0158 -0.0896
10639TIP3    H153332   1.534   5.933  10.942 -0.3075  0.3021 -1.0924
10639TIP3    H253333   1.558   5.801  11.013  0.2245  1.4098  0.8163
10640TIP3   OH253334   1.256   5.473  14.520  0.2390 -0.1195 -0.1377
10640TIP3    H153335   1.190   5.484  14.452 -0.9216  2.3396  1.3002
10640TIP3    H253336   1.240   5.385  14.555  0.1685 -0.9847 -2.2809
10641TIP3   OH253337   4.182   5.843  16.119  0.6109 -0.1895  0.4701
10641TIP3    H153338   4.244   5.825  16.048  0.0639 -0.0130 -0.0601
10641TIP3    H253339   4.102   5.798  16.092 -0.0277  1.0370  0.3008
10642TIP3   OH253340   0.386   1.666  14.315 -0.1451  0.4625 -0.1452
10642TIP3    H153341   0.481   1.663  14.299  0.0656  1.8862  0.7745
10642TIP3    H253342   0.348   1.671  14.227  0.6585  0.3802 -0.5057
10643TIP3   OH253343   2.477   1.018  15.390  0.0202  0.0454 -0.2501
10643TIP3    H153344   2.541   1.088  15.396  1.2093 -1.0464 -0.1231
10643TIP3    H253345   2.528   0.937  15.396 -1.1290 -0.8766 -2.1901
10644TIP3   OH253346   3.098   4.915   6.097 -0.4353  0.3214  0.0636
10644TIP3    H153347   3.077   4.838   6.045 -1.0043 -0.5145  1.5145
10644TIP3    H253348   3.130   4.979   6.033 -1.8839 -0.4008 -1.4236
10645TIP3   OH253349   1.848   4.595  14.101 -0.6487 -0.5579 -0.3706
10645TIP3    H153350   1.873   4.647  14.024  1.2873 -1.3813 -0.3367
10645TIP3    H253351   1.770   4.546  14.073 -2.5144  2.3372 -0.3842
10646TIP3   OH253352   4.396   0.323  10.172  0.2643 -0.4752 -0.8617
10646TIP3    H153353   4.368   0.408  10.137  0.2138  0.6893  1.8293
10646TIP3    H253354   4.489   0.334  10.190  0.0996 -0.7224  0.1897
10647TIP3   OH253355   3.677   4.799  11.631 -0.0598 -0.5243  0.5488
10647TIP3    H153356   3.656   4.752  11.711  0.5289 -0.6396  0.6340
10647TIP3    H253357   3.758   4.759  11.599  0.1577  0.0674  0.3416
10648TIP3   OH253358   2.823   1.687  14.379 -0.1891  0.1211 -0.3741
10648TIP3    H153359   2.815   1.712  14.287  0.7469  3.2496  0.3339
10648TIP3    H253360   2.736   1.701  14.415 -0.7552 -1.8374 -0.9027
10649TIP3   OH253361   2.900   3.806   4.584  0.5197  0.6786 -0.3515
10649TIP3    H153362   2.810   3.833   4.598  1.2934  2.2376  1.9915
10649TIP3    H253363   2.937   3.872   4.525  0.6034  1.0781  0.1407
10650TIP3   OH253364   0.198   3.983   2.855  0.1195  0.3159 -0.2452
10650TIP3    H153365   0.268   3.992   2.920  0.3746  1.4605 -0.6681
10650TIP3    H253366   0.128   4.039   2.887 -0.7744 -1.1008  0.3642
10651TIP3   OH253367   1.448   6.683   4.130 -0.4653 -0.3808  0.1721
10651TIP3    H153368   1.488   6.651   4.050  1.8991  2.4939  0.1162
10651TIP3    H253369   1.382   6.746   4.100 -2.3746 -2.2015  0.4083
10652TIP3   OH253370   1.592   5.799   1.431  0.0878 -0.1331 -0.1155
10652TIP3    H153371   1.575   5.881   1.477  1.6400  0.3532 -0.3786
10652TIP3    H253372   1.653   5.823   1.361  0.6299 -1.5240 -0.1348
10653TIP3   OH253373   4.612   1.634  11.836  0.7582 -0.2214 -0.1501
10653TIP3    H153374   4.525   1.665  11.861  0.4864 -0.7931 -0.3749
10653TIP3    H253375   4.598   1.542  11.811  1.4564 -0.3619 -0.0152
10654TIP3   OH253376   0.296   6.400   0.354  0.0955  0.2765 -0.5804
10654TIP3    H153377   0.234   6.462   0.392 -0.0565  0.4413 -1.0883
10654TIP3    H253378   0.375   6.408   0.407 -0.1140  0.5014 -0.3026
10655TIP3   OH253379   1.699   5.324  13.215 -0.1227  0.8335 -0.5476
10655TIP3    H153380   1.672   5.368  13.135  2.6314  0.6519 -1.6446
10655TIP3    H253381   1.731   5.395  13.271 -0.7090  0.7992 -0.1644
10656TIP3   OH253382   6.276   4.695   6.166  0.4841  0.4546  0.2552
10656TIP3    H153383   6.341   4.687   6.235  1.1757 -1.8457 -0.6414
10656TIP3    H253384   6.196   4.723   6.212  1.5971  1.4564  1.6087
10657TIP3   OH253385   2.578   1.554   4.811 -0.0643 -0.0262  0.1144
10657TIP3    H153386   2.581   1.488   4.741 -0.8079 -0.5646  0.5819
10657TIP3    H253387   2.634   1.625   4.779  0.2545 -0.6164 -0.6688
10658TIP3   OH253388   5.965   0.459  12.765  0.2314  0.0124 -0.3721
10658TIP3    H153389   5.954   0.477  12.672  0.7232 -0.1777 -0.4690
10658TIP3    H253390   5.921   0.532  12.809 -1.6373 -0.8720 -0.7415
10659TIP3   OH253391   2.002   3.511   1.441 -0.2425 -0.3540  0.3276
10659TIP3    H153392   2.009   3.476   1.352 -0.1101  1.0128 -0.2086
10659TIP3    H253393   1.927   3.570   1.438 -0.8342 -1.0314  1.3794
10660TIP3   OH253394   2.309   0.150   4.409 -0.1042 -0.0021  0.3855
10660TIP3    H153395   2.266   0.097   4.342 -0.3582  1.1548 -0.3924
10660TIP3    H253396   2.385   0.098   4.435 -2.2530 -2.3408  2.2359
10661TIP3   OH253397   2.406   4.117  12.124 -0.3475  0.0313 -0.0793
10661TIP3    H153398   2.415   4.207  12.154  0.8377 -0.0611 -0.1153
10661TIP3    H253399   2.316   4.110  12.094 -0.5583  1.0910  0.2912
10662TIP3   OH253400   0.782   5.569   5.090 -0.9317 -0.5353 -0.1398
10662TIP3    H153401   0.706   5.514   5.111 -0.6082 -0.8518  0.2056
10662TIP3    H253402   0.827   5.580   5.174  1.5536 -3.5715 -1.0041
10663TIP3   OH253403   5.783   3.828  14.453 -0.0047  0.1498  0.3313
10663TIP3    H153404   5.702   3.875  14.439  0.3614  0.1528 -1.9910
10663TIP3    H253405   5.814   3.857  14.539 -1.4382  1.6238  0.3594
10664TIP3   OH253406   0.445   1.778  14.904 -0.1217 -0.6556  0.8940
10664TIP3    H153407   0.384   1.745  14.969  0.6181 -2.0666  0.9161
10664TIP3    H253408   0.447   1.709  14.837  0.7231 -0.1984  0.4389
10665TIP3   OH253409   0.950   6.182  12.242 -0.0441  0.8923 -0.1945
10665TIP3    H153410   0.862   6.163  12.274  0.0610  0.5410 -0.1076
10665TIP3    H253411   0.995   6.221  12.317  0.7522 -1.5805  0.6711
10666TIP3   OH253412   5.407   5.039   6.246  0.1509 -0.2969  0.7042
10666TIP3    H153413   5.423   4.947   6.225 -1.1524 -1.0928  2.9583
10666TIP3    H253414   5.385   5.079   6.162 -2.4422 -2.7776  0.0992
10667TIP3   OH253415   4.829   0.751  12.645  0.3445 -0.4086  0.3152
10667TIP3    H153416   4.852   0.715  12.731  0.9914 -0.0898  0.2776
10667TIP3    H253417   4.745   0.795  12.660  1.6367  1.7561  1.3557
10668TIP3   OH253418   6.327   0.610  13.666 -0.8040  0.2936 -0.4574
10668TIP3    H153419   6.355   0.550  13.598  0.2473  0.3099 -0.0512
10668TIP3    H253420   6.232   0.612  13.659 -0.7662 -0.4854 -1.2537
10669TIP3   OH253421   6.622   5.058  15.127  0.0091  0.2790  0.4719
10669TIP3    H153422   6.631   5.116  15.051 -0.9130  0.4231  0.4710
10669TIP3    H253423   6.551   5.096  15.178  1.3222  0.7850  1.9553
10670TIP3   OH253424   2.336   4.496   6.171 -0.5291 -0.7280 -0.2133
10670TIP3    H153425   2.297   4.486   6.258 -3.1385  0.2796 -1.2186
10670TIP3    H253426   2.414   4.549   6.186 -0.4863 -1.2769  1.6143
10671TIP3   OH253427   6.355   3.238   0.476 -0.1033 -0.5587  0.0018
10671TIP3    H153428   6.291   3.231   0.546 -0.8182 -0.0228 -0.5981
10671TIP3    H253429   6.307   3.274   0.401  1.1146  0.8709 -0.1351
10672TIP3   OH253430   3.537   2.568  13.694 -0.6677  0.8800  0.4290
10672TIP3    H153431   3.554   2.490  13.641  1.0308  0.5771  1.3955
10672TIP3    H253432   3.518   2.637  13.630  2.2435  0.7369 -0.6371
10673TIP3   OH253433   6.734   5.511   3.893 -0.2709 -0.0167  0.0408
10673TIP3    H153434   6.663   5.542   3.837  0.8265  1.5299 -0.5333
10673TIP3    H253435   6.799   5.476   3.833  0.3094  0.3786  0.4355
10674TIP3   OH253436   2.753   5.113   4.045  0.2392  0.1116 -0.3988
10674TIP3    H153437   2.727   5.204   4.034 -1.4952 -0.2994  0.1337
10674TIP3    H253438   2.841   5.117   4.082  0.0585  1.5787 -0.1141
10675TIP3   OH253439   1.374   6.572   4.368 -0.4556  0.0558 -0.3908
10675TIP3    H153440   1.294   6.594   4.415  0.8496 -0.0808  1.9386
10675TIP3    H253441   1.362   6.610   4.281 -3.2439 -0.3674 -0.2304
10676TIP3   OH253442   3.599   0.350  15.854  0.3460  0.2432  0.1277
10676TIP3    H153443   3.619   0.295  15.779 -0.8515 -1.4637  1.0274
10676TIP3    H253444   3.511   0.385  15.836 -0.1081 -0.4826  0.8980
10677TIP3   OH253445   2.023   0.396  11.549 -0.1611 -0.3936  0.5392
10677TIP3    H153446   1.969   0.369  11.475  0.0036 -0.0205  0.2834
10677TIP3    H253447   2.076   0.318  11.569  0.7130 -0.0914 -0.5651
10678TIP3   OH253448   5.679   2.360   4.946 -0.6291  0.3622  0.0212
10678TIP3    H153449   5.683   2.267   4.967  1.5202  0.8033  1.7567
10678TIP3    H253450   5.601   2.391   4.992 -1.4888 -0.5967 -0.7561
10679TIP3   OH253451   6.111   4.387   1.891  0.6638 -0.2638  0.1790
10679TIP3    H153452   6.171   4.419   1.824  0.1885 -2.4504 -1.3322
10679TIP3    H253453   6.168   4.345   1.956  0.9023 -0.8286 -0.3941
10680TIP3   OH253454   5.631   5.542  12.332  0.1871  0.3882  0.6328
10680TIP3    H153455   5.536   5.550  12.338  0.0169 -0.2713 -0.9686
10680TIP3    H253456   5.646   5.450  12.311  1.1771  0.5116  0.7667
10681TIP3   OH253457   6.433   4.297  13.419 -0.8968  0.6246  0.5028
10681TIP3    H153458   6.396   4.245  13.347  0.7163  1.0488 -0.6834
10681TIP3    H253459   6.524   4.268  13.424 -1.0016  0.5904  2.4200
10682TIP3   OH253460   4.354   1.183  14.141 -0.3088  0.0865  0.2855
10682TIP3    H153461   4.369   1.193  14.235 -2.2403  0.9744  0.5161
10682TIP3    H253462   4.341   1.088  14.130 -2.9815  0.2647  1.4097
10683TIP3   OH253463   0.028   3.009  11.711 -0.2675 -0.2619  0.3821
10683TIP3    H153464  -0.039   2.943  11.728 -2.4533  1.2144 -2.1096
10683TIP3    H253465   0.090   2.966  11.652  0.8453 -1.5130  2.4041
10684TIP3   OH253466   3.215   3.616  10.276 -0.4890  0.8362 -0.2094
10684TIP3    H153467   3.288   3.565  10.242 -1.6359 -0.8816 -0.1343
10684TIP3    H253468   3.137   3.572  10.243 -1.5353  1.6318  1.1411
10685TIP3   OH253469   5.499   2.734   4.475  0.2101 -0.4413  0.5276
10685TIP3    H153470   5.542   2.804   4.425 -1.3951  0.6939  0.6735
10685TIP3    H253471   5.487   2.772   4.562 -0.6075 -0.9169  0.6272
10686TIP3   OH253472   5.327   6.709   1.541  0.4892  0.1800  0.2992
10686TIP3    H153473   5.386   6.667   1.477  2.2079  0.7918  1.4567
10686TIP3    H253474   5.324   6.647   1.614 -1.3241 -0.4260 -0.2749
10687TIP3   OH253475   0.538   0.674  14.281  0.0280 -0.4621 -0.0452
10687TIP3    H153476   0.512   0.590  14.318  0.9787 -1.1846 -0.9880
10687TIP3    H253477   0.506   0.671  14.191 -0.1490  0.2915 -0.0100
10688TIP3   OH253478   1.033   0.864  13.291  0.4945  0.4390 -0.9541
10688TIP3    H153479   1.002   0.784  13.333 -1.4786  1.8597  0.3762
10688TIP3    H253480   0.984   0.869  13.209  1.5640 -0.3563 -1.6593
10689TIP3   OH253481   2.749   6.639  13.641 -0.2618  0.4588  0.5463
10689TIP3    H153482   2.663   6.643  13.599  0.6463  0.6898 -1.3246
10689TIP3    H253483   2.738   6.688  13.723 -2.5277 -1.5361  1.4995
10690TIP3   OH253484   5.957   2.213   4.046  0.0272  0.4633  0.5243
10690TIP3    H153485   6.017   2.286   4.035 -0.8853  0.9041 -1.7934
10690TIP3    H253486   5.876   2.241   4.003 -1.1114 -0.9702  1.6825
10691TIP3   OH253487   1.425   3.173   2.626 -0.2926 -0.2902 -0.0212
10691TIP3    H153488   1.395   3.259   2.598  0.1875 -0.6260 -1.6314
10691TIP3    H253489   1.347   3.117   2.618 -0.5978 -0.0153  1.0017
10692TIP3   OH253490   5.503   5.460   5.874  0.1454  0.8810  0.0105
10692TIP3    H153491   5.469   5.550   5.872 -1.2506  0.3561 -1.7750
10692TIP3    H253492   5.433   5.409   5.914  0.5607  0.4499  0.1903
10693TIP3   OH253493   4.796   3.237   4.764  0.1391 -0.3166  0.2631
10693TIP3    H153494   4.767   3.311   4.818 -2.4230 -0.1910 -1.1876
10693TIP3    H253495   4.775   3.160   4.816  2.2112 -0.0872  1.5005
10694TIP3   OH253496   6.146   0.868   1.109 -0.8214  0.5428 -0.1565
10694TIP3    H153497   6.222   0.850   1.166  0.1269 -0.8712 -1.8423
10694TIP3    H253498   6.111   0.951   1.143  0.9223  0.7562  1.2302
10695TIP3   OH253499   0.333   2.530   0.322  0.0227  0.5389  0.1432
10695TIP3    H153500   0.297   2.607   0.279  0.3779  1.1270  0.9011
10695TIP3    H253501   0.362   2.560   0.408  2.4043  0.1097 -0.4512
10696TIP3   OH253502   0.737   5.789   1.774 -0.2613  0.5589  0.0824
10696TIP3    H153503   0.817   5.776   1.824  0.0129 -0.1311 -0.5229
10696TIP3    H253504   0.670   5.811   1.839  0.2169  0.2422  0.6751
10697TIP3   OH253505   4.687   1.814  14.172  0.4897 -0.6644  0.0508
10697TIP3    H153506   4.669   1.721  14.187  3.8958 -1.3097  0.6122
10697TIP3    H253507   4.697   1.850  14.260 -1.1235  0.3135 -0.1608
10698TIP3   OH253508   5.036   4.935  14.603 -0.0798 -0.4800  0.1684
10698TIP3    H153509   5.012   5.007  14.545 -0.4173 -0.3150  0.5098
10698TIP3    H253510   5.102   4.886  14.554  0.3812  0.2402  0.0532
10699TIP3   OH253511   6.468   1.415   4.734  0.7702  0.1902 -0.0815
10699TIP3    H153512   6.545   1.387   4.685  1.4807 -0.8435  1.5611
10699TIP3    H253513   6.504   1.460   4.810 -0.3428  3.5359 -1.4796
10700TIP3   OH253514   1.457   3.421   5.555  0.2299  0.5892 -0.1564
10700TIP3    H153515   1.536   3.464   5.587  0.5814 -0.8858  1.0104
10700TIP3    H253516   1.489   3.356   5.492 -0.4134  3.0622 -3.1052
10701TIP3   OH253517   0.570   1.132  14.239  0.4648  0.3487 -0.0321
10701TIP3    H153518   0.522   1.096  14.165 -0.4082  1.6663 -0.1322
10701TIP3    H253519   0.601   1.055  14.287  0.2590 -0.5160 -1.2552
10702TIP3   OH253520   3.879   6.335  12.555 -0.0320  0.2963  0.1859
10702TIP3    H153521   3.806   6.391  12.581 -0.6784  0.5335 -1.9745
10702TIP3    H253522   3.949   6.355  12.617 -0.9987  1.8581  0.7934
10703TIP3   OH253523   3.542   5.297   0.313 -0.6583  0.2639 -0.0208
10703TIP3    H153524   3.554   5.391   0.326 -0.9707  0.4493 -1.0367
10703TIP3    H253525   3.493   5.290   0.231 -2.0199 -0.7173  0.8494
10704TIP3   OH253526   1.363   0.241   3.289 -0.4782  0.2065  0.2186
10704TIP3    H153527   1.287   0.267   3.342 -1.2140  1.8351 -1.5565
10704TIP3    H253528   1.368   0.308   3.220 -0.1538 -2.3380 -2.3562
10705TIP3   OH253529   3.416   3.921   3.280  0.5603  0.1559 -0.2728
10705TIP3    H153530   3.420   3.882   3.368  1.0561  1.9184  0.5009
10705TIP3    H253531   3.339   3.880   3.240  0.6225 -1.0422  0.7939
10706TIP3   OH253532   0.499   5.281   1.881 -0.1036 -0.1948  0.3256
10706TIP3    H153533   0.428   5.220   1.902  0.1007 -0.5933 -0.1221
10706TIP3    H253534   0.515   5.329   1.962 -0.9925  0.0038  0.3902
10707TIP3   OH253535   0.523   0.216   3.256 -0.3391 -0.1020 -0.0614
10707TIP3    H153536   0.440   0.262   3.245  0.5920  1.9518  1.3051
10707TIP3    H253537   0.515   0.173   3.341  1.2093  2.7609  1.5769
10708TIP3   OH253538   2.739   2.267  11.811  0.4214  0.1142 -0.4345
10708TIP3    H153539   2.772   2.357  11.803 -0.0477  0.3795  0.4755
10708TIP3    H253540   2.652   2.270  11.772  0.4001  0.0682 -0.3912
10709TIP3   OH253541   5.170   4.565   1.282  0.0859 -0.2856 -0.4212
10709TIP3    H153542   5.156   4.657   1.261 -0.2997 -0.6029 -1.5864
10709TIP3    H253543   5.200   4.566   1.373  0.4992  1.0190 -0.5550
10710TIP3   OH253544   4.218   1.620   1.842  0.4497 -0.1535 -0.5830
10710TIP3    H153545   4.225   1.539   1.792 -0.2542 -1.4186  1.2974
10710TIP3    H253546   4.138   1.661   1.809 -0.0332 -0.9939 -0.4919
10711TIP3   OH253547   1.694   4.277   3.943 -0.7103  0.4919  0.1385
10711TIP3    H153548   1.710   4.287   3.849  0.1544 -1.2491  0.0778
10711TIP3    H253549   1.599   4.290   3.952 -1.0846 -1.0781 -1.2385
10712TIP3   OH253550   4.535   3.239   0.930  0.4522  0.6616 -0.2140
10712TIP3    H153551   4.494   3.175   0.989  1.8077  0.4117  0.4786
10712TIP3    H253552   4.474   3.246   0.856 -0.0359 -0.9288  0.0152
10713TIP3   OH253553   3.797   1.627  11.475  0.3917 -0.5508 -0.3443
10713TIP3    H153554   3.741   1.618  11.398  1.4762 -1.9912 -1.0004
10713TIP3    H253555   3.886   1.633  11.439  0.7977  0.0397  0.7438
10714TIP3   OH253556   2.728   6.622   0.838  0.2228 -0.1881  0.3401
10714TIP3    H153557   2.759   6.562   0.905 -0.4070 -1.9663 -0.9435
10714TIP3    H253558   2.804   6.637   0.782  0.1812 -0.3528  0.2406
10715TIP3   OH253559   5.828   1.417   3.919  0.2357 -0.0348  0.2576
10715TIP3    H153560   5.775   1.496   3.912 -0.2539 -0.4061 -0.2732
10715TIP3    H253561   5.790   1.357   3.856  1.7624 -0.0514 -0.6762
10716TIP3   OH253562   4.214   3.979  13.386 -0.1582  0.0738  0.7523
10716TIP3    H153563   4.301   3.987  13.424  0.5635 -1.3085 -0.5276
10716TIP3    H253564   4.172   3.907  13.435  0.4433 -1.1000 -0.4127
10717TIP3   OH253565   4.315   6.189   3.451  0.2116 -0.1612  0.1099
10717TIP3    H153566   4.353   6.101   3.451 -1.1292 -0.7501 -0.0262
10717TIP3    H253567   4.318   6.217   3.359  0.3519 -0.1889  0.1059
10718TIP3   OH253568   3.492   3.117  13.323  0.1128 -0.1344 -0.4685
10718TIP3    H153569   3.423   3.176  13.353  0.0080 -0.1860 -0.6097
10718TIP3    H253570   3.535   3.164  13.252  2.1706  1.1956  1.5695
10719TIP3   OH253571   1.600   5.096   3.067  0.2624 -0.1826  0.5725
10719TIP3    H153572   1.674   5.127   3.014  0.9149 -1.9064  0.4456
10719TIP3    H253573   1.570   5.174   3.114  1.1967  0.8559 -0.5173
10720TIP3   OH253574   2.723   2.538  13.019 -0.1587  0.0822  0.2544
10720TIP3    H153575   2.706   2.470  13.083  0.5235  0.3051  0.6816
10720TIP3    H253576   2.807   2.576  13.046 -0.6079  1.1958  0.1148
10721TIP3   OH253577   2.155   5.538  13.614 -0.1701  0.1087 -0.6414
10721TIP3    H153578   2.199   5.571  13.536 -0.8550 -1.9865 -1.9396
10721TIP3    H253579   2.113   5.456  13.586 -1.1187 -0.2510  1.7010
10722TIP3   OH253580   5.997   6.240   1.387  0.1441  0.8652 -0.1336
10722TIP3    H153581   5.926   6.177   1.380  0.5242  0.2423  1.4599
10722TIP3    H253582   5.960   6.322   1.354  0.0217 -0.4252 -3.3862
10723TIP3   OH253583   6.686   4.829  12.468  0.8109 -0.0111  0.4001
10723TIP3    H153584   6.639   4.910  12.450  0.9228 -0.1586 -0.6220
10723TIP3    H253585   6.640   4.762  12.417  0.4456 -0.6756  1.5930
10724TIP3   OH253586   4.322   6.552  15.133 -0.8501 -0.3089  0.3652
10724TIP3    H153587   4.415   6.536  15.118 -1.0874 -1.8487  0.4464
10724TIP3    H253588   4.296   6.611  15.062 -0.1032 -0.9265 -0.4385
10725TIP3   OH253589   3.638   3.934  10.535 -0.5259  0.5637  0.2119
10725TIP3    H153590   3.570   3.999  10.554 -3.1222 -2.3982  1.5568
10725TIP3    H253591   3.590   3.850  10.532  2.5226 -1.1764 -2.4967
10726TIP3   OH253592   6.073   2.059  17.013  0.3420  0.6126  0.1778
10726TIP3    H153593   6.032   2.135  16.971  0.1836  1.5870  2.0561
10726TIP3    H253594   6.150   2.094  17.058  0.5399 -0.4175  0.6638
10727TIP3   OH253595   1.376   6.032   6.245 -0.6080  0.4587  0.0875
10727TIP3    H153596   1.299   5.993   6.202 -0.0578 -0.2283 -0.2824
10727TIP3    H253597   1.431   5.957   6.268 -0.8980  0.8105  2.0205
10728TIP3   OH253598   6.444   5.215  16.070  0.2845  0.1014  0.3628
10728TIP3    H153599   6.492   5.220  16.153  1.0182  1.9794 -0.1595
10728TIP3    H253600   6.427   5.306  16.046  0.6865 -0.3977 -1.9086
10729TIP3   OH253601   2.092   3.408   6.233 -0.7685  0.2033  0.2347
10729TIP3    H153602   2.175   3.373   6.266 -1.0523 -0.3654  0.3470
10729TIP3    H253603   2.050   3.333   6.190 -1.2976  0.4501  0.3248
10730TIP3   OH253604   3.742   1.158   2.969 -0.2429  0.1664  0.1416
10730TIP3    H153605   3.786   1.092   2.914 -0.7749 -0.1905  0.1424
10730TIP3    H253606   3.719   1.228   2.909  0.4604  0.4227  0.1654
10731TIP3   OH253607   4.507   2.462   1.910  0.0255 -0.3845  0.9196
10731TIP3    H153608   4.430   2.479   1.856 -1.7758 -0.1553  3.4685
10731TIP3    H253609   4.531   2.548   1.945  1.0151 -0.5721  0.7192
10732TIP3   OH253610   3.985   5.897  14.400  0.5057  0.6999 -0.7073
10732TIP3    H153611   4.069   5.942  14.402  0.6590  0.4255 -0.9243
10732TIP3    H253612   3.995   5.831  14.331  0.6384 -0.3637  0.3201
10733TIP3   OH253613   0.617   5.203   4.462 -0.0759  0.1050  0.1113
10733TIP3    H153614   0.652   5.286   4.495 -0.0746 -0.7475  2.3654
10733TIP3    H253615   0.694   5.151   4.439 -0.0150  0.0730  0.3859
10734TIP3   OH253616   0.090   6.413  13.658  0.2148  0.5948  0.7557
10734TIP3    H153617   0.123   6.503  13.655 -1.1831  1.1391  0.8859
10734TIP3    H253618   0.105   6.379  13.570 -1.2927  1.7408  0.0302
10735TIP3   OH253619   3.240   1.856  11.019  0.6029  0.0770 -0.0408
10735TIP3    H153620   3.154   1.816  11.023  0.8765 -0.4811  0.4869
10735TIP3    H253621   3.274   1.833  10.933 -0.6253  2.1170 -1.1080
10736TIP3   OH253622   3.288   5.550   3.100  0.1346 -0.3242 -0.0913
10736TIP3    H153623   3.307   5.523   3.010  1.4310  1.1202 -0.2846
10736TIP3    H253624   3.332   5.635   3.109  0.9588 -0.9542  2.2457
10737TIP3   OH253625   3.384   4.833   2.395  0.0423  0.1990  0.0812
10737TIP3    H153626   3.334   4.914   2.395 -0.4717 -0.1091 -0.7730
10737TIP3    H253627   3.323   4.767   2.430  0.9327  0.4444  2.2051
10738TIP3   OH253628   5.212   1.820   4.305  0.0473  0.0973  0.2127
10738TIP3    H153629   5.207   1.913   4.285 -2.1540  0.1899  1.0048
10738TIP3    H253630   5.171   1.777   4.230 -1.4681 -0.0344  1.0973
10739TIP3   OH253631   4.470   1.665   5.412  0.0072  0.2427 -0.1172
10739TIP3    H153632   4.382   1.646   5.380 -0.0679 -0.3928  0.4584
10739TIP3    H253633   4.502   1.735   5.355 -0.0497 -1.0270 -1.7323
10740TIP3   OH253634   3.820   4.268  16.488  0.3020  0.1063 -0.1297
10740TIP3    H153635   3.853   4.348  16.527  1.0308 -0.7655  1.0818
10740TIP3    H253636   3.730   4.289  16.462 -0.0758  0.8216  1.7046
10741TIP3   OH253637   5.400   3.095   5.465  0.2750 -0.4133  0.2651
10741TIP3    H153638   5.309   3.114   5.441 -0.0565 -1.1756  0.8905
10741TIP3    H253639   5.414   3.005   5.438  1.2688  0.1201 -1.0314
10742TIP3   OH253640   5.262   0.619   4.019  0.5437  0.0661 -0.1007
10742TIP3    H153641   5.272   0.557   4.091  0.6649  0.5460  0.3007
10742TIP3    H253642   5.351   0.647   3.997  0.5109 -0.1167 -0.4709
10743TIP3   OH253643   5.917   3.353   0.800  0.3632 -0.4521 -0.1114
10743TIP3    H153644   5.925   3.349   0.895  0.1414  1.5413  0.0140
10743TIP3    H253645   5.903   3.445   0.781  0.1036 -0.8688 -2.0664
10744TIP3   OH253646   0.442   4.276  13.647 -0.5072 -0.0041 -0.0976
10744TIP3    H153647   0.393   4.200  13.678  0.2545 -0.7291 -0.6573
10744TIP3    H253648   0.514   4.239  13.596  1.4686  0.9806  1.8956
10745TIP3   OH253649   6.646   1.558   1.139  0.0631 -0.3543 -0.2463
10745TIP3    H153650   6.625   1.483   1.083 -1.6382  0.9369 -1.4070
10745TIP3    H253651   6.624   1.529   1.227  1.3986 -1.9238 -0.3949
10746TIP3   OH253652   4.853   4.378   4.162  0.0445  0.2871 -0.0317
10746TIP3    H153653   4.815   4.368   4.250 -0.3633 -1.9653 -0.4283
10746TIP3    H253654   4.828   4.467   4.135 -0.6141  0.6667  1.7597
10747TIP3   OH253655   0.084   5.754  15.985 -0.1630  0.2109 -0.5057
10747TIP3    H153656   0.158   5.698  16.010  0.8085  1.8625  0.4827
10747TIP3    H253657   0.124   5.840  15.970 -1.5999  0.6371 -2.0775
10748TIP3   OH253658   1.313   2.414   5.052  0.1475 -0.2135 -0.4813
10748TIP3    H153659   1.354   2.364   5.123  0.5949 -1.2631 -1.4584
10748TIP3    H253660   1.372   2.403   4.978 -0.2657  0.9592 -0.9929
10749TIP3   OH253661   3.016   5.795  10.917 -0.5347  0.4224 -0.7590
10749TIP3    H153662   3.081   5.727  10.934 -0.5264  0.2808 -1.3551
10749TIP3    H253663   3.051   5.872  10.962 -1.6778 -0.5288  1.8571
10750TIP3   OH253664   5.017   6.287  12.522 -0.5059  0.0164 -0.0737
10750TIP3    H153665   4.938   6.244  12.489 -0.7526  0.1028  0.3894
10750TIP3    H253666   5.058   6.325  12.444 -1.2945  0.5666 -0.2300
10751TIP3   OH253667   6.343   3.986  15.545  0.0565  0.3895 -0.2567
10751TIP3    H153668   6.257   4.028  15.557  0.1191  0.3909  0.1860
10751TIP3    H253669   6.368   3.957  15.632 -0.2367 -1.0693 -0.6474
10752TIP3   OH253670   0.599   0.604  12.880 -0.6888 -0.9079 -0.3971
10752TIP3    H153671   0.675   0.548  12.893 -1.6950 -2.2471 -0.1324
10752TIP3    H253672   0.603   0.627  12.787  1.1832  0.7653  0.0705
10753TIP3   OH253673   4.767   5.294  16.600 -0.2767  0.8147  0.3903
10753TIP3    H153674   4.796   5.260  16.515  0.3514  1.4669  0.3341
10753TIP3    H253675   4.672   5.302  16.591 -0.5232 -1.6320  0.6883
10754TIP3   OH253676   2.536   1.093  12.310 -0.2083  0.2643 -1.0003
10754TIP3    H153677   2.559   1.000  12.320 -2.0400 -0.3342 -2.1520
10754TIP3    H253678   2.556   1.113  12.219  0.5379  1.1297 -0.6565
10755TIP3   OH253679   6.535   1.417   0.752  0.4144  0.3010 -0.1936
10755TIP3    H153680   6.513   1.510   0.758  0.8499  0.3741  0.2614
10755TIP3    H253681   6.562   1.405   0.661 -0.2202  0.4934 -0.4098
10756TIP3   OH253682   1.261   6.197   6.483  0.3002 -0.0427  0.1115
10756TIP3    H153683   1.269   6.123   6.422  1.9710 -0.1609  0.4550
10756TIP3    H253684   1.172   6.189   6.518 -0.4240 -0.3862 -1.7637
10757TIP3   OH253685   3.063   2.691   4.123  0.1089 -0.8576  0.3142
10757TIP3    H153686   3.025   2.616   4.077  1.3921 -2.1506  1.3005
10757TIP3    H253687   3.028   2.768   4.077 -1.3627 -2.0469 -0.6059
10758TIP3   OH253688   0.997   4.278  16.909  0.1790  0.0480 -0.0327
10758TIP3    H153689   0.943   4.223  16.965  1.2982  0.0619  1.0952
10758TIP3    H253690   0.935   4.327  16.855 -0.8500 -1.6624 -0.4220
10759TIP3   OH253691   3.757   4.817  16.117  0.0058 -0.2141  0.1612
10759TIP3    H153692   3.664   4.801  16.128 -0.4395  0.9876 -1.7014
10759TIP3    H253693   3.768   4.911  16.133  0.4885  0.1163 -1.9162
10760TIP3   OH253694   2.488   5.362   4.640 -0.2093  0.1353 -0.2052
10760TIP3    H153695   2.478   5.449   4.678 -0.0780  0.1891 -0.2919
10760TIP3    H253696   2.577   5.335   4.665 -1.6211 -1.6741  3.3237
10761TIP3   OH253697   5.529   3.253  17.176 -0.3765 -0.2081  0.1375
10761TIP3    H153698   5.566   3.242  17.088 -3.7396 -1.8797 -1.1735
10761TIP3    H253699   5.512   3.164  17.206 -2.2220  0.4313  1.0941
10762TIP3   OH253700   6.778   0.684  12.710 -0.3592  0.2212  0.3660
10762TIP3    H153701   6.797   0.761  12.656  2.9761 -2.0572 -1.9546
10762TIP3    H253702   6.844   0.687  12.779  0.9979 -1.4548 -0.8096
10763TIP3   OH253703   5.381   3.612   3.146  0.0419 -0.1231  0.6540
10763TIP3    H153704   5.450   3.668   3.112 -1.0591  0.4912 -0.6033
10763TIP3    H253705   5.308   3.671   3.164 -0.6076 -0.9358  0.7550
10764TIP3   OH253706   1.118   4.608  10.391 -0.2826  0.0154  0.4265
10764TIP3    H153707   1.088   4.677  10.332  1.3639 -1.1734 -1.8672
10764TIP3    H253708   1.177   4.652  10.453 -0.1031  0.8504 -0.3387
10765TIP3   OH253709   1.543   6.165  12.006  0.6332  0.9434  0.0970
10765TIP3    H153710   1.586   6.134  11.927  0.2436 -0.8139  0.5505
10765TIP3    H253711   1.457   6.195  11.977  0.2323 -0.3321 -0.0594
10766TIP3   OH253712   0.978   4.740   5.324 -0.2262  0.2082  0.6436
10766TIP3    H153713   0.951   4.655   5.358 -0.6304 -0.4542 -1.2487
10766TIP3    H253714   1.037   4.718   5.251 -1.2173  1.5156 -0.5703
10767TIP3   OH253715   0.227   1.900   2.763 -0.0789  0.0011  1.1600
10767TIP3    H153716   0.223   1.862   2.851  1.7825 -4.1345 -0.4417
10767TIP3    H253717   0.321   1.912   2.747 -0.3635 -0.0182 -0.5622
10768TIP3   OH253718   0.406   3.074   2.701  0.3384 -0.1489  0.1744
10768TIP3    H153719   0.380   2.983   2.684 -1.7322 -0.0672  2.6315
10768TIP3    H253720   0.446   3.071   2.788 -0.1762  1.3690  0.4692
10769TIP3   OH253721   0.274   0.982   4.047  0.1042 -0.5364  0.0118
10769TIP3    H153722   0.244   0.933   3.970 -3.1448  2.1505 -0.5439
10769TIP3    H253723   0.326   1.054   4.010 -0.2383 -0.0922  0.3815
10770TIP3   OH253724   0.291   0.741  15.838 -0.0530 -0.2758 -0.0172
10770TIP3    H153725   0.220   0.707  15.783 -0.8767  0.5637  0.5242
10770TIP3    H253726   0.364   0.752  15.777 -0.9986  0.7818 -1.0126
10771TIP3   OH253727   3.578   4.146  10.875 -0.2249  0.6441  0.6767
10771TIP3    H153728   3.674   4.145  10.883 -0.1517 -0.4757 -0.2187
10771TIP3    H253729   3.560   4.093  10.797 -1.7213 -1.5532  2.4581
10772TIP3   OH253730   0.528   1.948  16.786 -0.4403  0.2730  0.5249
10772TIP3    H153731   0.612   1.943  16.739  0.0479  0.7664  1.3161
10772TIP3    H253732   0.525   1.868  16.838  0.0715  0.7761  1.3449
10773TIP3   OH253733   2.836   2.004  10.983  0.3920 -0.1120  0.6864
10773TIP3    H153734   2.748   2.015  11.017  0.5477  0.2414  0.9724
10773TIP3    H253735   2.837   1.915  10.947 -0.5769  0.4558 -0.7792
10774TIP3   OH253736   2.789   4.137  15.599  0.4304 -0.2863 -0.3951
10774TIP3    H153737   2.759   4.086  15.674  1.0910  1.2192  0.9174
10774TIP3    H253738   2.881   4.114  15.589  0.6585  0.4299  0.0286
10775TIP3   OH253739   4.135   1.756  15.001  0.1127  0.4662 -0.5487
10775TIP3    H153740   4.181   1.773  15.083 -0.1400 -0.8395 -0.1286
10775TIP3    H253741   4.043   1.753  15.024  0.1216 -1.1269 -0.6528
10776TIP3   OH253742   3.512   3.857   4.698 -0.1720  0.1538 -0.0013
10776TIP3    H153743   3.523   3.938   4.748 -0.1430  0.3692 -0.3542
10776TIP3    H253744   3.433   3.817   4.735  0.3649 -0.1512  0.8412
10777TIP3   OH253745   1.700   0.360   1.892  0.3534  0.0146 -0.3679
10777TIP3    H153746   1.680   0.269   1.915 -1.3358  0.3373 -0.4769
10777TIP3    H253747   1.648   0.376   1.813 -0.4922  1.5049  0.4759
10778TIP3   OH253748   6.526   2.275  16.628  0.1307  0.1064 -0.1501
10778TIP3    H153749   6.499   2.241  16.713 -0.2222  0.0587 -0.2865
10778TIP3    H253750   6.472   2.228  16.564 -1.1248  1.6722 -0.2728
10779TIP3   OH253751   4.468   2.770   6.102 -0.0692 -0.0489  0.3763
10779TIP3    H153752   4.527   2.736   6.169 -0.8608 -0.4033  0.8976
10779TIP3    H253753   4.411   2.696   6.081  1.3960 -0.5260 -2.0728
10780TIP3   OH253754   3.575   6.522   2.392 -0.4307 -0.7140 -0.0026
10780TIP3    H153755   3.527   6.457   2.443 -0.1774 -1.9378 -1.2748
10780TIP3    H253756   3.508   6.584   2.363 -0.5400  0.1098  1.9504
10781TIP3   OH253757   2.591   3.337  16.250 -0.3441 -0.3900  0.0001
10781TIP3    H153758   2.525   3.365  16.186 -0.5329  0.1572  0.4311
10781TIP3    H253759   2.556   3.255  16.286 -0.1987 -0.7445 -0.6514
10782TIP3   OH253760   4.620   5.754  13.788 -0.0555  0.2845 -0.1344
10782TIP3    H153761   4.701   5.769  13.836 -0.5889  2.3517  0.1647
10782TIP3    H253762   4.613   5.829  13.728 -0.9191 -0.7100 -1.3158
10783TIP3   OH253763   1.407   2.952  11.410  0.9143  0.2182  0.1353
10783TIP3    H153764   1.476   3.013  11.382  0.3513  0.8136  0.0298
10783TIP3    H253765   1.454   2.874  11.438  1.5837  0.2558 -0.8613
10784TIP3   OH253766   5.520   3.900   5.538  0.4867  0.0809 -0.2997
10784TIP3    H153767   5.437   3.931   5.575  0.0743 -1.0269 -0.2693
10784TIP3    H253768   5.503   3.893   5.444  0.3849 -0.6118 -0.2330
10785TIP3   OH253769   5.285   2.012  15.804 -0.5074  0.6602  0.1284
10785TIP3    H153770   5.298   2.086  15.744 -0.7874  1.3984  0.9763
10785TIP3    H253771   5.368   2.004  15.851 -0.4917  0.4602  0.0683
10786TIP3   OH253772   1.356   5.974   2.577  0.2583  0.4261  0.2860
10786TIP3    H153773   1.445   5.961   2.607  0.2733  1.0052  0.4849
10786TIP3    H253774   1.319   5.885   2.572  1.8220 -0.1386 -2.8465
10787TIP3   OH253775   4.178   1.226  16.165  0.1008  0.1049  0.4695
10787TIP3    H153776   4.147   1.313  16.191 -2.4306 -0.5544 -0.1652
10787TIP3    H253777   4.191   1.180  16.248 -0.7398  0.3934  0.7744
10788TIP3   OH253778   6.735   0.053   1.013 -0.3061  0.2093 -0.0491
10788TIP3    H153779   6.788   0.117   0.965 -0.7647 -0.3043 -1.2630
10788TIP3    H253780   6.765  -0.032   0.979  1.1722 -0.2981  2.4382
10789TIP3   OH253781   0.985   3.567   3.885 -0.3854  0.3053 -0.3127
10789TIP3    H153782   0.987   3.625   3.961 -0.0268  0.3292 -0.3403
10789TIP3    H253783   1.065   3.515   3.892 -0.2013  0.5096 -0.8281
10790TIP3   OH253784   0.471   4.258  14.571 -0.1297  0.1709  0.0292
10790TIP3    H153785   0.423   4.197  14.627 -0.9542  2.1972  1.5806
10790TIP3    H253786   0.562   4.248  14.598 -0.1898 -0.6955 -0.0621
10791TIP3   OH253787   3.497   2.419   3.155  0.3022  0.2263  0.5608
10791TIP3    H153788   3.562   2.375   3.101  1.0488  0.8490  0.9421
10791TIP3    H253789   3.524   2.511   3.155 -0.8076  0.5531  0.3989
10792TIP3   OH253790   2.872   6.555  15.068  0.0601  0.2745 -0.0916
10792TIP3    H153791   2.797   6.499  15.090  1.0063 -2.2698 -2.9534
10792TIP3    H253792   2.949   6.500  15.081  1.0600  1.0399 -2.4090
10793TIP3   OH253793   5.744   6.320   5.645  0.6590 -0.6579 -0.2736
10793TIP3    H153794   5.717   6.268   5.570 -1.1237  0.8509 -0.7085
10793TIP3    H253795   5.682   6.298   5.714 -0.0887  0.8333 -0.4531
10794TIP3   OH253796   0.322   5.236  12.370 -0.6061 -0.3852 -0.0018
10794TIP3    H153797   0.351   5.323  12.344 -0.4187  0.5231  3.0491
10794TIP3    H253798   0.287   5.197  12.289 -0.9814  2.6052 -1.3423
10795TIP3   OH253799   2.375   1.119  16.367  0.4483 -0.1083 -0.5461
10795TIP3    H153800   2.305   1.081  16.419  0.6401 -1.9673 -1.6031
10795TIP3    H253801   2.370   1.074  16.282  3.0301 -0.4254 -0.5818
10796TIP3   OH253802   5.978   0.181   4.998  0.5087  0.0699 -0.5093
10796TIP3    H153803   6.054   0.123   4.987 -0.7740 -1.9987  1.1226
10796TIP3    H253804   5.903   0.123   4.987 -0.8228  1.6535  0.2175
10797TIP3   OH253805   0.681   5.236   2.794  0.2350 -0.1603 -0.1686
10797TIP3    H153806   0.719   5.167   2.738 -0.0473 -0.1206 -0.4091
10797TIP3    H253807   0.610   5.272   2.742  0.9691  0.9485 -0.4259
10798TIP3   OH253808   6.183   4.454  13.481 -0.3100 -0.1816  0.0651
10798TIP3    H153809   6.163   4.506  13.403  0.4160  0.3217  0.2141
10798TIP3    H253810   6.259   4.402  13.456 -0.4601 -0.4819  0.2331
10799TIP3   OH253811   5.257   2.350   5.378 -0.2716  0.1751  0.0097
10799TIP3    H153812   5.326   2.392   5.327 -0.6392  0.7744 -0.0097
10799TIP3    H253813   5.181   2.407   5.365 -0.9339 -0.8118 -0.4716
10800TIP3   OH253814   4.609   0.339  11.545 -0.3202 -0.0432  0.0391
10800TIP3    H153815   4.618   0.257  11.595  0.0555  0.0608  0.1465
10800TIP3    H253816   4.585   0.311  11.457  0.0213 -0.2801  0.0216
10801TIP3   OH253817   2.968   4.292  13.358  0.2471  0.4639 -0.3637
10801TIP3    H153818   2.892   4.250  13.398  0.3601  0.3204 -0.2984
10801TIP3    H253819   2.972   4.255  13.270  1.5011 -1.1543  0.3439
10802TIP3   OH253820   2.989   1.640   0.695  0.2082 -0.2702 -0.0702
10802TIP3    H153821   3.004   1.560   0.644 -0.2405 -1.4715  1.6562
10802TIP3    H253822   3.075   1.683   0.699  1.0460 -2.0256  1.2545
10803TIP3   OH253823   2.619   1.361   0.723  0.3261 -0.1180 -0.1910
10803TIP3    H153824   2.658   1.422   0.662  0.8638  1.6181  1.8500
10803TIP3    H253825   2.638   1.274   0.686  3.3310  0.7809 -0.8510
10804TIP3   OH253826   0.130   4.155  15.467 -0.0734  0.4505 -0.1271
10804TIP3    H153827   0.200   4.110  15.419 -0.0870 -0.9363  1.1373
10804TIP3    H253828   0.056   4.156  15.406  0.5565  0.5761 -0.9018
10805TIP3   OH253829   1.822   1.344  15.772 -0.3075  0.1772 -0.7430
10805TIP3    H153830   1.753   1.293  15.731 -0.2735 -0.5348  0.0587
10805TIP3    H253831   1.811   1.329  15.866  0.5000  0.6133 -0.5662
10806TIP3   OH253832   3.655   3.829  15.492  0.6130 -0.1223 -0.0140
10806TIP3    H153833   3.723   3.789  15.437  0.6779 -0.4065  0.2763
10806TIP3    H253834   3.702   3.857  15.570  0.2592 -1.0179  0.5279
10807TIP3   OH253835   4.565   1.349  12.288 -0.4463 -0.1845  0.0688
10807TIP3    H153836   4.499   1.321  12.224 -0.8429 -2.1137  1.2530
10807TIP3    H253837   4.534   1.433  12.320 -1.6276 -0.4320 -0.3941
10808TIP3   OH253838   1.471   6.303   5.377 -0.3178 -0.3471  0.0271
10808TIP3    H153839   1.407   6.289   5.447 -0.9466  0.4133 -0.3823
10808TIP3    H253840   1.544   6.347   5.419 -1.0502  0.8640  0.0470
10809TIP3   OH253841   4.309   6.728  15.453  0.1915  0.1603  0.0694
10809TIP3    H153842   4.321   6.760  15.363 -0.5079 -1.0535 -0.4727
10809TIP3    H253843   4.319   6.633  15.446 -1.0674 -0.0580  1.0752
10810TIP3   OH253844   3.757   4.101   0.653 -0.3496  0.2080 -0.2547
10810TIP3    H153845   3.782   4.191   0.633  0.4207 -0.0365 -0.4104
10810TIP3    H253846   3.689   4.080   0.588  1.4818 -0.2712 -2.0426
10811TIP3   OH253847   2.900   2.409  15.516  0.2130 -0.0680 -0.1232
10811TIP3    H153848   2.945   2.491  15.494 -0.0781 -0.0181 -0.5397
10811TIP3    H253849   2.819   2.437  15.558  0.6029 -0.1597  0.7001
10812TIP3   OH253850   3.148   2.887   4.373  0.2821  0.4639  0.1506
10812TIP3    H153851   3.186   2.949   4.311 -0.4136  1.0419  0.2868
10812TIP3    H253852   3.133   2.808   4.321  0.2321  0.7530 -0.2874
10813TIP3   OH253853   0.216   1.370   3.774  0.2553 -0.3115 -0.1222
10813TIP3    H153854   0.303   1.409   3.775  0.0389  0.1595  0.3304
10813TIP3    H253855   0.161   1.432   3.822 -0.0496 -1.2481  0.7629
10814TIP3   OH253856   3.747   3.645   3.481  0.1380 -0.2404  0.0716
10814TIP3    H153857   3.805   3.570   3.487 -0.1669 -0.5311 -0.5962
10814TIP3    H253858   3.770   3.687   3.398  0.9502  0.9458  0.8798
10815TIP3   OH253859   0.282   4.278  15.891 -0.7831  1.0069  0.5464
10815TIP3    H153860   0.297   4.258  15.983 -1.5594 -0.2736  0.4170
10815TIP3    H253861   0.228   4.205  15.859  1.4482  0.1536 -1.5023
10816TIP3   OH253862   1.655   2.467   1.684  0.2958  0.2884  0.3509
10816TIP3    H153863   1.655   2.404   1.612 -1.5394 -1.4125  1.7966
10816TIP3    H253864   1.713   2.428   1.750  0.2058  0.7717  0.7182
10817TIP3   OH253865   5.556   5.671  11.314  0.4461  0.1213 -0.4808
10817TIP3    H153866   5.478   5.684  11.260 -0.1393 -0.6865  0.1656
10817TIP3    H253867   5.629   5.675  11.251 -0.1322  0.5274 -1.1329
10818TIP3   OH253868   1.594   6.437   4.530 -0.2597 -0.7716 -0.2325
10818TIP3    H153869   1.529   6.471   4.469  1.4310  0.0084 -1.6392
10818TIP3    H253870   1.585   6.341   4.524 -0.9612 -0.6764 -0.7572
10819TIP3   OH253871   3.531   3.704   2.185  0.0925  0.1265 -0.7061
10819TIP3    H153872   3.495   3.685   2.271  0.8441  0.6319 -0.2829
10819TIP3    H253873   3.481   3.780   2.154  1.4985  1.4931  0.3290
10820TIP3   OH253874   5.119   2.744   1.082 -0.0266  0.2285  0.0180
10820TIP3    H153875   5.178   2.692   1.027  0.0884 -0.1652  0.5096
10820TIP3    H253876   5.118   2.698   1.166  1.7995  2.2287  1.1774
10821TIP3   OH253877   3.830   6.439   0.997  0.1805 -0.4124 -0.3336
10821TIP3    H153878   3.868   6.351   0.993  1.4179  0.1260 -0.7551
10821TIP3    H253879   3.880   6.490   0.933  0.5144  0.9920  0.9986
10822TIP3   OH253880   1.751   2.643   4.291 -0.4048  0.5686 -0.3051
10822TIP3    H153881   1.746   2.727   4.245  0.2220 -0.0108 -1.4623
10822TIP3    H253882   1.845   2.630   4.305 -0.5104  0.1344 -0.0092
10823TIP3   OH253883   1.122   3.526   5.295 -0.2400  1.0258 -0.5651
10823TIP3    H153884   1.149   3.476   5.219  2.0230  2.4857 -0.7767
10823TIP3    H253885   1.142   3.469   5.370 -0.0624  0.6087 -0.9293
10824TIP3   OH253886   3.408   3.503  11.353 -1.1226  0.1657  0.2841
10824TIP3    H153887   3.497   3.503  11.319 -0.9816 -0.1984  0.6431
10824TIP3    H253888   3.353   3.481  11.278 -0.7064 -1.8027  0.5221
10825TIP3   OH253889   2.378   4.477   6.441  0.2564  0.0945 -0.1088
10825TIP3    H153890   2.439   4.548   6.457  2.5901 -2.2233  1.6972
10825TIP3    H253891   2.300   4.500   6.492  1.3929  0.8593  1.3180
10826TIP3   OH253892   1.599   5.234  14.723  0.0636 -1.0343  0.2879
10826TIP3    H153893   1.589   5.301  14.791 -1.3244 -2.0351  1.0853
10826TIP3    H253894   1.651   5.165  14.765 -0.4946 -1.4969  0.2098
10827TIP3   OH253895   0.707   0.222  12.029  0.1741  0.0533 -0.2750
10827TIP3    H153896   0.651   0.299  12.035 -0.8771 -0.7854  0.8818
10827TIP3    H253897   0.674   0.162  12.096  1.9288 -0.7897 -0.1124
10828TIP3   OH253898   1.376   3.202   4.842  0.7405  0.4391  0.3926
10828TIP3    H153899   1.423   3.282   4.819  0.6167  0.7272  1.1569
10828TIP3    H253900   1.304   3.231   4.898 -0.4721  0.0273 -0.9040
10829TIP3   OH253901   0.130   4.535   3.302 -0.1663  0.1205 -0.6736
10829TIP3    H153902   0.107   4.604   3.240 -1.9995 -1.0270 -1.2928
10829TIP3    H253903   0.164   4.464   3.247  2.5646  0.8058  0.0253
10830TIP3   OH253904   0.362   0.363   2.576  1.2043  0.7142 -0.4555
10830TIP3    H153905   0.446   0.328   2.545  0.8293 -0.1548 -0.5085
10830TIP3    H253906   0.381   0.398   2.663  1.7079  0.8717 -0.6271
10831TIP3   OH253907   3.919   3.864   2.489  0.4634  0.1515  0.1220
10831TIP3    H153908   3.835   3.893   2.453  1.4120  2.0428 -0.6536
10831TIP3    H253909   3.927   3.773   2.460 -0.4267  0.5527 -1.4680
10832TIP3   OH253910   4.117   0.720   5.823 -0.2915  1.0726 -0.1777
10832TIP3    H153911   4.070   0.709   5.906 -1.0430  1.2477 -0.5751
10832TIP3    H253912   4.091   0.807   5.793 -0.6374  0.6961 -0.9800
10833TIP3   OH253913   4.490   0.726   3.046 -0.0191 -0.1624 -0.9664
10833TIP3    H153914   4.449   0.786   3.109  0.4012 -2.0563  1.1892
10833TIP3    H253915   4.419   0.668   3.019  0.4849 -1.4191  0.3191
10834TIP3   OH253916   1.277   4.548   3.056 -0.0969  0.2316 -0.3480
10834TIP3    H153917   1.366   4.513   3.062  0.7389  2.2139 -0.6100
10834TIP3    H253918   1.281   4.610   2.983 -1.6205  0.5306 -0.1759
10835TIP3   OH253919   4.283   5.176   1.762  0.5262 -0.0864  0.1671
10835TIP3    H153920   4.199   5.166   1.807  0.2586 -0.6106 -0.4475
10835TIP3    H253921   4.333   5.098   1.789  1.3764  0.9723  1.7279
10836TIP3   OH253922   2.235   3.948  16.653  0.6686  0.0238  0.3827
10836TIP3    H153923   2.214   4.036  16.684 -0.2910 -0.6637  1.7449
10836TIP3    H253924   2.303   3.916  16.712  0.9245 -0.2130 -0.0276
10837TIP3   OH253925   5.535   3.325   0.435 -0.2132 -0.1991  0.4092
10837TIP3    H153926   5.601   3.274   0.481 -0.0158  0.2917  0.6733
10837TIP3    H253927   5.583   3.398   0.395 -0.5865  0.1376  0.5683
10838TIP3   OH253928   6.396   0.627  12.161  0.1795  0.4957 -0.3086
10838TIP3    H153929   6.424   0.607  12.250 -0.2690  3.0518  0.4381
10838TIP3    H253930   6.313   0.674  12.171 -0.7281 -0.6465 -2.1571
10839TIP3   OH253931   1.717   6.660   4.636  0.1566  0.0686 -0.3885
10839TIP3    H153932   1.807   6.670   4.606  0.0433 -0.7111 -1.0197
10839TIP3    H253933   1.695   6.569   4.613  0.0531 -0.5388  2.0081
10840TIP3   OH253934   2.122   6.717  11.483  0.3052 -0.5598 -0.5837
10840TIP3    H153935   2.098   6.671  11.403 -0.4737 -0.3825 -0.4496
10840TIP3    H253936   2.049   6.701  11.543 -0.2471  1.3378 -0.7309
10841TIP3   OH253937   4.409   2.503   3.261 -0.2742 -0.1179 -0.1938
10841TIP3    H153938   4.449   2.540   3.182  1.1944 -1.3535 -0.0463
10841TIP3    H253939   4.429   2.410   3.256 -0.4114 -0.2370  1.5068
10842TIP3   OH253940   5.578   0.961   0.660 -0.4501  0.4432 -0.0988
10842TIP3    H153941   5.565   0.967   0.565 -0.1590 -0.4286 -0.1963
10842TIP3    H253942   5.651   0.899   0.670 -0.4984  0.5129  0.6967
10843TIP3   OH253943   5.950   2.978   3.191 -0.2475 -0.1262  0.7070
10843TIP3    H153944   5.941   2.937   3.277  0.9755  2.0702  1.9177
10843TIP3    H253945   5.862   3.009   3.170 -0.6670 -1.1566  0.8842
10844TIP3   OH253946   3.427   3.002  16.990 -0.3077  0.3695  0.1770
10844TIP3    H153947   3.514   2.995  16.949 -0.6586 -1.9464 -0.2804
10844TIP3    H253948   3.442   2.975  17.081 -0.2556  1.6216  0.5454
10845TIP3   OH253949   3.138   3.712   5.502  0.0870  0.3169 -0.2296
10845TIP3    H153950   3.108   3.758   5.424 -0.1051  1.3862  0.4642
10845TIP3    H253951   3.233   3.708   5.493  0.1365  1.1741 -0.1302
10846TIP3   OH253952   5.865   6.170   2.121  0.2168  0.0795  0.2543
10846TIP3    H153953   5.817   6.143   2.043 -0.3734 -0.6128  0.8546
10846TIP3    H253954   5.797   6.196   2.184  0.6288 -0.8008  1.0720
10847TIP3   OH253955   3.017   4.026   1.593  0.0905  0.2437 -0.1580
10847TIP3    H153956   2.959   4.102   1.592  0.1508  0.3733  2.5833
10847TIP3    H253957   3.098   4.057   1.634  0.7940 -0.8322 -0.6958
10848TIP3   OH253958   0.061   0.198  17.078 -0.7851  0.6951 -0.3282
10848TIP3    H153959   0.140   0.204  17.024 -0.7064  0.2146 -0.2704
10848TIP3    H253960   0.028   0.109  17.063 -2.2168  1.4319 -1.6088
10849TIP3   OH253961   1.177   2.369  14.605 -0.3879  0.1866 -0.6554
10849TIP3    H153962   1.094   2.350  14.562 -1.0510  2.1813 -0.3276
10849TIP3    H253963   1.170   2.327  14.691 -0.1627 -1.4831 -1.4462
10850TIP3   OH253964   1.121   5.495   5.196 -0.8647 -0.1376  0.4967
10850TIP3    H153965   1.057   5.429   5.170 -0.7852  1.3722 -3.8502
10850TIP3    H253966   1.202   5.468   5.153  0.1978  0.6656  1.9412
10851TIP3   OH253967   1.850   2.017   1.211 -0.3535 -0.4040 -0.3854
10851TIP3    H153968   1.903   2.083   1.166  0.2050 -0.9949 -0.5840
10851TIP3    H253969   1.911   1.947   1.233 -0.4884  0.1236  1.8134
10852TIP3   OH253970   2.176   5.298  12.479 -0.2166  0.0158  0.1070
10852TIP3    H153971   2.163   5.269  12.389 -0.1929 -0.6101  0.3059
10852TIP3    H253972   2.105   5.256  12.528  0.4525 -0.5678  0.5808
10853TIP3   OH253973   2.692   5.476  10.924 -0.0256 -0.3531 -0.1118
10853TIP3    H153974   2.759   5.417  10.959  1.2838  0.2221 -1.6348
10853TIP3    H253975   2.705   5.475  10.830 -0.4678  1.8292 -0.2128
10854TIP3   OH253976   0.482   4.689   5.077 -0.1130 -0.1996 -0.1036
10854TIP3    H153977   0.522   4.617   5.027 -2.1194 -0.5347 -1.2747
10854TIP3    H253978   0.430   4.645   5.144 -1.1535  0.1566 -0.6704
10855TIP3   OH253979   2.112   1.582  16.099 -0.4525  0.3208 -0.1340
10855TIP3    H153980   2.108   1.598  16.004 -0.7115  0.6491 -0.0666
10855TIP3    H253981   2.206   1.576  16.118 -0.4417 -3.1417 -0.9855
10856TIP3   OH253982   6.770   5.941  11.316 -0.1572  0.0009 -0.4448
10856TIP3    H153983   6.835   5.910  11.253  0.1654 -0.1683 -0.0347
10856TIP3    H253984   6.799   6.029  11.340 -3.0134  2.1346 -4.2971
10857TIP3   OH253985   6.206   0.968  15.694  0.1922 -0.1781 -0.2858
10857TIP3    H153986   6.260   0.893  15.719  1.2153  0.2976 -1.0244
10857TIP3    H253987   6.184   0.953  15.602  0.8626  0.6874 -0.5965
10858TIP3   OH253988   6.360   4.641   4.113 -0.2304  0.2714  0.6008
10858TIP3    H153989   6.420   4.662   4.184  1.8421 -0.6428 -0.8204
10858TIP3    H253990   6.297   4.581   4.152  0.5880  0.1655  1.7924
10859TIP3   OH253991   1.264   2.667  15.875 -0.4955  0.1714  0.4815
10859TIP3    H153992   1.251   2.760  15.857  0.3309 -0.1842 -2.3165
10859TIP3    H253993   1.178   2.628  15.861 -0.1735  0.1117 -1.5773
10860TIP3   OH253994   6.191   0.310   4.624 -0.3480 -0.4178 -0.2036
10860TIP3    H153995   6.265   0.324   4.683 -0.5594 -0.5708  0.0967
10860TIP3    H253996   6.188   0.215   4.611  0.3730 -0.2980 -1.3268
10861TIP3   OH253997   6.578   0.275   5.359 -0.0019 -0.0790 -0.4168
10861TIP3    H153998   6.519   0.287   5.433  0.4035  0.4988 -0.1877
10861TIP3    H253999   6.521   0.247   5.287 -0.3070 -1.2396  0.2696
10862TIP3   OH254000   2.889   0.222  17.158 -0.0932  0.1201  0.6740
10862TIP3    H154001   2.962   0.196  17.213  1.2826  0.8276 -0.7952
10862TIP3    H254002   2.822   0.156  17.175  1.6826 -1.8076  0.3921
10863TIP3   OH254003   4.965   2.717   3.632  0.5519  0.5297  0.2687
10863TIP3    H154004   4.958   2.697   3.539  0.8060  1.0874  0.1272
10863TIP3    H254005   4.945   2.811   3.638  1.6543  0.7443  0.6364
10864TIP3   OH254006   3.577   1.803   2.824  0.2856  0.4835 -0.7974
10864TIP3    H154007   3.530   1.721   2.811  0.2433  0.6015 -1.3791
10864TIP3    H254008   3.583   1.842   2.737 -0.7333  1.6645 -0.3558
10865TIP3   OH254009   2.870   1.533   3.535 -0.3007  0.1735 -0.3894
10865TIP3    H154010   2.788   1.574   3.508  0.6916  2.7800  0.4560
10865TIP3    H254011   2.865   1.528   3.631  0.5309  0.3756 -0.3278
10866TIP3   OH254012   6.343   5.446   1.184  0.5192 -0.0775  0.0157
10866TIP3    H154013   6.286   5.483   1.251  1.7930  1.6535  0.1848
10866TIP3    H254014   6.404   5.390   1.232  0.2240 -0.3427  0.0784
10867TIP3   OH254015   3.992   1.641   1.126 -0.0429  0.5517  0.1657
10867TIP3    H154016   4.030   1.622   1.040  1.0023  1.2569  0.4615
10867TIP3    H254017   4.057   1.609   1.188 -0.7183  0.1992  0.6896
10868TIP3   OH254018   5.961   6.187  13.321  0.3066  0.4726 -0.2825
10868TIP3    H154019   5.873   6.163  13.350  0.6347 -0.2847  0.0988
10868TIP3    H254020   6.010   6.105  13.320  0.8656  0.8027 -1.0184
10869TIP3   OH254021   0.048   3.827   0.263 -0.0459  0.1079 -0.6431
10869TIP3    H154022   0.125   3.782   0.296 -0.8523  1.3979  3.2101
10869TIP3    H254023  -0.025   3.769   0.284 -0.6596  1.3334  0.7129
10870TIP3   OH254024   2.514   4.960   4.019  0.2702 -0.2757  0.2211
10870TIP3    H154025   2.568   5.039   4.027 -0.0303  0.0766 -1.1913
10870TIP3    H254026   2.565   4.893   4.065  0.7693  0.6147  0.9926
10871TIP3   OH254027   5.230   0.333  14.539 -0.3072 -0.0419 -0.3181
10871TIP3    H154028   5.174   0.298  14.470 -1.0210  0.7893 -0.1607
10871TIP3    H254029   5.313   0.287  14.528  0.1300  1.2770 -2.7936
10872TIP3   OH254030   4.636   1.865   3.894 -0.1293  0.0854  0.4523
10872TIP3    H154031   4.696   1.934   3.924  1.3363 -0.7219 -0.5800
10872TIP3    H254032   4.564   1.867   3.958  0.5398  1.6691  1.1942
10873TIP3   OH254033   4.634   1.184   3.520 -0.3404 -0.2258  0.0861
10873TIP3    H154034   4.639   1.170   3.615  0.8363 -0.9841 -0.0740
10873TIP3    H254035   4.671   1.271   3.507 -1.4409  0.2973  0.4214
10874TIP3   OH254036   1.019   0.479   5.433  0.0856 -0.0544 -0.0502
10874TIP3    H154037   1.056   0.398   5.398  0.8951  0.5598 -0.6353
10874TIP3    H254038   1.093   0.540   5.435 -0.1927  0.2452  1.7101
10875TIP3   OH254039   4.052   1.644  15.362  0.2621 -0.3217  0.6808
10875TIP3    H154040   4.116   1.575  15.376  0.9938  0.2462  0.1882
10875TIP3    H254041   3.972   1.599  15.336  1.0042 -0.9197 -0.5763
10876TIP3   OH254042   4.883   3.000   2.827  0.0636  1.2343  0.4883
10876TIP3    H154043   4.922   3.046   2.901  0.4216  1.6213  0.0611
10876TIP3    H254044   4.840   3.068   2.776 -2.6206  0.6127  1.8268
10877TIP3   OH254045   1.508   1.414   5.771  0.1258 -0.4380  0.0015
10877TIP3    H154046   1.550   1.417   5.685 -0.2498 -2.1240 -0.2496
10877TIP3    H254047   1.581   1.405   5.833  0.3241 -0.2759 -0.2088
10878TIP3   OH254048   0.422   3.478   5.116 -0.1284 -0.2122 -1.0507
10878TIP3    H154049   0.366   3.444   5.046 -1.0081 -0.0154 -0.4518
10878TIP3    H254050   0.457   3.560   5.081 -2.7290  1.3089 -0.2708
10879TIP3   OH254051   0.273   0.263   0.399  0.2685  0.1113 -0.0395
10879TIP3    H154052   0.365   0.241   0.413  0.5982  1.1942 -0.4792
10879TIP3    H254053   0.271   0.358   0.397 -0.8233  0.0894 -0.3514
10880TIP3   OH254054   2.684   6.297   0.826  0.1072  0.2091 -0.1191
10880TIP3    H154055   2.642   6.217   0.792 -0.0068  0.2808 -0.1506
10880TIP3    H254056   2.673   6.291   0.921  0.5213 -0.0459 -0.0855
10881TIP3   OH254057   5.716   2.866   3.400  0.1630  0.4469  0.7319
10881TIP3    H154058   5.651   2.930   3.426 -0.4692 -0.0026  0.2809
10881TIP3    H254059   5.694   2.844   3.309 -0.1103 -0.9817  1.1258
10882TIP3   OH254060   2.153   1.489   5.832  0.1896 -0.1350 -0.2609
10882TIP3    H154061   2.100   1.556   5.875  0.6672  0.3987 -0.5064
10882TIP3    H254062   2.098   1.411   5.833 -1.0147  0.6828 -1.4429
10883TIP3   OH254063   3.043   5.764  16.972  0.1202 -0.4828  1.1136
10883TIP3    H154064   3.081   5.811  16.898 -1.7459 -0.1379  0.3529
10883TIP3    H254065   3.068   5.672  16.957  2.0892 -0.0457  1.5589
10884TIP3   OH254066   4.770   4.328  12.927  0.1657  0.6658 -0.2121
10884TIP3    H154067   4.822   4.398  12.888 -0.4420  1.5513  0.5049
10884TIP3    H254068   4.832   4.259  12.948  0.2622 -0.5509 -4.2656
10885TIP3   OH254069   1.681   6.295  13.329  0.5480  0.1466  0.1430
10885TIP3    H154070   1.762   6.335  13.361  1.7263 -1.0283 -1.2777
10885TIP3    H254071   1.611   6.343  13.373  1.9678  2.7001 -0.3063
10886TIP3   OH254072   0.223   6.314   6.546  0.4111 -0.4110  0.2006
10886TIP3    H154073   0.289   6.383   6.536  0.7819 -0.7959 -0.0342
10886TIP3    H254074   0.269   6.233   6.526 -0.2998 -0.6176 -0.6581
10887TIP3   OH254075   4.213   6.146   4.530 -0.0701  0.1235 -0.1521
10887TIP3    H154076   4.289   6.096   4.499  0.0060  0.7022 -0.9137
10887TIP3    H254077   4.241   6.183   4.613  0.8882  1.2492 -0.9613
10888TIP3   OH254078   4.319   6.575   0.489 -0.0378  0.3502 -0.2860
10888TIP3    H154079   4.302   6.485   0.516 -1.5167  0.5878 -0.3758
10888TIP3    H254080   4.340   6.620   0.571 -1.6174  0.4249  0.0965
10889TIP3   OH254081   5.416   4.699   1.041  0.6540 -0.0364  0.2719
10889TIP3    H154082   5.402   4.793   1.043  2.1943  0.2271 -0.8803
10889TIP3    H254083   5.498   4.685   1.087  1.0374 -0.6873 -0.5913
10890TIP3   OH254084   0.009   5.579   5.676  0.4702 -0.3108 -0.3379
10890TIP3    H154085  -0.038   5.513   5.727  1.6194 -0.5528  0.4268
10890TIP3    H254086   0.101   5.565   5.696  0.7325  1.6841  0.0324
10891TIP3   OH254087   3.222   3.932  16.030 -0.0842 -0.3478  0.3564
10891TIP3    H154088   3.143   3.885  16.001  0.9828 -2.9280  1.4748
10891TIP3    H254089   3.282   3.926  15.956 -0.6882  1.0857 -0.2678
10892TIP3   OH254090   1.059   1.520   0.570  0.5624 -0.3827  0.1540
10892TIP3    H154091   1.046   1.581   0.642  3.4375  1.2781 -0.6618
10892TIP3    H254092   1.093   1.441   0.611 -2.0816 -1.0944  1.0765
10893TIP3   OH254093   1.944   3.546   3.819 -0.0427  0.2730 -0.9704
10893TIP3    H154094   1.995   3.614   3.776 -0.1372  0.8293 -0.2291
10893TIP3    H254095   1.955   3.563   3.913 -1.5544  0.3914 -0.7946
10894TIP3   OH254096   4.082   0.960   2.851  0.0569  0.0553  0.2425
10894TIP3    H154097   4.108   1.051   2.864 -1.1225  0.2005  1.6731
10894TIP3    H254098   4.139   0.928   2.781  1.9159  1.2814  1.1757
10895TIP3   OH254099   6.146   6.552   2.607  0.6729 -0.0664 -0.1005
10895TIP3    H154100   6.075   6.599   2.650 -0.5915 -0.1920 -2.0199
10895TIP3    H254101   6.199   6.620   2.566  1.6429  0.0190  1.2384
10896TIP3   OH254102   0.840   3.101  12.416  0.5568  0.5831  0.2436
10896TIP3    H154103   0.892   3.105  12.336  0.2167  1.3389  0.0537
10896TIP3    H254104   0.754   3.134  12.390  0.4704  0.9038  0.9437
10897TIP3   OH254105   1.574   2.725   3.964 -0.0049  0.1134  0.0727
10897TIP3    H154106   1.593   2.753   4.054  1.1029 -0.2006 -0.0587
10897TIP3    H254107   1.626   2.645   3.952  4.2414  3.0684 -2.6514
10898TIP3   OH254108   6.025   4.513   5.105  0.0798  0.0034 -0.2755
10898TIP3    H154109   6.016   4.557   5.021  0.2721 -0.6100 -0.6201
10898TIP3    H254110   6.076   4.434   5.086  1.4771  0.6594  0.6948
10899TIP3   OH254111   6.480   3.853  14.691  0.8400  0.0432  0.0497
10899TIP3    H154112   6.485   3.915  14.618 -1.2178 -0.3186 -0.4491
10899TIP3    H254113   6.497   3.906  14.769  0.1857  1.0365 -0.4696
10900TIP3   OH254114   2.560   4.091  11.069  0.2248  0.5683  0.4206
10900TIP3    H154115   2.611   4.160  11.027 -0.0484  0.8463  0.5348
10900TIP3    H254116   2.497   4.064  11.003  0.9779 -0.2694  0.0428
10901TIP3   OH254117   0.885   4.090  12.548 -0.2891  0.2809  0.2752
10901TIP3    H154118   0.874   4.024  12.616 -1.7453  0.1524 -0.0574
10901TIP3    H254119   0.809   4.078  12.491  0.6241  0.7538 -1.0536
10902TIP3   OH254120   1.986   6.683   1.100  0.5929 -0.4816  0.4799
10902TIP3    H154121   1.918   6.750   1.093  0.6302 -0.4491  0.4257
10902TIP3    H254122   2.045   6.715   1.168  0.8481 -0.2508  0.1486
10903TIP3   OH254123   6.327   5.519   3.824  0.6105 -0.1931  0.3889
10903TIP3    H154124   6.260   5.579   3.855  0.2218 -0.0478 -0.6844
10903TIP3    H254125   6.403   5.574   3.806  0.4311 -0.0954 -0.0806
10904TIP3   OH254126   2.341   1.338   3.531  0.4111  0.0966  0.1295
10904TIP3    H154127   2.384   1.271   3.478 -3.3546 -1.6878 -0.7685
10904TIP3    H254128   2.289   1.290   3.595  0.1408  2.2094  1.5789
10905TIP3   OH254129   4.959   3.155   1.606 -0.0051  0.1397  0.5143
10905TIP3    H154130   4.901   3.174   1.533 -0.0500  0.6928  0.6890
10905TIP3    H254131   4.927   3.210   1.677  0.6960  0.4111  0.6268
10906TIP3   OH254132   4.216   4.646   5.909 -0.0051 -0.5762  0.1264
10906TIP3    H154133   4.168   4.684   5.835  0.3497 -0.1482  0.1096
10906TIP3    H254134   4.148   4.626   5.973 -0.1612  0.5174  0.3136
10907TIP3   OH254135   1.665   1.285  10.907 -0.0134 -0.1533  0.2372
10907TIP3    H154136   1.675   1.297  11.001  0.1427  0.9721  0.0883
10907TIP3    H254137   1.633   1.195  10.897 -1.4463  0.2106  1.4487
10908TIP3   OH254138   1.191   4.472   3.486  0.1948  0.4231 -0.5998
10908TIP3    H154139   1.220   4.510   3.403  1.4725  0.8927  0.0619
10908TIP3    H254140   1.212   4.539   3.552  0.9049 -0.7237  0.3469
10909TIP3   OH254141   3.493   1.955  15.630 -0.3265 -0.2698 -0.0124
10909TIP3    H154142   3.515   1.870  15.668 -0.4637  0.1052  0.9252
10909TIP3    H254143   3.495   1.940  15.536 -0.5788 -1.3722  0.1428
10910TIP3   OH254144   5.776   3.951  16.741  0.0170  0.0628  0.9725
10910TIP3    H154145   5.869   3.972  16.730  0.1642 -1.4101 -0.8136
10910TIP3    H254146   5.759   3.882  16.677 -2.5293  0.9384  0.6563
10911TIP3   OH254147   3.341   1.391  15.407  0.0826 -0.1436  0.6995
10911TIP3    H154148   3.392   1.457  15.453 -1.2063  1.2286  0.1923
10911TIP3    H254149   3.384   1.382  15.322  0.1359  0.1913  0.6922
10912TIP3   OH254150   1.499   1.268   3.775 -0.1867 -0.2026 -0.1975
10912TIP3    H154151   1.571   1.309   3.823  0.9613 -0.5249 -1.6289
10912TIP3    H254152   1.430   1.335   3.774  0.0584  0.0808  1.2401
10913TIP3   OH254153   5.321   6.302   2.446  0.4964  0.7394 -0.3851
10913TIP3    H154154   5.236   6.312   2.404  0.2595  0.8273  0.1155
10913TIP3    H254155   5.302   6.257   2.528  0.9585  0.5804 -0.3625
10914TIP3   OH254156   4.992   3.760  14.220 -0.6997  0.5633 -0.4248
10914TIP3    H154157   5.067   3.815  14.243 -0.3279 -0.3474  0.5735
10914TIP3    H254158   4.936   3.817  14.167  1.5793  0.6835 -2.7881
10915TIP3   OH254159   6.101   1.136  11.810  0.0057  0.0217 -0.1213
10915TIP3    H154160   6.161   1.206  11.837 -1.2536  0.8147  0.6365
10915TIP3    H254161   6.027   1.181  11.771 -0.9264 -0.8852  0.5731
10916TIP3   OH254162   5.181   5.399  13.547 -0.1652  0.3552 -0.2642
10916TIP3    H154163   5.270   5.403  13.582 -0.6468  1.1696  0.8988
10916TIP3    H254164   5.126   5.432  13.618 -1.8222 -3.7519  0.4688
10917TIP3   OH254165   1.172   5.828  16.168  0.5716  0.1270 -0.1830
10917TIP3    H154166   1.173   5.852  16.260 -0.1881 -0.2433 -0.0762
10917TIP3    H254167   1.264   5.827  16.142  0.7769  0.3047  0.5474
10918TIP3   OH254168   5.397   2.413   0.800 -0.1826  0.1420 -0.0120
10918TIP3    H154169   5.461   2.344   0.788 -0.8278 -0.5038  0.2147
10918TIP3    H254170   5.316   2.377   0.763 -0.3953  0.9786 -0.3762
10919TIP3   OH254171   4.225   3.685   5.921  0.2877 -0.4927  0.4416
10919TIP3    H154172   4.186   3.674   6.008 -0.3219  0.2222  0.2677
10919TIP3    H254173   4.213   3.599   5.879 -1.0874 -0.3083  0.4097
10920TIP3   OH254174   1.685   6.314   3.491 -0.3702 -0.4448 -0.0809
10920TIP3    H154175   1.778   6.338   3.493 -0.9789  2.1342 -0.7608
10920TIP3    H254176   1.685   6.218   3.499  2.3480 -0.5238 -0.4318
10921TIP3   OH254177   1.923   5.948   1.704  0.4674  0.0678  0.3455
10921TIP3    H154178   2.002   5.901   1.679  0.3385 -0.4012  0.8091
10921TIP3    H254179   1.898   5.998   1.626  1.6327  0.7919  0.4337
10922TIP3   OH254180   2.906   3.049   6.047 -0.5231 -0.1860 -0.2717
10922TIP3    H154181   2.949   3.123   6.004 -1.4608  0.0960 -0.7266
10922TIP3    H254182   2.813   3.070   6.044 -0.8072 -1.4403 -0.5015
10923TIP3   OH254183   4.258   4.076  12.750 -0.2183  0.1110  0.3574
10923TIP3    H154184   4.201   4.078  12.673 -0.0817  0.1497  0.2576
10923TIP3    H254185   4.309   4.157  12.744  0.6948 -0.5086 -0.1887
10924TIP3   OH254186   2.350   1.569  16.413 -0.1621  0.3763  0.0451
10924TIP3    H154187   2.342   1.608  16.501 -1.6859 -0.9825  0.5493
10924TIP3    H254188   2.278   1.609  16.363 -0.0492  0.2494 -0.2189
10925TIP3   OH254189   0.960   2.677  11.973  0.2545 -0.6651 -0.3693
10925TIP3    H154190   1.035   2.728  12.005 -1.5185  1.2632  0.8780
10925TIP3    H254191   0.957   2.697  11.879  1.8623 -1.5250 -0.6211
10926TIP3   OH254192   4.437   0.561  11.589 -0.0139 -0.2496  0.3905
10926TIP3    H154193   4.493   0.485  11.599 -0.2812 -0.5626 -0.4462
10926TIP3    H254194   4.496   0.631  11.560  0.1357 -0.2777  0.6224
10927TIP3   OH254195   6.564   3.405   2.522 -0.6455  0.4278  0.3071
10927TIP3    H154196   6.599   3.490   2.550 -0.0741 -0.0123  0.9579
10927TIP3    H254197   6.472   3.422   2.502 -0.0027  1.6838 -1.7190
10928TIP3   OH254198   3.129   4.204  11.861 -0.3133  0.1157  0.4400
10928TIP3    H154199   3.049   4.244  11.826 -1.4001 -2.3270 -0.0198
10928TIP3    H254200   3.167   4.158  11.786  1.0560  0.5236  0.8702
10929TIP3   OH254201   1.762   5.726   5.246 -0.4922 -0.7445 -0.7572
10929TIP3    H154202   1.816   5.661   5.292 -0.1148  1.1418  1.5968
10929TIP3    H254203   1.681   5.730   5.297  0.3091  2.0766  0.4409
10930TIP3   OH254204   0.334   4.676  12.311  0.6065  0.6319  0.3427
10930TIP3    H154205   0.319   4.741  12.380  0.4027 -0.4639  1.3639
10930TIP3    H254206   0.376   4.603  12.357  1.5226  0.3487 -0.9303
10931TIP3   OH254207   1.637   5.444  12.414 -0.3517  0.1957 -0.2820
10931TIP3    H154208   1.674   5.426  12.328 -1.5209  3.9666 -1.6505
10931TIP3    H254209   1.714   5.455  12.471  0.4449 -1.1263 -1.0902
10932TIP3   OH254210   5.364   4.131  14.810 -0.4672  0.0341 -0.3367
10932TIP3    H154211   5.296   4.100  14.751  1.1102 -2.4693 -0.9111
10932TIP3    H254212   5.445   4.096  14.773  0.7670  0.0726  2.2441
10933TIP3   OH254213   0.257   5.697   1.017 -0.3714  0.6827  0.3891
10933TIP3    H154214   0.304   5.778   0.996 -0.8390  1.1058  0.9322
10933TIP3    H254215   0.165   5.724   1.020 -0.5590  0.0578  0.2348
10934TIP3   OH254216   1.633   0.579   2.435 -0.2109  0.8141 -0.2738
10934TIP3    H154217   1.680   0.662   2.448 -0.2889  0.5158  2.1386
10934TIP3    H254218   1.679   0.517   2.491 -1.8984 -0.0999  0.1169
10935TIP3   OH254219   0.127   1.086   3.083  0.0654  0.3589  0.0886
10935TIP3    H154220   0.204   1.088   3.027 -0.6647  0.0480 -0.9398
10935TIP3    H254221   0.097   1.177   3.087  0.1949  0.4010  0.0873
10936TIP3   OH254222   5.792   5.682   0.265 -0.1499  0.9477  0.3520
10936TIP3    H154223   5.711   5.642   0.234  1.6276 -2.0208 -0.7106
10936TIP3    H254224   5.830   5.618   0.325  1.9656  1.7383 -0.0709
10937TIP3   OH254225   5.884   1.259   1.548  0.0787 -0.4011 -0.6572
10937TIP3    H154226   5.873   1.168   1.575 -0.8217  0.0064  0.3833
10937TIP3    H254227   5.954   1.292   1.603 -1.1881  0.1892  0.6435
10938TIP3   OH254228   3.046   2.991  15.300  0.6824  0.7946  0.1984
10938TIP3    H154229   3.122   2.976  15.356 -0.4389 -0.9946  1.2848
10938TIP3    H254230   2.987   3.044  15.353  0.7856  1.4300 -0.3156
10939TIP3   OH254231   1.891   6.225   0.155 -0.0088  0.0929 -0.1992
10939TIP3    H154232   1.870   6.202   0.065 -1.7114 -0.1382  0.2387
10939TIP3    H254233   1.839   6.165   0.208  0.4200  0.7055  0.9456
10940TIP3   OH254234   5.761   3.275   1.804 -0.4746  0.2251 -0.5825
10940TIP3    H154235   5.774   3.190   1.846 -0.6987  0.7030  0.4655
10940TIP3    H254236   5.824   3.276   1.732 -0.6181 -0.9103 -0.7348
10941TIP3   OH254237   2.594   3.524  12.561 -0.0831 -0.3262 -0.2310
10941TIP3    H154238   2.586   3.612  12.526 -0.3432  0.9896  3.0344
10941TIP3    H254239   2.671   3.527  12.618 -0.7502 -1.8946  0.8083
10942TIP3   OH254240   6.653   2.295  14.367 -0.3126  0.3628 -0.4919
10942TIP3    H154241   6.701   2.372  14.336  0.8144 -0.6795 -1.3954
10942TIP3    H254242   6.643   2.240  14.289 -2.7383  0.4305 -0.2585
10943TIP3   OH254243   3.423   1.978  13.941  0.6014 -0.1931  0.5159
10943TIP3    H154244   3.357   1.920  13.977  1.0662 -0.6256  0.6867
10943TIP3    H254245   3.506   1.946  13.977  0.8408  0.7270  0.8085
10944TIP3   OH254246   3.898   3.709  11.174  0.0584 -0.4193  0.0335
10944TIP3    H154247   3.918   3.665  11.091  0.6111 -0.3161  0.1114
10944TIP3    H254248   3.944   3.793  11.168 -0.3936 -0.1589  0.1967
10945TIP3   OH254249   5.225   0.137   2.283  0.7047  0.1769  0.3089
10945TIP3    H154250   5.218   0.230   2.306  0.0768  0.2583 -0.2106
10945TIP3    H254251   5.196   0.091   2.362 -0.4074  0.4386  0.0526
10946TIP3   OH254252   5.550   6.504  16.867  0.3707 -0.0265  0.0890
10946TIP3    H154253   5.558   6.495  16.772 -2.0995  1.5818 -0.3264
10946TIP3    H254254   5.514   6.420  16.895 -0.7762  0.1910 -0.6818
10947TIP3   OH254255   1.104   5.589   0.506 -0.1933  0.0663  0.0536
10947TIP3    H154256   1.144   5.628   0.584  0.4202 -1.4822  0.5309
10947TIP3    H254257   1.144   5.503   0.499 -2.5413 -1.0491 -0.1671
10948TIP3   OH254258   2.330   0.139   0.966 -0.0991 -0.3257 -0.1243
10948TIP3    H154259   2.391   0.074   0.930  0.8123 -0.4866  1.6032
10948TIP3    H254260   2.244   0.102   0.950  0.3621 -1.3450 -0.3407
10949TIP3   OH254261   1.124   0.488  16.605  0.3951  0.8328 -0.4201
10949TIP3    H154262   1.034   0.517  16.588  0.2830  0.3301 -0.6755
10949TIP3    H254263   1.134   0.408  16.554  0.7503  0.4832  0.1932
10950TIP3   OH254264   2.883   5.539   6.086 -0.3711  0.2089  0.6122
10950TIP3    H154265   2.933   5.472   6.131  2.3350  0.7833 -1.4544
10950TIP3    H254266   2.911   5.533   5.994 -4.1534  0.4971 -0.6528
10951TIP3   OH254267   2.204   4.920  16.398 -0.8667  0.4692 -0.2318
10951TIP3    H154268   2.174   4.851  16.338 -1.9218 -0.4596  1.3084
10951TIP3    H254269   2.127   4.976  16.409 -0.5091  0.9506 -0.1808
10952TIP3   OH254270   4.790   2.376   0.793 -0.2286  0.3837 -0.1307
10952TIP3    H154271   4.798   2.465   0.830  0.4283  0.2609  0.0353
10952TIP3    H254272   4.704   2.346   0.821  0.3282  0.2301  1.4602
10953TIP3   OH254273   2.297   3.947  12.336 -0.4490  0.5429  0.5153
10953TIP3    H154274   2.354   3.989  12.400  0.0471  0.9195 -0.1646
10953TIP3    H254275   2.323   3.986  12.252 -0.5113 -0.5494 -0.0228
10954TIP3   OH254276   2.057   1.029  13.163  0.2750  0.3802 -0.2557
10954TIP3    H154277   2.038   1.118  13.136  0.3379  0.1731 -0.9773
10954TIP3    H254278   2.024   0.974  13.092  5.1315  0.0652 -2.4471
10955TIP3   OH254279   0.561   0.865  16.756 -0.1944 -0.1571 -0.7204
10955TIP3    H154280   0.524   0.843  16.842  1.7774 -1.2990 -0.1137
10955TIP3    H254281   0.616   0.942  16.773  0.2608 -0.4320 -0.9311
10956TIP3   OH254282   5.898   4.824   0.872  0.5409 -0.0358  0.0681
10956TIP3    H154283   5.992   4.814   0.891  0.3880 -0.3014  0.6906
10956TIP3    H254284   5.895   4.895   0.808  0.9714  1.9457  2.1363
10957TIP3   OH254285   1.290   2.374   0.714 -0.2517 -0.1268  0.3760
10957TIP3    H154286   1.221   2.371   0.780  1.5020  0.9820  2.3127
10957TIP3    H254287   1.311   2.467   0.705  2.8917 -0.6102  1.9245
10958TIP3   OH254288   5.315   4.714  12.316 -0.6466 -0.0007 -0.0216
10958TIP3    H154289   5.266   4.654  12.259 -1.3234  1.4000 -0.9334
10958TIP3    H254290   5.395   4.666  12.338 -0.5365 -0.7037 -1.8506
10959TIP3   OH254291   4.445   1.402   3.062  0.6163 -0.0544  0.0352
10959TIP3    H154292   4.395   1.439   2.990  0.9078 -1.5554 -0.9636
10959TIP3    H254293   4.388   1.412   3.138  0.9193  2.8764 -0.1013
10960TIP3   OH254294   3.632   2.421   4.871 -0.6589 -0.8653 -0.6510
10960TIP3    H154295   3.652   2.343   4.923 -1.1158 -0.7428 -0.2813
10960TIP3    H254296   3.564   2.466   4.922  1.6186  1.2749  0.6147
10961TIP3   OH254297   1.314   1.555  15.852 -0.1370 -0.5258 -0.1127
10961TIP3    H154298   1.240   1.495  15.843 -0.0255 -0.8127  0.8543
10961TIP3    H254299   1.376   1.509  15.909 -0.2152  0.6510  0.9372
10962TIP3   OH254300   4.739   6.344  17.105  0.6146 -0.4412  0.0055
10962TIP3    H154301   4.717   6.371  17.194 -1.8446 -0.4481 -0.5492
10962TIP3    H254302   4.736   6.248  17.108 -0.2602 -0.4286 -0.2473
10963TIP3   OH254303   3.129   5.958   0.922  0.6232  0.0599 -0.2549
10963TIP3    H154304   3.053   5.936   0.976  0.5591  1.8030  0.3898
10963TIP3    H254305   3.127   6.053   0.915  1.4692 -0.0387 -2.1331
10964TIP3   OH254306   3.525   2.139   0.862  0.0395 -0.2643  0.7409
10964TIP3    H154307   3.557   2.137   0.953  0.4923 -0.3652  0.5844
10964TIP3    H254308   3.441   2.183   0.867 -0.5600 -1.4585  1.4051
10965TIP3   OH254309   5.852   3.685   5.777  0.0161 -0.1951  1.0506
10965TIP3    H154310   5.902   3.735   5.842 -1.6154  0.6356  1.6882
10965TIP3    H254311   5.867   3.593   5.801  1.6115  0.0187  0.9435
10966TIP3   OH254312   5.386   2.893   1.625  0.5387  0.1373 -0.2008
10966TIP3    H154313   5.461   2.834   1.620  1.2295  1.0421 -0.7540
10966TIP3    H254314   5.397   2.940   1.708  0.7305  0.4553 -0.4041
10967TIP3   OH254315   3.758   4.956   3.128 -0.4800 -0.3135 -0.1049
10967TIP3    H154316   3.739   5.024   3.063 -0.5752  0.0812  0.3305
10967TIP3    H254317   3.736   4.996   3.212 -0.4807 -0.8661  0.1624
10968TIP3   OH254318   3.910   5.313   5.266  0.6621 -0.2599  0.3534
10968TIP3    H154319   3.987   5.263   5.294  1.4993  0.1048 -1.2589
10968TIP3    H254320   3.892   5.372   5.339  0.6444 -1.8063  1.6079
10969TIP3   OH254321   5.030   1.786   4.539 -0.1420  0.0490 -0.4140
10969TIP3    H154322   5.095   1.801   4.470 -1.0667  0.0800 -1.2828
10969TIP3    H254323   5.030   1.691   4.552 -1.0672 -0.1202 -1.5484
10970TIP3   OH254324   4.293   1.709   0.349 -0.1394 -0.3943  0.3286
10970TIP3    H154325   4.352   1.758   0.406  0.5197 -1.5271  0.6147
10970TIP3    H254326   4.256   1.641   0.404  1.5321 -2.3461 -0.9060
10971TIP3   OH254327   0.333   5.506   0.088 -0.3665  0.7922  0.2051
10971TIP3    H154328   0.387   5.583   0.070 -0.0873  0.3931 -0.7207
10971TIP3    H254329   0.332   5.499   0.183  2.2003  0.1351  0.2197
10972TIP3   OH254330   6.228   6.124  14.176 -1.0097  0.3060 -0.2769
10972TIP3    H154331   6.143   6.083  14.162 -0.4807 -0.4110 -1.3812
10972TIP3    H254332   6.280   6.100  14.100  0.1460  0.8612  0.3241
10973TIP3   OH254333   1.801   0.230  15.605  0.8668 -0.4977 -0.2912
10973TIP3    H154334   1.749   0.296  15.558  1.2621  0.9797  1.2722
10973TIP3    H254335   1.806   0.156  15.545 -0.2647  0.5987 -1.7843
10974TIP3   OH254336   3.581   4.660  13.171  0.1704  0.1763  0.0656
10974TIP3    H154337   3.668   4.699  13.175  0.0779  0.3759  0.1263
10974TIP3    H254338   3.593   4.571  13.203  0.5102 -0.0673 -0.7293
10975TIP3   OH254339   4.098   5.926  10.692 -0.0993  0.0179  0.3062
10975TIP3    H154340   4.043   5.921  10.614  1.1218 -3.8548 -0.4178
10975TIP3    H254341   4.066   5.856  10.749  2.9310 -1.2489  0.5729
10976TIP3   OH254342   3.199   1.576  13.246 -0.0604 -0.2979  0.1369
10976TIP3    H154343   3.147   1.497  13.229 -0.7444  0.0819  0.4547
10976TIP3    H254344   3.137   1.637  13.286  1.0747 -0.5082  2.2820
10977TIP3   OH254345   2.785   6.097   3.940  0.3008 -0.2195 -0.3655
10977TIP3    H154346   2.774   6.100   4.035 -0.2109  1.4577 -0.4743
10977TIP3    H254347   2.866   6.049   3.927  0.3333 -0.5277  0.9154
10978TIP3   OH254348   6.338   6.025  16.321  0.0189  0.0242  0.6732
10978TIP3    H154349   6.414   6.002  16.374  0.2589 -1.2469 -0.1942
10978TIP3    H254350   6.370   6.087  16.256  0.1058  0.2411  0.9254
10979TIP3   OH254351   4.189   2.657  10.654  0.2832 -0.3515  0.4892
10979TIP3    H154352   4.231   2.631  10.572 -2.5805 -1.6212 -0.6647
10979TIP3    H254353   4.197   2.752  10.656  1.5923 -0.4305 -0.5837
10980TIP3   OH254354   5.001   1.903   5.867 -0.0519 -0.0836  0.0160
10980TIP3    H154355   4.957   1.855   5.938 -1.2637 -0.3233 -0.8726
10980TIP3    H254356   5.069   1.954   5.911  0.1266 -1.2951  1.1850
10981TIP3   OH254357   2.344   4.505  10.359 -0.1467 -0.0188  0.1868
10981TIP3    H154358   2.296   4.432  10.319 -1.4752  0.7283  0.4153
10981TIP3    H254359   2.393   4.544  10.286  0.1717 -0.8108 -0.0351
10982TIP3   OH254360   6.680   0.059  15.671  0.1950 -0.1118  0.4562
10982TIP3    H154361   6.616   0.059  15.600  2.4081 -1.9798 -1.6370
10982TIP3    H254362   6.687  -0.032  15.698  3.8700 -0.3902 -1.2011
10983TIP3   OH254363   6.333   4.105  13.177 -0.1538  0.2774 -0.4346
10983TIP3    H154364   6.327   4.010  13.171  0.1505  0.0530  2.3001
10983TIP3    H254365   6.243   4.134  13.190 -0.2481  0.3912 -1.2819
10984TIP3   OH254366   5.954   2.091  15.078 -0.4517  0.0871 -0.3878
10984TIP3    H154367   6.043   2.059  15.098 -0.8818 -0.6707  0.3397
10984TIP3    H254368   5.967   2.155  15.008  0.5582 -0.8042 -1.0311
10985TIP3   OH254369   0.852   0.937   4.543  0.9687 -0.2392  0.8394
10985TIP3    H154370   0.867   0.984   4.461 -0.2652  1.4739  1.5588
10985TIP3    H254371   0.775   0.883   4.526 -1.1046  2.3283  1.7057
10986TIP3   OH254372   3.664   5.575   0.430  0.1943 -0.5716  0.1095
10986TIP3    H154373   3.696   5.639   0.366  1.0461 -0.2505  0.8419
10986TIP3    H254374   3.633   5.629   0.503  0.7716 -0.9797  0.6634
10987TIP3   OH254375   6.647   3.712  14.504 -0.0441 -0.1565 -0.0859
10987TIP3    H154376   6.618   3.740  14.591  0.1769 -0.1526 -0.0133
10987TIP3    H254377   6.743   3.713  14.509 -0.0250 -1.4110  0.0744
10988TIP3   OH254378   2.026   5.523  11.237 -0.0316  0.1521  0.1136
10988TIP3    H154379   1.991   5.447  11.190 -0.0302 -0.3988  0.9949
10988TIP3    H254380   1.962   5.592  11.221 -1.0572 -0.5865  0.9253
10989TIP3   OH254381   0.142   1.718  11.822 -0.7483  0.1569 -0.6351
10989TIP3    H154382   0.151   1.711  11.727  1.1638 -2.8824 -0.2733
10989TIP3    H254383   0.220   1.764  11.850 -0.6470 -0.1569 -0.4029
10990TIP3   OH254384   2.503   1.154   3.403  0.1995 -0.0355 -0.1224
10990TIP3    H154385   2.555   1.105   3.340  3.4731  0.2085  2.2407
10990TIP3    H254386   2.467   1.087   3.462  0.6588  0.0073  0.2170
10991TIP3   OH254387   5.442   1.658  14.694  0.6800 -0.3595 -0.1735
10991TIP3    H154388   5.431   1.741  14.646 -1.0564 -0.9214 -0.7977
10991TIP3    H254389   5.511   1.676  14.758 -0.3137  1.8543  0.3282
10992TIP3   OH254390   2.604   3.783  13.775  0.0482 -0.0962 -0.2114
10992TIP3    H154391   2.564   3.761  13.859 -0.1031  0.2977 -0.1774
10992TIP3    H254392   2.552   3.736  13.710 -0.0561 -0.1178 -0.1121
10993TIP3   OH254393   0.095   5.843  13.433  0.4837 -0.1216 -0.2708
10993TIP3    H154394   0.030   5.846  13.363  1.2355  2.0524 -0.9277
10993TIP3    H254395   0.176   5.815  13.389  1.1616  2.0500 -0.5040
10994TIP3   OH254396   0.248   2.681  12.667  0.3341 -0.3049 -0.2201
10994TIP3    H154397   0.330   2.631  12.671 -0.6330 -1.8585  2.0020
10994TIP3    H254398   0.221   2.687  12.759 -1.8597  0.4861 -0.9090
10995TIP3   OH254399   5.502   0.103   4.026  0.2261  0.3173 -0.1725
10995TIP3    H154400   5.568   0.051   3.980  0.7235 -0.2382  1.1571
10995TIP3    H254401   5.439   0.039   4.059  0.1988  0.6624  0.4472
10996TIP3   OH254402   3.776   4.344   1.015 -0.0989 -0.1307  0.2660
10996TIP3    H154403   3.700   4.383   0.971 -0.8556 -1.5702  0.2540
10996TIP3    H254404   3.780   4.254   0.981  0.3748 -0.7065  1.7927
10997TIP3   OH254405   2.715   5.504  13.717 -0.0796  0.1163 -0.1695
10997TIP3    H154406   2.791   5.495  13.774  0.3246 -0.7905 -0.8381
10997TIP3    H254407   2.719   5.595  13.686  0.7614  0.0593 -0.2387
10998TIP3   OH254408   0.405   1.589  16.038  0.3713  0.9111 -0.3211
10998TIP3    H154409   0.429   1.644  16.113 -2.1357  1.3548  0.2017
10998TIP3    H254410   0.327   1.630  16.002  0.7554 -0.0843 -2.3756
10999TIP3   OH254411   1.405   3.977   3.854  0.0220 -0.4645  0.2178
10999TIP3    H154412   1.369   3.890   3.872  1.2555 -0.5063  2.6678
10999TIP3    H254413   1.468   3.963   3.784 -0.3068 -1.4127  0.1052
11000TIP3   OH254414   2.647   4.915  17.109 -0.2054  0.4673 -0.4297
11000TIP3    H154415   2.553   4.907  17.126 -0.3545  0.4007 -1.2624
11000TIP3    H254416   2.658   4.882  17.020  0.7415 -0.3371 -0.0253
11001TIP3   OH254417   0.920   6.667   5.376  0.2120 -0.4457  0.0478
11001TIP3    H154418   0.854   6.735   5.372 -0.2187 -0.8879 -0.4121
11001TIP3    H254419   0.874   6.591   5.413  1.1734  0.0878  2.4635
11002TIP3   OH254420   2.333   5.084  16.932 -0.0631 -0.3931  0.3430
11002TIP3    H154421   2.308   5.074  16.841 -1.1921 -2.1839  0.8264
11002TIP3    H254422   2.391   5.160  16.933  0.0204 -0.4070 -1.8599
11003TIP3   OH254423   2.790   6.325   6.079 -0.6998 -0.3530 -0.1258
11003TIP3    H154424   2.784   6.285   6.166 -1.2528 -2.0889 -0.9430
11003TIP3    H254425   2.781   6.419   6.095  1.3554 -0.4426  1.9168
11004TIP3   OH254426   0.683   5.780  10.375 -0.4763  0.7473  0.2632
11004TIP3    H154427   0.637   5.727  10.440 -1.0498  0.8754 -0.0410
11004TIP3    H254428   0.656   5.744  10.290 -0.4510  1.1771  0.0690
11005TIP3   OH254429   4.559   6.565  16.671  0.4029  0.1219 -0.3396
11005TIP3    H154430   4.585   6.563  16.763 -0.1240  0.5976 -0.1808
11005TIP3    H254431   4.507   6.485  16.659  2.0256 -0.9098 -0.6959
11006TIP3   OH254432   1.308   4.563   4.251  0.3827  0.1573 -0.2885
11006TIP3    H154433   1.299   4.487   4.308  0.1048  0.9406  0.7210
11006TIP3    H254434   1.366   4.534   4.181  0.3830 -0.9420  0.1632
11007TIP3   OH254435   6.390   6.646  15.265 -0.1701  0.7741  0.2384
11007TIP3    H154436   6.444   6.568  15.275 -2.0005 -0.5075  0.4599
11007TIP3    H254437   6.332   6.626  15.192 -0.6876  1.9195  0.3177
11008TIP3   OH254438   5.911   6.308   3.110 -0.7722  0.0386 -0.4238
11008TIP3    H154439   5.976   6.346   3.050  1.6845 -3.7855 -0.3771
11008TIP3    H254440   5.834   6.292   3.056  0.0656  0.1674 -1.6809
11009TIP3   OH254441   4.343   3.187   5.263  0.1098  0.2245 -0.0214
11009TIP3    H154442   4.384   3.101   5.271 -0.1686  0.3824  3.5217
11009TIP3    H254443   4.397   3.245   5.317 -1.7102  1.5456  0.4308
11010TIP3   OH254444   0.804   5.486   2.253 -0.4943 -0.7705  0.0461
11010TIP3    H154445   0.895   5.513   2.241 -0.8533  0.5892  0.3643
11010TIP3    H254446   0.762   5.504   2.169 -1.3507  2.1696  1.0660
11011TIP3   OH254447   6.334   2.517  16.786 -0.4962 -0.4991  0.7019
11011TIP3    H154448   6.404   2.468  16.742 -2.0244 -2.5294  0.4500
11011TIP3    H254449   6.263   2.521  16.721  0.1618  3.5618  0.0852
11012TIP3   OH254450   1.818   4.016  14.055  0.3610  0.4657 -0.5452
11012TIP3    H154451   1.905   4.055  14.062  1.1542 -1.1064 -1.5269
11012TIP3    H254452   1.833   3.922  14.066 -1.7345  0.5174  3.6112
11013TIP3   OH254453   6.053   0.636  13.625 -0.2783  0.6196 -0.2841
11013TIP3    H154454   6.001   0.565  13.585  0.5131  0.6858 -1.4326
11013TIP3    H254455   6.013   0.716  13.591 -0.2864  0.6956 -0.0930
11014TIP3   OH254456   6.219   1.920  13.717 -0.2519  0.2886  0.6347
11014TIP3    H154457   6.151   1.853  13.721 -0.7259  0.5104 -2.4503
11014TIP3    H254458   6.269   1.898  13.638  1.9133  1.3992  1.6745
11015TIP3   OH254459   4.314   5.621  17.099  0.0582  0.4755 -0.2564
11015TIP3    H154460   4.360   5.614  17.182  1.3022  0.8838 -0.9037
11015TIP3    H254461   4.278   5.710  17.098 -2.8582 -0.6221  1.3119
11016TIP3   OH254462   4.535   5.531   4.829  0.4284  0.1005  0.5268
11016TIP3    H154463   4.554   5.600   4.766 -1.2882 -0.5567 -0.7498
11016TIP3    H254464   4.566   5.565   4.913  0.0321  2.2092 -0.1744
11017TIP3   OH254465   4.483   5.444  12.599 -0.2143 -0.1657 -0.1827
11017TIP3    H154466   4.435   5.391  12.662 -0.8463 -1.2617 -1.5575
11017TIP3    H254467   4.424   5.453  12.525  0.0170  2.2037 -0.1225
11018TIP3   OH254468   0.179   1.735   4.260  0.3362  0.3293  0.9850
11018TIP3    H154469   0.162   1.646   4.292  1.1135 -0.7348 -1.4351
11018TIP3    H254470   0.110   1.751   4.196  2.6882 -0.2999 -1.8190
11019TIP3   OH254471   0.761   3.027  12.829 -0.3991  0.1255 -0.0640
11019TIP3    H154472   0.682   3.030  12.775 -1.3887  0.8456  1.3836
11019TIP3    H254473   0.806   2.947  12.801 -1.4436 -0.0905 -1.1776
11020TIP3   OH254474   2.040   3.320  12.928  0.3959  0.2042  0.5020
11020TIP3    H154475   2.085   3.235  12.929  0.3866  0.1829 -0.2763
11020TIP3    H254476   2.023   3.337  12.835  0.2559  0.9834  0.6646
11021TIP3   OH254477   5.626   4.830  10.963  0.6271  0.6253  0.0863
11021TIP3    H154478   5.624   4.844  10.869 -0.6450 -2.2904 -0.3952
11021TIP3    H254479   5.533   4.822  10.988  0.9746  0.7160  1.4800
11022TIP3   OH254480   5.492   1.053  13.159 -0.6099 -1.0135  0.0798
11022TIP3    H154481   5.442   0.972  13.165 -0.3417 -1.0543  2.3773
11022TIP3    H254482   5.431   1.121  13.189 -0.6034 -0.4655 -1.1330
11023TIP3   OH254483   0.129   0.786   0.456  0.0630 -0.2827  0.1147
11023TIP3    H154484   0.076   0.778   0.535  0.6548  1.5612  0.7026
11023TIP3    H254485   0.070   0.757   0.386 -0.8821 -0.6809  1.0541
11024TIP3   OH254486   4.869   5.270  12.265 -0.2165 -0.0848  0.0943
11024TIP3    H154487   4.789   5.242  12.221 -0.4250  0.2362  0.2691
11024TIP3    H254488   4.940   5.228  12.215 -0.4515  0.2929 -0.5639
11025TIP3   OH254489   3.405   4.993   1.047  0.2181  0.0354  0.4403
11025TIP3    H154490   3.394   5.014   1.140  1.0547  0.9213  0.3381
11025TIP3    H254491   3.322   4.952   1.022 -0.0294 -0.1624  1.5615
11026TIP3   OH254492   0.327   4.685  13.236  0.0338 -0.5905 -0.1235
11026TIP3    H154493   0.360   4.775  13.240 -0.4571 -0.3578 -1.1849
11026TIP3    H254494   0.260   4.681  13.304 -0.2948 -0.0102 -0.4106
11027TIP3   OH254495   1.236   1.667   6.185 -0.2847 -0.2270  0.5037
11027TIP3    H154496   1.228   1.586   6.235  1.2986 -0.7074  0.0217
11027TIP3    H254497   1.218   1.736   6.248 -0.1940 -0.8929  1.2690
11028TIP3   OH254498   6.429   5.171  11.723 -0.4257  0.4580 -0.4127
11028TIP3    H154499   6.374   5.249  11.718  0.5682  1.2934  1.2375
11028TIP3    H254500   6.456   5.166  11.815 -1.2524 -2.3757 -0.2681
11029TIP3   OH254501   4.652   3.901   3.860  0.6929 -0.1099 -0.1108
11029TIP3    H154502   4.633   3.994   3.854  0.7648 -0.0169  0.9329
11029TIP3    H254503   4.605   3.872   3.938 -1.1346 -1.4133 -1.6542
11030TIP3   OH254504   1.839   2.607   6.134  0.1068 -0.3821 -0.3786
11030TIP3    H154505   1.812   2.669   6.201  1.2517 -1.5228  1.1958
11030TIP3    H254506   1.770   2.541   6.132 -0.6388  0.4152 -1.3710
11031TIP3   OH254507   1.622   0.096  12.141  0.7487  0.9884  0.4144
11031TIP3    H154508   1.654   0.044  12.214  0.8387  1.9148  1.0481
11031TIP3    H254509   1.701   0.130  12.099  0.6953  0.5027 -0.0798
11032TIP3   OH254510   5.043   0.449  10.337 -0.7199  0.3279  0.2251
11032TIP3    H154511   5.127   0.474  10.375 -0.7096  1.0986 -0.3065
11032TIP3    H254512   5.022   0.518  10.274 -1.3928 -0.2354 -0.1910
11033TIP3   OH254513   6.599   5.396   1.603 -0.3317 -0.0591  0.0252
11033TIP3    H154514   6.639   5.405   1.689  0.4091  0.8768 -0.4117
11033TIP3    H254515   6.508   5.423   1.616  0.1897  1.6967  0.1715
11034TIP3   OH254516   1.663   5.608   5.726  0.3749 -0.4995  0.1729
11034TIP3    H154517   1.693   5.599   5.816 -0.5577  0.2112  0.5583
11034TIP3    H254518   1.723   5.672   5.687  0.8860 -0.9393  0.2337
11035TIP3   OH254519   3.040   5.368   1.168  0.3072 -0.0920 -0.5366
11035TIP3    H154520   3.070   5.357   1.258 -1.4042 -0.5687 -0.0020
11035TIP3    H254521   3.095   5.438   1.132  0.8658  0.2317  0.9354
11036TIP3   OH254522   2.915   1.587   3.202 -0.2489 -0.1055 -0.5690
11036TIP3    H154523   2.871   1.507   3.230  0.3923 -1.0229 -2.1012
11036TIP3    H254524   2.899   1.650   3.272 -0.0003 -1.8474  1.0674
11037TIP3   OH254525   6.290   2.700  15.172 -0.0442  0.2380  0.7261
11037TIP3    H154526   6.355   2.769  15.160  0.5630 -0.6205 -1.1203
11037TIP3    H254527   6.209   2.738  15.137 -0.0346  0.5058  0.9900
11038TIP3   OH254528   5.134   3.190   5.784 -0.3251 -0.8398 -0.1120
11038TIP3    H154529   5.057   3.245   5.773 -2.3204 -3.4362  0.5130
11038TIP3    H254530   5.177   3.224   5.863 -0.7171  0.7055 -0.5519
11039TIP3   OH254531   0.181   2.329  11.891  0.4822  0.7836  0.2825
11039TIP3    H154532   0.108   2.389  11.872  0.3409  0.3629 -0.5754
11039TIP3    H254533   0.213   2.304  11.804  0.1790 -0.8057  0.6162
11040TIP3   OH254534   0.013   4.650  11.829  0.1798 -0.4824  0.3542
11040TIP3    H154535   0.054   4.593  11.894  2.2236 -0.0393 -0.5021
11040TIP3    H254536   0.046   4.618  11.745  0.5762  1.3126 -0.2048
11041TIP3   OH254537   5.843   5.416   0.430 -0.4324  0.4437 -0.1090
11041TIP3    H154538   5.795   5.341   0.396  0.4712 -0.6868  1.0632
11041TIP3    H254539   5.935   5.396   0.410 -0.1361  0.9831  0.7016
11042TIP3   OH254540   2.937   1.475  14.511  0.5132  0.1397 -0.6290
11042TIP3    H154541   2.892   1.541  14.458 -0.3428 -1.6506 -2.2176
11042TIP3    H254542   2.867   1.422  14.549  1.1923 -0.7050 -0.5315
11043TIP3   OH254543   5.412   1.379   4.334  0.2381 -0.2775 -0.5195
11043TIP3    H154544   5.454   1.459   4.303 -2.1733  0.4772 -1.9188
11043TIP3    H254545   5.321   1.403   4.349 -0.5335 -2.7550 -0.9411
11044TIP3   OH254546   4.540   5.470  11.002  0.2174  0.2632 -0.2363
11044TIP3    H154547   4.570   5.559  11.016  0.5185  0.3867 -1.5997
11044TIP3    H254548   4.445   5.474  11.014  0.2305  0.7675 -0.3129
11045TIP3   OH254549   4.767   4.771  16.770  0.5144 -0.0607 -0.5992
11045TIP3    H154550   4.772   4.781  16.865  0.4373  2.6813 -0.8494
11045TIP3    H254551   4.690   4.716  16.755 -0.1906  0.4985  0.8819
11046TIP3   OH254552   2.980   2.531   2.732 -0.0216  0.3599 -0.3046
11046TIP3    H154553   3.061   2.520   2.780  0.2889 -2.1011 -1.3469
11046TIP3    H254554   3.000   2.597   2.666  0.1374  2.2192  1.5458
11047TIP3   OH254555   0.957   0.508   5.096  0.2073 -0.5564 -0.3197
11047TIP3    H154556   1.031   0.480   5.041 -0.0400 -2.3827  0.2382
11047TIP3    H254557   0.995   0.574   5.154  0.8900  0.0922 -1.4891
11048TIP3   OH254558   1.498   5.790   4.460  0.4909 -0.2740  0.0715
11048TIP3    H154559   1.569   5.739   4.500  0.6135 -0.8513 -0.8772
11048TIP3    H254560   1.537   5.831   4.384 -0.0315 -0.0846 -0.0996
11049TIP3   OH254561   5.498   2.892   2.655  0.0954  0.1027 -0.2742
11049TIP3    H154562   5.452   2.972   2.629  1.5264 -0.3176 -4.4399
11049TIP3    H254563   5.433   2.822   2.644 -0.1711  0.2775  0.1677
11050TIP3   OH254564   5.125   4.234  16.804  0.0527 -0.0019  0.1246
11050TIP3    H154565   5.124   4.329  16.815 -0.6452 -0.0416  0.4284
11050TIP3    H254566   5.135   4.220  16.710 -0.8403  0.3840 -0.0376
11051TIP3   OH254567   2.914   2.011  17.111 -0.1851  0.1787 -0.1129
11051TIP3    H154568   2.863   1.954  17.168  0.9779 -0.0440  0.7123
11051TIP3    H254569   2.994   1.962  17.092  1.2541  1.8777  1.3735
11052TIP3   OH254570   6.641   3.638   0.288  0.7025 -0.6328  0.1410
11052TIP3    H154571   6.631   3.602   0.376  0.7710  1.5313  1.0580
11052TIP3    H254572   6.608   3.569   0.231 -0.4231 -1.6296  1.9304
11053TIP3   OH254573   6.330   5.438   2.133  0.3248 -0.2218 -0.1780
11053TIP3    H154574   6.327   5.533   2.122 -0.9023 -0.3593 -1.1138
11053TIP3    H254575   6.421   5.419   2.155  1.0090  0.9639 -1.9329
11054TIP3   OH254576   0.019   2.239  12.310 -0.6953 -0.0797 -0.3370
11054TIP3    H154577  -0.055   2.250  12.370 -0.4772  0.5956 -0.1819
11054TIP3    H254578   0.054   2.152  12.330 -0.8358  0.0047  0.2869
11055TIP3   OH254579   1.438   6.567  12.190  0.4064  0.2646  0.7523
11055TIP3    H154580   1.443   6.514  12.269  0.8105 -0.5007  0.2156
11055TIP3    H254581   1.434   6.657  12.222 -0.9814 -0.1047  1.6889
11056TIP3   OH254582   4.704   0.215  12.311 -0.1345 -0.7963  0.6834
11056TIP3    H154583   4.762   0.139  12.308  0.7748 -0.0954 -0.2125
11056TIP3    H254584   4.618   0.181  12.286  0.1810 -1.5979  0.6669
11057TIP3   OH254585   1.461   5.041   5.461 -0.1687  0.3317 -0.1973
11057TIP3    H154586   1.430   5.080   5.379  2.3317  2.1014 -0.3513
11057TIP3    H254587   1.470   5.116   5.520  1.8099 -0.3989  0.4495
11058TIP3   OH254588   6.205   1.181   5.014 -0.8399 -0.1579  0.0961
11058TIP3    H154589   6.152   1.112   4.973  1.1965 -2.2089  0.7834
11058TIP3    H254590   6.279   1.193   4.954 -0.5527  0.5550  0.5858
11059TIP3   OH254591   3.000   5.154   5.895 -0.4810  1.1101  0.8590
11059TIP3    H154592   3.070   5.220   5.890 -1.4857  2.2026  0.9534
11059TIP3    H254593   2.944   5.173   5.819 -0.2670 -0.2423  0.3518
11060TIP3   OH254594   5.153   4.660  14.965  0.2422 -0.0186  0.3310
11060TIP3    H154595   5.091   4.616  14.907 -1.0370  1.5549  0.4850
11060TIP3    H254596   5.112   4.744  14.986  1.4365  0.1353  2.1831
11061TIP3   OH254597   2.078   6.707   3.245  0.3966  0.5058 -0.0545
11061TIP3    H154598   1.988   6.738   3.231 -0.1266 -0.4622  1.0640
11061TIP3    H254599   2.133   6.780   3.217 -0.7537  1.4106 -0.0045
11062TIP3   OH254600   4.063   4.837  13.345 -1.0340 -0.4138 -0.0578
11062TIP3    H154601   4.073   4.930  13.364 -0.6462 -0.1622 -1.4345
11062TIP3    H254602   4.082   4.793  13.428  0.6145  0.6424  0.1453
11063TIP3   OH254603   2.406   6.197   0.953  0.2516 -0.1386 -0.3928
11063TIP3    H154604   2.488   6.148   0.960  0.3695  0.2499  1.2762
11063TIP3    H254605   2.341   6.139   0.992 -0.1966 -0.3106 -1.4134
11064TIP3   OH254606   4.625   2.409   5.560  0.3316 -0.5016  0.1556
11064TIP3    H154607   4.543   2.404   5.608  0.4356  2.5442  0.7944
11064TIP3    H254608   4.600   2.440   5.472  0.9007  2.2540  0.9135
11065TIP3   OH254609   5.900   4.287  14.338  0.0058 -0.8151 -0.0597
11065TIP3    H154610   5.964   4.269  14.269 -0.8857  0.9293 -1.3764
11065TIP3    H254611   5.924   4.227  14.409  2.9912 -0.3421 -0.6038
11066TIP3   OH254612   6.710   0.130  14.906 -0.5028  0.5588 -0.5625
11066TIP3    H154613   6.801   0.102  14.916 -1.1049 -1.1819  0.1959
11066TIP3    H254614   6.707   0.216  14.946  0.8100  0.6317 -0.5886
11067TIP3   OH254615   1.032   2.354   4.305  0.8034 -0.0855 -0.5603
11067TIP3    H154616   0.991   2.297   4.240  3.4090 -0.0566 -2.3290
11067TIP3    H254617   1.001   2.442   4.283 -0.0171 -0.3298 -0.3955
11068TIP3   OH254618   6.665   1.350  14.920 -0.1177  0.2185 -0.5810
11068TIP3    H154619   6.630   1.386  15.001 -2.2151 -2.5133 -0.2254
11068TIP3    H254620   6.616   1.394  14.850 -0.1168  0.6849 -0.2861
11069TIP3   OH254621   6.550   3.822  12.999 -0.2105  0.2156  0.6969
11069TIP3    H154622   6.632   3.780  13.025 -0.6509  0.3677  2.4026
11069TIP3    H254623   6.563   3.845  12.907  0.6478 -2.1525  0.2055
11070TIP3   OH254624   4.376   4.826   3.630  0.9338  0.2529 -0.3259
11070TIP3    H154625   4.448   4.888   3.638 -1.7263  3.2936  1.0057
11070TIP3    H254626   4.366   4.790   3.719 -1.2182  2.2806  0.2968
11071TIP3   OH254627   3.672   3.366  11.516 -0.6631 -0.0895 -0.3311
11071TIP3    H154628   3.709   3.279  11.507  1.9748  1.1473 -1.9158
11071TIP3    H254629   3.621   3.379  11.436 -0.0658  0.3011 -0.6424
11072TIP3   OH254630   1.009   3.193  16.600  0.6147  0.8136  0.1360
11072TIP3    H154631   1.091   3.219  16.642  0.6831  0.6742  0.0929
11072TIP3    H254632   1.037   3.152  16.518  0.5867 -0.5638  0.8000
11073TIP3   OH254633   0.427   5.129   3.551  0.0223 -0.2840  0.2244
11073TIP3    H154634   0.475   5.160   3.474  0.8500  1.0253  1.2539
11073TIP3    H254635   0.487   5.068   3.593  1.0652  1.8271  1.8539
11074TIP3   OH254636   6.039   2.375  12.123  0.4495 -0.0154  0.9554
11074TIP3    H154637   6.045   2.427  12.043  1.2913 -2.1035 -0.3779
11074TIP3    H254638   6.121   2.391  12.169  0.5192  0.1464  0.7748
11075TIP3   OH254639   5.515   5.805  14.323  0.3665  0.1497  0.1785
11075TIP3    H154640   5.532   5.743  14.394  0.3335  0.7671  0.7313
11075TIP3    H254641   5.519   5.752  14.243  2.9795 -0.0818  0.4315
11076TIP3   OH254642   3.723   2.351  15.837  0.2941  0.3376 -0.5113
11076TIP3    H154643   3.656   2.343  15.769  1.5101  1.6957 -1.9208
11076TIP3    H254644   3.693   2.422  15.893 -0.2891 -0.2096 -0.1271
11077TIP3   OH254645   4.162   0.665  12.227  0.3917 -0.0898 -0.6162
11077TIP3    H154646   4.146   0.757  12.247  1.2046 -0.3356  1.2602
11077TIP3    H254647   4.103   0.646  12.155  0.8136  2.1134 -1.5770
11078TIP3   OH254648   1.272   5.155   1.036  0.2799  0.0746 -0.1810
11078TIP3    H154649   1.211   5.208   1.088  0.0928  0.3367 -0.6700
11078TIP3    H254650   1.358   5.178   1.070  0.1895  0.5874 -0.2930
11079TIP3   OH254651   4.837   2.968  11.061  0.7755  0.1932  0.0963
11079TIP3    H154652   4.932   2.966  11.060  0.7525 -1.0138 -1.8802
11079TIP3    H254653   4.811   2.935  10.975 -1.4238  0.7500  0.5073
11080TIP3   OH254654   2.172   1.515  11.954  0.2776  0.0606  0.0329
11080TIP3    H154655   2.088   1.514  11.908 -0.3936 -0.8099  1.2296
11080TIP3    H254656   2.233   1.474  11.894 -0.3492 -0.0732 -0.5222
11081TIP3   OH254657   4.371   3.085   1.712  0.5731 -0.3787  0.4897
11081TIP3    H154658   4.296   3.132   1.674  1.0175 -0.8618 -1.0226
11081TIP3    H254659   4.332   3.032   1.782 -0.2389  0.6716  0.8562
11082TIP3   OH254660   0.845   5.501  13.742  0.5244 -0.0298  0.5160
11082TIP3    H154661   0.840   5.434  13.810  1.0542 -0.2650  0.3297
11082TIP3    H254662   0.919   5.556  13.769  0.8881 -0.2658  0.0052
11083TIP3   OH254663   2.387   0.004  16.781  0.0612 -0.7029  0.0341
11083TIP3    H154664   2.386  -0.090  16.797  0.5558 -0.5964  0.7057
11083TIP3    H254665   2.440   0.040  16.852 -0.1783  0.0874 -0.1824
11084TIP3   OH254666   2.091   4.464  15.411  0.3619 -0.3381 -0.3206
11084TIP3    H154667   2.067   4.387  15.360  1.1443 -0.8506  0.0823
11084TIP3    H254668   2.071   4.440  15.501  0.6042 -0.0643 -0.1929
11085TIP3   OH254669   0.903   0.774   5.509 -0.2454  0.1653 -0.2029
11085TIP3    H154670   0.897   0.700   5.569  2.8693  0.6477  0.7559
11085TIP3    H254671   0.888   0.851   5.564  0.6180  0.4846 -0.4094
11086TIP3   OH254672   3.454   1.956   4.566  0.2589 -0.4876 -0.2349
11086TIP3    H154673   3.506   1.959   4.486  0.5517 -0.5221 -0.0476
11086TIP3    H254674   3.387   1.890   4.550 -0.1776  0.0835 -0.7539
11087TIP3   OH254675   6.673   4.133   5.786  0.0818 -0.5695  0.0893
11087TIP3    H154676   6.590   4.098   5.818 -1.5574  2.5902 -0.5749
11087TIP3    H254677   6.656   4.161   5.696  0.8827  3.0939  0.9761
11088TIP3   OH254678   2.398   0.385  12.029 -0.5186  0.2584 -0.0194
11088TIP3    H154679   2.403   0.409  12.122 -1.7589  0.6994 -0.0523
11088TIP3    H254680   2.412   0.290  12.029  1.6525  0.5657  0.3869
11089TIP3   OH254681   3.596   0.771   0.145  0.3457 -0.2808  0.3509
11089TIP3    H154682   3.568   0.762   0.236  1.2410  0.5405  0.7141
11089TIP3    H254683   3.575   0.861   0.122 -1.2195 -0.8898 -0.7330
11090TIP3   OH254684   3.848   1.635   3.885  0.2706 -0.2570 -0.5434
11090TIP3    H154685   3.774   1.693   3.904  0.6247 -0.0016  0.0826
11090TIP3    H254686   3.918   1.694   3.856  0.7464 -0.3288  0.4369
11091TIP3   OH254687   5.698   1.382  15.646 -0.2337 -0.0111  0.7606
11091TIP3    H154688   5.778   1.405  15.694 -0.3867  0.5614  0.7460
11091TIP3    H254689   5.627   1.413  15.702 -0.3751  2.7629 -0.8695
11092TIP3   OH254690   4.131   1.950   0.603 -0.0614 -0.2461  0.4796
11092TIP3    H154691   4.151   1.972   0.512  0.8321 -0.2652  0.6651
11092TIP3    H254692   4.049   1.900   0.598  1.9765 -3.6243 -0.7345
11093TIP3   OH254693   1.247   2.484  11.836 -0.2034 -0.3170 -0.4895
11093TIP3    H154694   1.153   2.473  11.822 -0.1631 -1.1753 -0.1076
11093TIP3    H254695   1.277   2.533  11.760 -1.0529  0.4324 -0.3469
11094TIP3   OH254696   5.135   1.947  15.455 -0.4263  0.7922  0.3240
11094TIP3    H154697   5.103   2.024  15.504 -0.3540  0.2049  1.3137
11094TIP3    H254698   5.122   1.874  15.515  2.1436  0.4366  0.4962
11095TIP3   OH254699   0.587   6.751   1.847 -0.0171  0.5484 -0.1553
11095TIP3    H154700   0.600   6.759   1.753  0.0406 -1.3295 -0.3300
11095TIP3    H254701   0.657   6.803   1.886 -0.0692  1.3622 -1.1381
11096TIP3   OH254702   5.830   6.618  13.704 -0.2433 -0.3503 -0.6460
11096TIP3    H154703   5.850   6.541  13.758 -0.7555 -0.7025 -0.9537
11096TIP3    H254704   5.837   6.692  13.765 -0.8129 -0.7437 -0.0890
11097TIP3   OH254705   5.802   0.231  12.703 -0.0300  0.3600  0.0468
11097TIP3    H154706   5.728   0.276  12.660 -0.3346  1.2776  1.5009
11097TIP3    H254707   5.817   0.282  12.783  1.7417 -0.2325  0.0938
11098TIP3   OH254708   0.930   0.490  11.793 -0.0907 -0.0190 -0.0827
11098TIP3    H154709   0.982   0.493  11.713  1.4600 -0.2728  0.8904
11098TIP3    H254710   0.992   0.511  11.863 -0.7323 -2.6814  1.3695
11099TIP3   OH254711   1.036   2.197  11.174 -0.3376 -0.2065  0.0767
11099TIP3    H154712   1.059   2.104  11.171 -2.0076 -0.5832 -2.2107
11099TIP3    H254713   0.982   2.211  11.096  0.2461  2.7920  0.1583
11100TIP3   OH254714   5.698   3.844  12.548 -0.2632 -0.0266 -0.3442
11100TIP3    H154715   5.661   3.823  12.462  1.7334 -0.7937 -1.0607
11100TIP3    H254716   5.785   3.878  12.529 -0.0502  0.4375  1.3579
11101TIP3   OH254717   5.399   4.504   0.843  0.3629 -0.1446  0.2539
11101TIP3    H154718   5.392   4.564   0.917 -0.1454  0.0838  0.0256
11101TIP3    H254719   5.491   4.507   0.818  0.4674  0.0397  0.6579
11102TIP3   OH254720   1.221   1.558   2.854 -0.1606 -0.3552  0.3288
11102TIP3    H154721   1.251   1.544   2.944  1.4154  1.5789  0.1332
11102TIP3    H254722   1.300   1.545   2.801 -0.5740  0.7461 -0.5635
11103TIP3   OH254723   2.140   3.721  17.049  0.2255 -0.0432 -0.4058
11103TIP3    H154724   2.154   3.630  17.021 -0.6860 -0.0225 -0.9388
11103TIP3    H254725   2.158   3.720  17.143 -0.5087 -0.9472 -0.2674
11104TIP3   OH254726   4.593   5.004   3.600  0.7264 -0.1624  0.2077
11104TIP3    H154727   4.618   5.020   3.509 -0.6400 -0.6838 -0.2827
11104TIP3    H254728   4.567   5.090   3.633  1.5457  0.0843  0.2032
11105TIP3   OH254729   5.630   2.259   6.568 -0.2934 -0.2675  0.4615
11105TIP3    H154730   5.585   2.216   6.496  1.3946  1.1522 -1.5342
11105TIP3    H254731   5.568   2.257   6.641 -1.7978 -2.2936 -0.8304
11106TIP3   OH254732   6.170   3.022   0.196  0.2109  0.0627  0.0180
11106TIP3    H154733   6.173   3.062   0.283  1.1486 -0.3095  0.1617
11106TIP3    H254734   6.079   2.993   0.186  0.5953 -1.8832  1.7869
11107TIP3   OH254735   3.936   6.643  11.182 -0.0139 -0.4961  0.3392
11107TIP3    H154736   3.956   6.597  11.264  0.4553 -0.7485  0.0861
11107TIP3    H254737   4.022   6.669  11.148 -0.1019 -1.6311 -0.7846
11108TIP3   OH254738   2.538   3.526  14.179 -0.2961 -0.0358 -0.6043
11108TIP3    H154739   2.620   3.477  14.179 -0.6445 -0.7334  2.1806
11108TIP3    H254740   2.471   3.459  14.162 -0.3544  0.4141 -2.1838
11109TIP3   OH254741   6.131   2.431   4.580 -0.4233  0.1780  0.8274
11109TIP3    H154742   6.071   2.505   4.591 -0.3776  0.4154 -0.3510
11109TIP3    H254743   6.121   2.407   4.487  0.3908 -0.5687  0.9300
11110TIP3   OH254744   4.664   2.879  15.881  0.1360  0.0588 -0.0442
11110TIP3    H154745   4.754   2.887  15.912  0.2891 -1.1797 -0.1578
11110TIP3    H254746   4.651   2.954  15.823  1.4864 -0.4421 -1.0031
11111TIP3   OH254747   2.891   1.253   3.436 -0.2596 -0.1866  0.0268
11111TIP3    H154748   2.884   1.342   3.468 -1.5717  0.5030 -2.0589
11111TIP3    H254749   2.985   1.236   3.430 -0.0114  0.8538  0.9064
11112TIP3   OH254750   5.117   0.179   1.814 -0.1276 -0.0148  0.7393
11112TIP3    H154751   5.028   0.144   1.826 -0.2884  0.5496  1.2110
11112TIP3    H254752   5.170   0.132   1.878  0.1320 -1.1312 -0.2739
11113TIP3   OH254753   2.370   0.399  10.966  0.1774  0.1168  0.2044
11113TIP3    H154754   2.462   0.426  10.968  0.1790  0.0869  0.5464
11113TIP3    H254755   2.323   0.472  11.004 -0.0479  0.5421 -0.8654
11114TIP3   OH254756   1.432   6.059  11.531  0.0427 -0.5847 -0.0334
11114TIP3    H154757   1.369   6.009  11.583 -2.0717 -1.7133 -3.5228
11114TIP3    H254758   1.472   5.995  11.472  2.4942  0.6292  0.2451
11115TIP3   OH254759   5.467   5.124  14.852 -0.6201 -0.4056 -0.7625
11115TIP3    H154760   5.519   5.055  14.813 -0.5454 -0.6724 -0.2012
11115TIP3    H254761   5.446   5.092  14.940 -0.2722  0.4359 -0.3595
11116TIP3   OH254762   1.092   2.538   3.978 -0.1865 -0.8545  0.7396
11116TIP3    H154763   1.029   2.608   3.996 -1.0740 -1.6263  0.6243
11116TIP3    H254764   1.177   2.582   3.981 -0.7278  0.2020  0.8360
11117TIP3   OH254765   6.567   3.215  11.362  0.2397 -0.1095  0.2679
11117TIP3    H154766   6.477   3.186  11.352 -0.2214  0.9523  1.3324
11117TIP3    H254767   6.576   3.236  11.455  1.4192  0.3186  0.0700
11118TIP3   OH254768   0.037   5.952   2.337  0.6993 -0.0398 -0.1970
11118TIP3    H154769   0.043   6.046   2.353  1.1038 -0.0624 -0.2038
11118TIP3    H254770  -0.029   5.943   2.267  1.0726  0.2820 -0.5907
11119TIP3   OH254771   0.788   4.825  13.671  0.3003  0.6376 -0.1275
11119TIP3    H154772   0.871   4.791  13.705 -0.4256 -1.7024 -0.6136
11119TIP3    H254773   0.787   4.800  13.579 -0.2477  2.0674 -0.5309
11120TIP3   OH254774   6.531   1.183   4.977 -0.2578  0.0321  0.0025
11120TIP3    H154775   6.556   1.096   4.946  0.3678  0.3535 -0.4408
11120TIP3    H254776   6.579   1.243   4.919 -0.8586  0.6695  0.1527
11121TIP3   OH254777   5.556   1.739  15.284  0.2104 -0.2159  0.2637
11121TIP3    H154778   5.490   1.807  15.298  1.2123  0.8988 -0.3673
11121TIP3    H254779   5.593   1.724  15.371  1.4431  1.5763  0.0854
11122TIP3   OH254780   5.602   1.444   2.050  0.1564  0.1585  0.7564
11122TIP3    H154781   5.686   1.460   2.005  0.0272 -0.4903  0.2859
11122TIP3    H254782   5.536   1.460   1.983  0.0217 -2.7159  0.1356
11123TIP3   OH254783   6.034   1.289  15.902  0.4009  0.0535  0.0181
11123TIP3    H154784   5.996   1.205  15.877  0.2491 -0.0224  0.4986
11123TIP3    H254785   6.050   1.281  15.996  2.7355 -0.3614 -0.3866
11124TIP3   OH254786   6.318   1.203   1.216 -0.1678 -0.2617 -0.2227
11124TIP3    H154787   6.310   1.169   1.127  0.4084  1.1141 -0.8164
11124TIP3    H254788   6.244   1.262   1.226 -0.4498 -0.7115  0.3558
11125TIP3   OH254789   1.688   1.658  13.099  0.1877  0.3565  0.2569
11125TIP3    H154790   1.666   1.577  13.144  1.4099 -1.2218 -1.8907
11125TIP3    H254791   1.784   1.660  13.098  0.2022  0.2724 -2.3251
11126TIP3   OH254792   1.363   0.814  15.229 -0.2472  0.3967 -0.2780
11126TIP3    H154793   1.335   0.761  15.304  0.4196  1.1830  0.5334
11126TIP3    H254794   1.309   0.784  15.157 -1.2107 -0.0611  0.6307
11127TIP3   OH254795   5.803   5.689  11.563  0.3843  0.1616 -0.3354
11127TIP3    H154796   5.755   5.626  11.511 -0.7374  0.9834 -0.3197
11127TIP3    H254797   5.842   5.638  11.634 -0.7864 -0.4574 -0.1348
11128TIP3   OH254798   4.469   2.062  16.940  0.0203 -0.3524 -0.5600
11128TIP3    H154799   4.517   2.129  16.988  1.0017 -1.5530  0.1923
11128TIP3    H254800   4.411   2.022  17.005 -0.4226 -0.3472 -0.9514
11129TIP3   OH254801   6.200   3.761   2.581  0.1947  0.1053 -0.0948
11129TIP3    H154802   6.188   3.726   2.493 -0.9318  0.3207 -0.0341
11129TIP3    H254803   6.182   3.687   2.639  2.0677 -0.3440 -0.0595
11130TIP3   OH254804   1.912   5.579  16.938  0.1856 -0.4986  0.1113
11130TIP3    H154805   1.899   5.517  16.865 -2.5553 -0.6971  0.7272
11130TIP3    H254806   1.858   5.654  16.915  0.8795  0.2804  1.0083
11131TIP3   OH254807   1.054   0.876  11.374 -0.1099  0.0418 -0.4993
11131TIP3    H154808   1.085   0.925  11.299 -0.9405  3.0803  1.0676
11131TIP3    H254809   0.964   0.853  11.352 -0.0927  0.2324 -0.7722
11132TIP3   OH254810   3.902   1.363   3.805 -0.5241 -0.1786 -0.1287
11132TIP3    H154811   3.888   1.456   3.822  2.2223  0.1411  0.5878
11132TIP3    H254812   3.869   1.350   3.716 -0.8669  1.4899 -0.2637
11133TIP3   OH254813   0.263   3.432  15.494  0.0931  0.8481 -0.4851
11133TIP3    H154814   0.354   3.449  15.518 -0.0089  1.4982 -0.5627
11133TIP3    H254815   0.268   3.359  15.432  0.6983  1.9120 -1.7152
11134TIP3   OH254816   3.026   1.022   0.010 -0.0307 -0.1767 -0.0945
11134TIP3    H154817   3.085   0.961  -0.034  0.1153  0.6620 -1.0811
11134TIP3    H254818   2.976   1.062  -0.061 -0.5053  0.4573  0.5948
11135TIP3   OH254819   5.765   5.689  10.562  0.3011 -0.3638  0.3428
11135TIP3    H154820   5.728   5.607  10.595 -3.1496  1.2844  0.8214
11135TIP3    H254821   5.813   5.663  10.483 -0.3248 -2.9163  0.7406
11136TIP3   OH254822   4.993   4.079  15.064 -0.1400 -0.0844 -0.1619
11136TIP3    H154823   4.930   4.096  15.134 -2.3531  0.0310 -2.1342
11136TIP3    H254824   5.031   4.165  15.045 -1.1047  0.2726 -0.5295
11137TIP3   OH254825   3.036   3.922   4.137 -0.4243 -0.2159 -0.3595
11137TIP3    H154826   3.009   3.844   4.088 -1.0256  0.0379 -0.4323
11137TIP3    H254827   3.057   3.987   4.070 -2.1651  0.4502 -0.3086
11138TIP3   OH254828   5.810   5.921  11.392  0.1188 -0.5770 -0.5322
11138TIP3    H154829   5.810   5.849  11.455  1.1028 -0.0604  0.0761
11138TIP3    H254830   5.776   5.996  11.441 -1.3917 -0.7342 -1.3095
11139TIP3   OH254831   2.192   6.030   2.742 -0.5211 -0.2155 -0.0604
11139TIP3    H154832   2.238   6.057   2.663 -1.4924  0.1429 -0.5127
11139TIP3    H254833   2.257   6.040   2.812  0.1499  0.0630 -0.7159
11140TIP3   OH254834   6.039   4.535  11.266  0.3529 -0.0371  0.4773
11140TIP3    H154835   6.039   4.590  11.188 -1.0000 -1.0409 -0.2291
11140TIP3    H254836   6.114   4.476  11.254  0.2232 -0.1044 -0.0049
11141TIP3   OH254837   6.446   4.244   1.042  0.2031 -0.4045 -0.3221
11141TIP3    H154838   6.474   4.225   1.131  1.1247  0.3854 -0.4487
11141TIP3    H254839   6.527   4.249   0.991 -0.1749  1.4284 -0.7637
11142TIP3   OH254840   4.428   0.854   2.200  0.5968 -0.3018 -0.1163
11142TIP3    H154841   4.413   0.764   2.227 -1.2080  0.2739  0.8307
11142TIP3    H254842   4.496   0.887   2.259  0.5311 -0.7114  0.1822
11143TIP3   OH254843   5.934   3.565   0.166 -0.0935  0.7946  0.4127
11143TIP3    H154844   5.969   3.592   0.250  2.3714  0.2151 -0.3868
11143TIP3    H254845   5.967   3.476   0.153 -1.2917  0.4901 -0.6938
11144TIP3   OH254846   5.800   6.533  12.463  0.5614 -0.2716  0.2880
11144TIP3    H154847   5.756   6.490  12.390  0.5745 -1.1542  0.8058
11144TIP3    H254848   5.740   6.602  12.490 -0.0399 -0.8028  0.3096
11145TIP3   OH254849   3.088   5.830  16.151 -0.3813 -0.2965 -0.2143
11145TIP3    H154850   3.159   5.884  16.117 -0.8798  0.8458  0.5161
11145TIP3    H254851   3.009   5.875  16.123 -0.8242 -1.7190 -1.2608
11146TIP3   OH254852   0.181   5.991  16.295  0.3647 -0.7462 -0.6632
11146TIP3    H154853   0.182   6.087  16.298  0.2775 -0.7211 -1.2986
11146TIP3    H254854   0.169   5.971  16.202  1.1994 -1.3852 -0.6348
11147TIP3   OH254855   4.680   4.024   1.016 -0.0594  0.0882  0.1945
11147TIP3    H154856   4.764   3.996   0.980 -0.2916  0.4044 -0.5993
11147TIP3    H254857   4.649   3.949   1.066  0.8791  0.1097  0.8228
11148TIP3   OH254858   2.089   6.536   1.423 -0.0541 -0.3589  0.0790
11148TIP3    H154859   2.089   6.458   1.479  1.4799 -1.0963 -0.8941
11148TIP3    H254860   2.109   6.502   1.335 -0.1249  1.0376 -0.4854
11149TIP3   OH254861   6.268   5.129  16.283 -0.2586  0.3988  0.4630
11149TIP3    H154862   6.259   5.060  16.217  1.0555 -0.1836  0.8871
11149TIP3    H254863   6.233   5.091  16.363 -1.0082  0.7866  0.3222
11150TIP3   OH254864   1.406   0.356  13.708  0.3585  0.2083  0.2986
11150TIP3    H154865   1.370   0.345  13.796 -0.5783  2.0293  0.1622
11150TIP3    H254866   1.444   0.444  13.709  0.6797  0.0842 -1.0075
11151TIP3   OH254867   6.369   4.082  16.465 -0.4828 -0.4045 -0.2526
11151TIP3    H154868   6.374   4.171  16.432  0.7590 -0.3956 -0.0758
11151TIP3    H254869   6.447   4.039  16.430  0.1644 -0.7641  1.5431
11152TIP3   OH254870   1.397   2.440   2.373 -0.4263  0.0599 -0.7580
11152TIP3    H154871   1.355   2.385   2.307 -0.7799 -0.7223  0.0906
11152TIP3    H254872   1.325   2.490   2.411 -0.1739  0.7605 -1.1973
11153TIP3   OH254873   5.117   5.544  16.965  0.2350 -0.5331 -0.1565
11153TIP3    H154874   5.063   5.592  17.028 -0.1053  0.6298 -1.3064
11153TIP3    H254875   5.062   5.470  16.938  0.4490 -1.1368  1.0190
11154TIP3   OH254876   5.382   6.120   4.552 -0.0890 -0.0069  0.2255
11154TIP3    H154877   5.404   6.202   4.507 -0.0911 -1.3083 -2.2269
11154TIP3    H254878   5.466   6.086   4.581 -0.0954  0.8945  1.3481
11155TIP3   OH254879   1.085   6.373   2.401 -0.2998 -0.4607 -0.3675
11155TIP3    H154880   1.068   6.329   2.318  1.6749 -0.4137 -0.8276
11155TIP3    H254881   1.161   6.327   2.437  1.4558  2.1513 -0.5792
11156TIP3   OH254882   1.835   5.916   4.726 -0.4169  0.4860 -0.3166
11156TIP3    H154883   1.898   5.988   4.727  0.8617 -0.5911 -0.4150
11156TIP3    H254884   1.786   5.926   4.808  2.9150 -1.1906  2.0381
11157TIP3   OH254885   2.252   5.904  11.256 -0.0281  0.5702 -0.2769
11157TIP3    H154886   2.290   5.816  11.257 -0.1741  0.4945 -0.8920
11157TIP3    H254887   2.233   5.923  11.347  0.8564  0.3330 -0.0374
11158TIP3   OH254888   6.700   0.265   0.046 -0.5584 -0.3789 -0.7612
11158TIP3    H154889   6.754   0.218  -0.018 -0.3862 -0.2518 -0.7094
11158TIP3    H254890   6.631   0.203   0.069  0.8591 -1.4215  0.8807
11159TIP3   OH254891   5.329   4.949  14.694  0.0718 -0.3067  0.6311
11159TIP3    H154892   5.270   4.977  14.624 -0.5550 -0.6329  1.0228
11159TIP3    H254893   5.371   5.030  14.725 -1.0150  0.0792  1.1165
11160TIP3   OH254894   6.617   0.888   5.896  0.8234  0.1076  0.2167
11160TIP3    H154895   6.697   0.884   5.949  0.0175 -1.4719  1.3556
11160TIP3    H254896   6.551   0.844   5.949 -0.3665 -0.1918 -1.4773
11161TIP3   OH254897   4.692   0.666   2.619  0.0522 -0.7611  0.2740
11161TIP3    H154898   4.753   0.597   2.646 -1.7726 -2.2838  0.6134
11161TIP3    H254899   4.742   0.747   2.627  1.2560 -1.7221  2.9850
11162TIP3   OH254900   5.739   0.252  11.926  0.9412  0.2129 -1.1594
11162TIP3    H154901   5.790   0.183  11.966 -1.4433 -0.5830  0.6337
11162TIP3    H254902   5.722   0.314  11.997 -1.1440  0.0846 -1.4948
11163TIP3   OH254903   2.796   4.925  13.112  0.2910 -0.3151 -0.4722
11163TIP3    H154904   2.703   4.941  13.099  0.3534  2.9785  2.4668
11163TIP3    H254905   2.839   4.999  13.070  1.3813  0.0582  1.2462
11164TIP3   OH254906   4.229   0.678   0.828  0.3460  0.0682 -0.2012
11164TIP3    H154907   4.192   0.595   0.856 -0.3372  0.2043 -0.6820
11164TIP3    H254908   4.304   0.692   0.886 -0.3907 -0.1818  0.8259
11165TIP3   OH254909   4.251   3.193   0.025  0.4070  0.1854  0.4284
11165TIP3    H154910   4.176   3.144  -0.009  2.0650 -2.3549  0.3696
11165TIP3    H254911   4.215   3.244   0.098 -1.4311 -0.7824  0.2224
11166TIP3   OH254912   0.952   5.631   4.386  0.4094  0.3177  0.0748
11166TIP3    H154913   0.967   5.601   4.296  1.3386 -2.5682  1.1200
11166TIP3    H254914   0.941   5.725   4.378  0.1033  0.0833 -3.1157
11167TIP3   OH254915   6.631   5.024  16.113  0.1551  0.1698  0.7245
11167TIP3    H154916   6.542   5.049  16.136 -0.2651  1.4640 -2.0413
11167TIP3    H254917   6.626   5.003  16.019  2.4146 -1.3948  0.9109
11168TIP3   OH254918   6.220   4.045   5.445  0.2016 -0.3541 -0.3713
11168TIP3    H154919   6.139   4.084   5.413  1.6511  0.2364 -3.5788
11168TIP3    H254920   6.234   3.969   5.389  0.6908 -1.8022  1.6733
11169TIP3   OH254921   6.196   2.185   5.613  0.5692 -0.6047 -0.2419
11169TIP3    H154922   6.111   2.227   5.601  0.5738 -0.9494 -1.5659
11169TIP3    H254923   6.260   2.254   5.594  0.5891 -0.3386  0.7776
11170TIP3   OH254924   3.607   5.261  13.227  0.1412  0.6096  0.0598
11170TIP3    H154925   3.588   5.168  13.212 -2.2976  1.1023 -0.1845
11170TIP3    H254926   3.627   5.296  13.140  0.3932  0.4472  0.0528
11171TIP3   OH254927   0.281   0.621  17.100 -0.0585  0.2273 -0.2126
11171TIP3    H154928   0.346   0.560  17.135  0.3993 -2.0442 -4.6905
11171TIP3    H254929   0.199   0.595  17.141  1.0885  0.4179  2.2982
11172TIP3   OH254930   0.827   4.724  10.863 -0.1982  0.1444 -0.6613
11172TIP3    H154931   0.736   4.754  10.871 -0.4415 -0.5146 -0.9821
11172TIP3    H254932   0.823   4.646  10.809  0.8131  1.2998 -2.4843
11173TIP3   OH254933   1.451   0.750   4.101 -0.2602 -0.3349  0.3218
11173TIP3    H154934   1.359   0.751   4.074 -0.6476 -1.6377  1.5383
11173TIP3    H254935   1.479   0.841   4.091 -1.7599  0.1422  0.2093
11174TIP3   OH254936   5.402   2.570   2.443  0.4649  0.3632 -0.1689
11174TIP3    H154937   5.414   2.502   2.509 -1.2158 -0.8534 -1.1059
11174TIP3    H254938   5.349   2.637   2.487 -0.7530 -0.5013 -0.3057
11175TIP3   OH254939   2.050   5.474  12.010 -0.2310  0.2656 -0.3991
11175TIP3    H154940   2.042   5.480  11.915  0.5345  0.1733 -0.4775
11175TIP3    H254941   2.129   5.526  12.030 -0.0727 -0.1719  0.1198
11176TIP3   OH254942   2.794   0.313   2.222 -1.0344  0.0171  0.5176
11176TIP3    H154943   2.774   0.311   2.315  1.0568 -0.9258  0.9732
11176TIP3    H254944   2.865   0.376   2.214 -2.0016  0.9942 -0.6325
11177TIP3   OH254945   2.868   4.708   2.726 -0.5475  0.0289  0.0817
11177TIP3    H154946   2.830   4.774   2.784 -1.1224  0.6458 -0.9917
11177TIP3    H254947   2.821   4.628   2.748  0.9666 -0.3386  2.2335
11178TIP3   OH254948   6.370   5.188   5.969  0.1145 -0.2801  0.2618
11178TIP3    H154949   6.417   5.146   5.897 -1.9581 -0.9966 -0.7195
11178TIP3    H254950   6.367   5.122   6.038  0.3798 -0.2991  0.2566
11179TIP3   OH254951   5.771   0.299  16.685 -0.1228 -0.6932  0.0787
11179TIP3    H154952   5.688   0.345  16.677  0.8466  1.3236  1.1121
11179TIP3    H254953   5.752   0.226  16.744 -1.0788 -0.0182  0.6246
11180TIP3   OH254954   6.286   3.493  13.311 -0.3260  0.5943  0.3152
11180TIP3    H154955   6.353   3.448  13.260 -0.2681  1.9743 -0.8747
11180TIP3    H254956   6.290   3.453  13.397  2.1944  0.8304  0.3291
11181TIP3   OH254957   1.205   5.121  16.623 -0.1351 -0.0990 -0.1807
11181TIP3    H154958   1.199   5.051  16.558 -2.0761  1.2921 -1.5623
11181TIP3    H254959   1.299   5.130  16.641  0.5183  0.0401 -3.4243
11182TIP3   OH254960   2.873   5.525   3.811  0.5563 -0.3669  0.4400
11182TIP3    H154961   2.778   5.514   3.805  0.3273  2.0141 -0.7897
11182TIP3    H254962   2.885   5.605   3.863  1.9269 -1.1066  1.3132
11183TIP3   OH254963   6.433   1.821   4.439 -0.1663 -0.1066  0.2694
11183TIP3    H154964   6.399   1.754   4.498 -0.4740  0.4198  0.7007
11183TIP3    H254965   6.405   1.904   4.479 -0.9071  0.2415 -0.9307
11184TIP3   OH254966   0.406   6.523   0.913 -0.3050  0.0117 -0.0426
11184TIP3    H154967   0.412   6.478   0.830  0.3347  1.2970 -0.7138
11184TIP3    H254968   0.452   6.606   0.899  1.5996 -0.5815  2.1622
11185TIP3   OH254969   1.353   3.118  11.608  0.3181  0.2602 -0.5475
11185TIP3    H154970   1.272   3.162  11.584  0.7771  1.0354 -0.7141
11185TIP3    H254971   1.388   3.085  11.526  1.0763  1.5145 -0.7577
11186TIP3   OH254972   3.357   1.365  11.885 -0.4162 -0.0124  0.3161
11186TIP3    H154973   3.370   1.454  11.917 -0.6733 -0.0256  0.4598
11186TIP3    H254974   3.445   1.331  11.872 -0.2966 -0.1691  1.4690
11187TIP3   OH254975   2.380   1.281  11.155  0.2657 -0.9292  0.0535
11187TIP3    H154976   2.315   1.255  11.221  0.5400 -0.8148  0.3675
11187TIP3    H254977   2.330   1.288  11.074 -0.2744 -0.0119  0.4633
11188TIP3   OH254978   3.615   0.468  11.130 -0.0525  0.1933  0.8490
11188TIP3    H154979   3.568   0.485  11.048  1.0581  0.0977  0.1809
11188TIP3    H254980   3.651   0.553  11.155 -2.1498  0.6651  2.3763
11189TIP3   OH254981   5.170   1.944  13.861 -0.5738 -0.0085 -0.5224
11189TIP3    H154982   5.119   1.996  13.800  0.0202 -1.5060 -2.3352
11189TIP3    H254983   5.186   1.862  13.815 -0.2793 -1.2401  1.7293
11190TIP3   OH254984   0.760   2.378  16.279 -0.6324  0.3073  0.3581
11190TIP3    H154985   0.717   2.391  16.364 -0.8676  3.5343 -0.1946
11190TIP3    H254986   0.849   2.350  16.301 -1.1185 -0.2514  1.6519
11191TIP3   OH254987   4.380   5.316   2.464 -0.1885 -0.1894  0.0024
11191TIP3    H154988   4.369   5.221   2.469  1.8502 -0.4334  0.3332
11191TIP3    H254989   4.422   5.330   2.379 -1.5355  0.5338 -0.5505
11192TIP3   OH254990   4.360   5.971   2.939 -0.0128  1.2999  0.2738
11192TIP3    H154991   4.342   6.053   2.895 -0.5620  1.5326  0.9198
11192TIP3    H254992   4.274   5.929   2.948  0.2010  0.8861  0.3775
11193TIP3   OH254993   0.625   6.110  11.538  0.2540  0.3495  0.8684
11193TIP3    H154994   0.590   6.022  11.549 -3.4312  1.5843 -0.4324
11193TIP3    H254995   0.600   6.157  11.617  2.0438  0.3390  1.4780
11194TIP3   OH254996   1.073   0.321  13.417  0.5301  0.1480  0.2654
11194TIP3    H154997   1.121   0.386  13.469  0.3089  2.0794 -1.8485
11194TIP3    H254998   0.984   0.355  13.413  0.1827 -0.7911 -0.1069
11195TIP3   OH254999   3.454   4.185  12.802 -0.6164  0.7027  0.1715
11195TIP3    H155000   3.381   4.125  12.788 -0.7573  0.6820  1.0006
11195TIP3    H255001   3.418   4.271  12.779 -0.2517  0.4125 -1.5581
11196TIP3   OH255002   0.535   1.568  11.473  0.0069  0.7544  0.3916
11196TIP3    H155003   0.514   1.494  11.416  1.0926 -0.1033  1.0784
11196TIP3    H255004   0.621   1.598  11.442 -0.3682  1.6456  0.2048
11197TIP3   OH255005   2.335   4.766   4.243 -0.1734  0.1369  0.1510
11197TIP3    H155006   2.312   4.850   4.283 -0.4900  0.5715 -0.9456
11197TIP3    H255007   2.281   4.761   4.165  2.1769  0.3594 -1.5269
11198TIP3   OH255008   1.945   6.763   5.351  0.4114  0.0895 -0.0586
11198TIP3    H155009   1.913   6.684   5.308  1.2166 -1.0594  1.3976
11198TIP3    H255010   1.973   6.820   5.280 -1.0246 -0.5644 -1.1600
11199TIP3   OH255011   5.226   2.386  13.869  0.3769 -0.4335 -0.2612
11199TIP3    H155012   5.315   2.370  13.901  1.1137  0.3342 -1.8955
11199TIP3    H255013   5.193   2.456  13.925  0.8165 -0.6696  0.3036
11200TIP3   OH255014   0.764   2.876  11.541  0.2370  0.0520  0.2972
11200TIP3    H155015   0.683   2.920  11.567 -0.2644 -1.4017  1.2732
11200TIP3    H255016   0.804   2.934  11.476 -1.6725  0.6978 -0.3137
11201TIP3   OH255017   1.976   0.395   4.077  0.2788 -0.0754 -0.0124
11201TIP3    H155018   1.901   0.441   4.040  1.7201  0.3840 -2.4892
11201TIP3    H255019   1.946   0.305   4.086 -1.4984  0.6458  1.8039
11202TIP3   OH255020   0.515   5.526  12.054 -0.7467 -0.1111  0.3341
11202TIP3    H155021   0.568   5.477  11.990  0.6304 -1.1273  2.1768
11202TIP3    H255022   0.480   5.600  12.005  3.0232  1.0162 -0.8212
11203TIP3   OH255023   1.117   6.662  16.002 -0.6844  0.1155  0.2062
11203TIP3    H155024   1.180   6.626  15.940 -0.3175  2.4040 -0.7863
11203TIP3    H255025   1.034   6.662  15.955 -0.3351  2.1971 -0.4491
11204TIP3   OH255026   4.831   5.328  15.161 -0.0211 -0.0692 -0.6599
11204TIP3    H155027   4.761   5.392  15.172  0.9254  0.7204  1.0220
11204TIP3    H255028   4.800   5.270  15.092 -1.4996  1.3899 -1.2668
11205TIP3   OH255029   2.886   1.640  12.072 -0.0084  0.1623  0.2339
11205TIP3    H155030   2.808   1.621  12.124 -0.1326 -0.1134 -0.0533
11205TIP3    H255031   2.908   1.557  12.029  1.4098 -0.1796  1.5914
11206TIP3   OH255032   4.486   0.059  13.471  0.0717 -0.4227  0.3457
11206TIP3    H155033   4.494   0.154  13.466  0.3493 -0.4593  0.0833
11206TIP3    H255034   4.530   0.027  13.392 -0.5967 -0.7426  0.1000
11207TIP3   OH255035   6.004   3.842  12.932  0.2818 -0.0931 -0.0228
11207TIP3    H155036   6.060   3.869  13.005 -0.5253  0.3162  0.4568
11207TIP3    H255037   5.934   3.907  12.930 -0.3190 -0.7395 -0.4496
11208TIP3   OH255038   6.294   5.532  12.882  0.0280 -0.7908  0.3190
11208TIP3    H155039   6.260   5.571  12.962  0.8978 -0.4362  0.5083
11208TIP3    H255040   6.224   5.545  12.818 -0.0944  0.1672  0.6473
11209TIP3   OH255041   0.719   4.089   4.828  0.3778 -0.5936 -0.2664
11209TIP3    H155042   0.781   4.068   4.758  0.7730 -1.9339  0.4525
11209TIP3    H255043   0.633   4.069   4.790  0.5471 -0.7165 -0.5898
11210TIP3   OH255044   1.999   3.815   1.559  0.3447  0.1369 -0.7679
11210TIP3    H155045   1.946   3.816   1.479 -1.8800  0.4974  0.6745
11210TIP3    H255046   1.969   3.738   1.607 -0.4248  1.5519  1.0669
11211TIP3   OH255047   1.184   3.401  12.704  0.3390 -0.2048  0.1954
11211TIP3    H155048   1.100   3.446  12.689  0.4472  0.6758  2.0443
11211TIP3    H255049   1.175   3.317  12.658 -1.5559 -0.1286  0.3783
11212TIP3   OH255050   3.987   6.146   1.307  0.4110 -0.0204  0.1037
11212TIP3    H155051   4.039   6.100   1.241  0.7133  0.7198 -0.1750
11212TIP3    H255052   3.907   6.093   1.314  0.2656  0.0274 -1.0384
11213TIP3   OH255053   4.779   4.598   3.590 -0.0864 -0.4414 -0.2110
11213TIP3    H155054   4.816   4.685   3.579 -0.0724 -0.5332 -0.8840
11213TIP3    H255055   4.716   4.589   3.519  0.2568 -1.1634 -0.4280
11214TIP3   OH255056   5.636   5.271   1.921 -0.5289 -0.1097 -0.0583
11214TIP3    H155057   5.642   5.175   1.921  1.4029 -0.0242 -0.9221
11214TIP3    H255058   5.641   5.295   2.014  2.9570 -0.6995 -0.0207
11215TIP3   OH255059   4.424   3.164  16.693 -0.0544  1.2766 -0.4683
11215TIP3    H155060   4.359   3.215  16.741  1.9633  0.5209  3.2572
11215TIP3    H255061   4.498   3.223  16.682  0.5630  0.5838 -0.1202
11216TIP3   OH255062   3.039   3.072   1.859 -0.3104 -0.3342 -0.0462
11216TIP3    H155063   2.976   3.131   1.817 -0.5255 -0.6341 -0.1429
11216TIP3    H255064   3.122   3.092   1.817 -0.5439 -0.7044 -0.6855
11217TIP3   OH255065   3.295   6.686  14.091  0.5614 -0.5600  0.4883
11217TIP3    H155066   3.355   6.703  14.018  1.0079 -1.8360  0.5370
11217TIP3    H255067   3.218   6.646  14.050 -0.8930  2.3694  0.2535
11218TIP3   OH255068   3.878   1.703  15.648  0.7361  0.1132 -0.5576
11218TIP3    H155069   3.958   1.687  15.698  0.3002  1.5661  0.6390
11218TIP3    H255070   3.890   1.653  15.567  2.5314 -0.2729 -0.0747
11219TIP3   OH255071   2.970   3.789   2.324  0.1781 -0.2112 -0.0835
11219TIP3    H155072   2.987   3.862   2.265  2.0716 -1.8876 -1.7045
11219TIP3    H255073   3.023   3.808   2.401  0.5814  0.1946 -0.4573
11220TIP3   OH255074   3.211   0.158   0.635 -0.0293  0.3227 -0.6897
11220TIP3    H155075   3.184   0.128   0.722  2.6141 -1.2236 -0.3214
11220TIP3    H255076   3.204   0.080   0.580  1.3478  0.4605 -1.0874
11221TIP3   OH255077   6.347   4.285  13.698 -0.0152  0.0767 -0.3207
11221TIP3    H155078   6.418   4.333  13.739 -0.9518  0.3550  1.0094
11221TIP3    H255079   6.347   4.314  13.607  2.8014 -1.3921 -0.8470
11222TIP3   OH255080   1.745   1.217   6.071 -0.2498 -0.0796 -0.3667
11222TIP3    H155081   1.716   1.126   6.073  1.9459 -0.7969  0.0931
11222TIP3    H255082   1.840   1.212   6.061 -0.1541  2.1755 -0.9488
11223TIP3   OH255083   0.020   6.350  17.018 -0.4097 -0.4112  0.0245
11223TIP3    H155084  -0.065   6.356  17.061 -0.1611 -1.3225  0.6445
11223TIP3    H255085   0.021   6.424  16.957 -1.4555 -0.1242  0.3458
11224TIP3   OH255086   0.960   2.023   1.032  0.7176  0.5430  0.2076
11224TIP3    H155087   1.037   2.062   0.990  1.5630 -0.5055  0.7690
11224TIP3    H255088   0.966   2.052   1.123  0.4864  0.4128  0.2629
11225TIP3   OH255089   2.828   6.199   5.846 -0.1003 -0.1241  0.0095
11225TIP3    H155090   2.808   6.263   5.915 -0.0956 -1.4676  1.2974
11225TIP3    H255091   2.895   6.241   5.793 -0.8295  1.3457  0.2257
11226TIP3   OH255092   6.122   2.429   3.991 -0.2647 -0.5997  0.1919
11226TIP3    H155093   6.057   2.488   4.030  1.3171  0.8593  0.6548
11226TIP3    H255094   6.147   2.471   3.909 -0.2001 -1.3708 -0.1915
11227TIP3   OH255095   6.568   0.709   5.033  0.3173 -0.4054  0.4426
11227TIP3    H155096   6.638   0.763   4.997 -0.6716 -0.2401 -1.2735
11227TIP3    H255097   6.505   0.772   5.068  0.2161 -0.5142  0.4555
11228TIP3   OH255098   1.676   2.700   1.517 -0.3413 -0.2146 -0.7465
11228TIP3    H155099   1.729   2.674   1.442 -2.4640 -1.7686 -1.7637
11228TIP3    H255100   1.689   2.631   1.581 -0.2067 -0.0086 -0.5552
11229TIP3   OH255101   5.567   5.019   1.317 -0.3067  0.4053 -0.3045
11229TIP3    H155102   5.474   5.026   1.340  0.1078 -0.4121  1.7284
11229TIP3    H255103   5.576   4.933   1.277 -0.0090 -0.5196  1.6986
11230TIP3   OH255104   1.330   1.247   1.884 -0.3890  0.7072 -0.3108
11230TIP3    H155105   1.304   1.161   1.918  1.4860 -0.4717 -1.7595
11230TIP3    H255106   1.250   1.283   1.846 -0.9236 -0.9701 -0.8375
11231TIP3   OH255107   5.101   4.605   5.372 -0.5315 -0.1195  0.2427
11231TIP3    H155108   5.059   4.566   5.295  0.1384 -0.0411 -0.1560
11231TIP3    H255109   5.065   4.555   5.445 -2.2983  0.7561  0.0253
11232TIP3   OH255110   4.084   5.588   5.930  0.2656 -0.0510 -0.3447
11232TIP3    H155111   4.053   5.559   5.844 -1.6190  3.2418 -0.8620
11232TIP3    H255112   4.133   5.668   5.911 -1.5752  1.6219  1.8074
11233TIP3   OH255113   4.970   6.718  14.283 -0.7889  0.8980  0.1450
11233TIP3    H155114   4.965   6.626  14.308  1.0423  1.3854  2.4004
11233TIP3    H255115   4.878   6.745  14.275 -1.3529 -0.7966  0.6091
11234TIP3   OH255116   2.855   0.315   4.929 -0.3780 -0.0657 -0.3729
11234TIP3    H155117   2.769   0.297   4.892  0.4421 -0.3508 -2.2027
11234TIP3    H255118   2.841   0.314   5.024 -2.1462 -1.2585 -0.6173
11235TIP3   OH255119   4.533   2.988   1.420 -0.0745  0.3179 -0.2861
11235TIP3    H155120   4.613   2.983   1.367 -0.3885  2.9536 -1.0971
11235TIP3    H255121   4.559   3.038   1.497 -0.8901  1.0686 -0.4912
11236TIP3   OH255122   2.229   2.808   5.551 -0.1024  0.2327 -0.1590
11236TIP3    H155123   2.217   2.746   5.623 -2.9616 -0.7280 -1.3677
11236TIP3    H255124   2.290   2.764   5.491  1.0821  0.3744  0.9416
11237TIP3   OH255125   0.810   1.778  11.145 -0.2906 -0.1259  0.1454
11237TIP3    H155126   0.784   1.807  11.057 -2.5262 -1.4719  0.3288
11237TIP3    H255127   0.883   1.717  11.129 -0.7353 -0.4237 -0.7756
11238TIP3   OH255128   2.405   0.135  11.850 -0.3786  0.2451  0.0891
11238TIP3    H155129   2.358   0.142  11.766  0.1416  0.4735 -0.1884
11238TIP3    H255130   2.343   0.093  11.909 -1.2748  1.3912 -0.0087
11239TIP3   OH255131   2.743   1.302  14.538  0.7092 -0.8592  0.2571
11239TIP3    H155132   2.771   1.212  14.556 -2.4490 -1.6360  1.6304
11239TIP3    H255133   2.708   1.299  14.449  1.3878 -0.7901 -0.0120
11240TIP3   OH255134   1.114   5.712  14.993  0.1459  0.2876  0.1562
11240TIP3    H155135   1.128   5.665  15.075 -0.1613 -0.8678 -0.4450
11240TIP3    H255136   1.199   5.714  14.951  0.7424  2.5816  1.3660
11241TIP3   OH255137   5.849   2.192  14.307 -0.4728 -0.4951 -0.2964
11241TIP3    H155138   5.847   2.107  14.351  0.2665 -1.0320 -1.2931
11241TIP3    H255139   5.914   2.182  14.238  0.9140  1.4306  0.6990
11242TIP3   OH255140   0.785   5.199  10.999 -0.6882 -0.8844  0.1974
11242TIP3    H155141   0.824   5.113  10.981  1.1801  0.2014 -1.2376
11242TIP3    H255142   0.772   5.237  10.912  1.4289  1.5070  0.8627
11243TIP3   OH255143   4.178   5.565   3.244  0.4300 -0.4888 -0.2733
11243TIP3    H155144   4.209   5.517   3.321 -1.4474  0.4833  1.1119
11243TIP3    H255145   4.091   5.596   3.268  0.2703  0.7877 -2.3869
11244TIP3   OH255146   2.732   4.667  16.888  0.3389  0.4273 -0.2340
11244TIP3    H155147   2.745   4.572  16.887 -1.7904  0.1122  0.6420
11244TIP3    H255148   2.801   4.701  16.831 -0.4201 -1.8148 -2.5483
11245TIP3   OH255149   2.703   6.434  14.227 -0.2803 -0.7948 -0.5695
11245TIP3    H155150   2.765   6.468  14.163  0.1478 -0.8240 -0.1678
11245TIP3    H255151   2.725   6.341  14.236 -0.6668 -0.9083 -0.7569
11246TIP3   OH255152   4.472   3.418  12.078  0.6212  0.0909 -0.1535
11246TIP3    H155153   4.434   3.462  12.154  0.0222  0.3770 -0.6124
11246TIP3    H255154   4.527   3.349  12.115  0.4746  0.3414  0.5414
11247TIP3   OH255155   1.636   4.305   0.656  0.6743  0.7413  0.0236
11247TIP3    H155156   1.621   4.211   0.659 -0.1799  0.9075  1.3412
11247TIP3    H255157   1.569   4.338   0.595  0.4395  0.5903  0.1975
11248TIP3   OH255158   1.147   2.055   4.189  0.4596 -0.2646  0.0049
11248TIP3    H155159   1.134   2.005   4.108 -1.3781  0.0222  0.1190
11248TIP3    H255160   1.068   2.041   4.240  1.2055  0.3339  1.3561
11249TIP3   OH255161   6.692   5.844   4.630  0.0172  0.1503 -0.1938
11249TIP3    H155162   6.728   5.887   4.708  0.2543 -0.7544  0.2083
11249TIP3    H255163   6.698   5.910   4.561 -0.4706  1.0670  0.6236
11250TIP3   OH255164   3.031   2.076   1.037  0.4532 -0.4482 -0.0505
11250TIP3    H155165   3.084   2.048   1.112  1.3398  0.0447 -0.4846
11250TIP3    H255166   3.095   2.114   0.976  0.2805 -3.9136 -2.5595
11251TIP3   OH255167   4.152   2.576  11.752 -0.5471 -0.2019  0.1835
11251TIP3    H155168   4.226   2.612  11.704 -0.7226  0.1403  0.1673
11251TIP3    H255169   4.147   2.627  11.833 -0.2058 -0.8286  0.6022
11252TIP3   OH255170   0.756   1.003   2.911  0.4952  0.2870 -0.4763
11252TIP3    H155171   0.731   0.955   2.990  0.1785 -1.8118 -1.7940
11252TIP3    H255172   0.672   1.025   2.869  0.6472  1.7983 -0.0170
11253TIP3   OH255173   6.759   0.974  10.695 -0.2566  0.3143  0.3885
11253TIP3    H155174   6.723   0.928  10.620 -1.4585  2.8343 -0.6453
11253TIP3    H255175   6.736   0.919  10.770 -0.7935 -1.2275 -0.8807
11254TIP3   OH255176   5.473   0.796  12.878  0.6345  0.3018 -0.5422
11254TIP3    H155177   5.555   0.774  12.922  0.7782 -0.9138 -1.3984
11254TIP3    H255178   5.423   0.714  12.879 -0.6401  1.0654  0.1000
11255TIP3   OH255179   3.759   1.101   4.585  0.5438 -0.1775 -0.0745
11255TIP3    H155180   3.749   1.187   4.543 -1.2218  1.2756  3.0848
11255TIP3    H255181   3.811   1.119   4.663  0.8462 -2.1479  0.1886
11256TIP3   OH255182   2.381   4.832  14.316 -0.1483 -0.8086 -0.6017
11256TIP3    H155183   2.397   4.805  14.406 -0.3062 -2.5891 -1.0981
11256TIP3    H255184   2.362   4.926  14.323  0.3019 -0.8240  1.1555
11257TIP3   OH255185   2.700   2.594   4.839  0.1606 -0.0061 -0.3317
11257TIP3    H155186   2.692   2.610   4.933  1.5204 -0.2220 -0.1661
11257TIP3    H255187   2.647   2.662   4.798 -0.4429  0.0781  0.5980
11258TIP3   OH255188   6.707   0.379   2.671  0.2918  0.6267  0.7816
11258TIP3    H155189   6.779   0.327   2.635 -0.3869  0.2255 -0.0169
11258TIP3    H255190   6.706   0.357   2.765  1.3346  0.7990  0.8396
11259TIP3   OH255191   4.905   3.077   1.149 -0.2189 -0.5599  0.0040
11259TIP3    H155192   4.966   3.041   1.214 -0.3146  1.1048  1.0306
11259TIP3    H255193   4.829   3.019   1.153 -0.1754 -0.5483  1.3042
11260TIP3   OH255194   5.538   0.634   5.979 -0.4996 -0.1184  0.1758
11260TIP3    H155195   5.454   0.594   6.000 -1.1933  1.3184  0.2103
11260TIP3    H255196   5.518   0.697   5.910  0.1338  1.8656  1.7513
11261TIP3   OH255197   0.855   0.529   3.369 -0.4238 -0.1533  0.5482
11261TIP3    H155198   0.824   0.445   3.336  0.3821 -0.1818 -0.1739
11261TIP3    H255199   0.911   0.506   3.444 -1.6050 -0.1420  1.4379
11262TIP3   OH255200   0.266   4.980  14.244 -0.3378 -0.0788 -0.0360
11262TIP3    H155201   0.282   4.921  14.170  0.4507 -1.7567  1.4322
11262TIP3    H255202   0.220   5.055  14.206  1.7724  0.0130 -2.5734
11263TIP3   OH255203   1.137   6.781  16.797 -0.1091  0.0972 -0.7411
11263TIP3    H155204   1.209   6.836  16.764  0.7414 -1.1037 -0.9436
11263TIP3    H255205   1.169   6.747  16.880 -0.5453 -0.2605 -0.7185
11264TIP3   OH255206   1.822   5.208   2.931  0.1765  0.0070 -0.7146
11264TIP3    H155207   1.885   5.246   2.993 -0.5386  2.3906 -1.3844
11264TIP3    H255208   1.869   5.208   2.847 -0.1310  0.2274 -0.8866
11265TIP3   OH255209   4.479   6.281  16.255 -0.1084 -0.0651  0.2563
11265TIP3    H155210   4.436   6.196  16.240  0.1747 -0.2497  0.4860
11265TIP3    H255211   4.414   6.345  16.226 -0.6189 -0.3386  0.7735
11266TIP3   OH255212   3.226   5.233  14.457  0.2514  0.1798  0.0469
11266TIP3    H155213   3.203   5.313  14.411  0.6895  0.6981  0.7230
11266TIP3    H255214   3.197   5.248  14.548 -2.8836 -1.7921 -0.5545
11267TIP3   OH255215   2.969   3.501   3.547 -0.1038  0.5325 -0.6233
11267TIP3    H155216   2.994   3.591   3.524  1.0749  0.3258 -0.2275
11267TIP3    H255217   2.970   3.500   3.643  2.9193 -0.6719 -0.6081
11268TIP3   OH255218   0.349   1.578  13.411 -0.7268  0.1396  0.2470
11268TIP3    H155219   0.287   1.618  13.472  0.0315 -0.4852  1.4396
11268TIP3    H255220   0.303   1.502  13.377 -2.3234  2.1567 -2.3125
11269TIP3   OH255221   4.567   0.117  12.824 -0.1477 -0.1726 -0.2840
11269TIP3    H155222   4.474   0.099  12.838 -0.5154  0.5967 -1.6379
11269TIP3    H255223   4.612   0.062  12.888 -1.5043 -1.0576 -0.0749
11270TIP3   OH255224   4.366   3.351   5.481 -0.5773 -0.2154  0.0513
11270TIP3    H155225   4.325   3.425   5.526 -0.4899 -0.2134  0.1295
11270TIP3    H255226   4.293   3.297   5.451 -0.7276  1.0968 -2.0628
11271TIP3   OH255227   1.298   5.725   5.793  0.4152 -0.2337  0.0197
11271TIP3    H155228   1.225   5.783   5.770  2.0138  1.9472  0.2393
11271TIP3    H255229   1.287   5.708   5.886  2.1486  3.0702  0.8959
11272TIP3   OH255230   1.774   0.447   3.274  0.2254 -0.4560 -0.2504
11272TIP3    H155231   1.774   0.523   3.332  0.1387 -0.0666 -0.7620
11272TIP3    H255232   1.862   0.445   3.237 -0.3507  0.5377 -1.7271
11273TIP3   OH255233   0.614   4.488   2.099  0.3675  0.7733 -0.0217
11273TIP3    H155234   0.574   4.401   2.094 -0.9189  1.2783  1.1479
11273TIP3    H255235   0.708   4.472   2.088  0.2321 -0.8538  1.1017
11274TIP3   OH255236   1.727   3.970  14.681 -0.2417  0.6089  0.4004
11274TIP3    H155237   1.753   3.949  14.771 -2.1572  0.3962  0.9110
11274TIP3    H255238   1.728   4.066  14.678  1.0891  0.6086  0.2524
11275TIP3   OH255239   4.824   3.242  14.127 -0.3883 -0.2070 -0.1141
11275TIP3    H155240   4.810   3.191  14.207 -0.0352  1.0099  0.7412
11275TIP3    H255241   4.765   3.203  14.063 -1.1536 -0.7810  0.9258
11276TIP3   OH255242   4.766   0.422  15.158 -0.8067  0.2135  0.2028
11276TIP3    H155243   4.749   0.423  15.252  0.3744  1.8430  0.4266
11276TIP3    H255244   4.823   0.346  15.144  0.1617  0.7726  1.0325
11277TIP3   OH255245   2.666   3.819   4.146  0.1968 -0.3563  0.0326
11277TIP3    H155246   2.595   3.822   4.210  0.3646  0.8025  0.1793
11277TIP3    H255247   2.651   3.895   4.090  0.2307 -1.1814 -1.1227
11278TIP3   OH255248   4.669   2.213  13.600  0.0701  0.0956  0.3135
11278TIP3    H155249   4.742   2.231  13.541  0.2631 -0.8976  0.2506
11278TIP3    H255250   4.630   2.132  13.568  0.6175 -0.8512  1.9529
11279TIP3   OH255251   6.615   1.748  12.406  0.0916  0.0076 -0.2935
11279TIP3    H155252   6.532   1.700  12.404  1.1360 -1.9126  1.0122
11279TIP3    H255253   6.621   1.781  12.496  0.0047  1.5624 -0.8267
11280TIP3   OH255254   6.592   3.292  13.649 -0.0519 -0.1626 -0.0304
11280TIP3    H155255   6.641   3.281  13.567 -0.8308  0.3359 -0.5796
11280TIP3    H255256   6.518   3.231  13.640  0.7231 -1.2461  0.9893
11281TIP3   OH255257   5.699   5.088   4.016 -0.4644  0.5403  0.4192
11281TIP3    H155258   5.659   5.004   4.038  0.7211 -0.6422 -1.8367
11281TIP3    H255259   5.634   5.153   4.045 -1.8178 -1.1515  1.3000
11282TIP3   OH255260   0.303   1.846  16.664 -0.5423  0.2105 -0.5534
11282TIP3    H155261   0.324   1.938  16.679 -2.4384  0.4022  1.0650
11282TIP3    H255262   0.286   1.810  16.751 -0.7256 -1.4581 -1.2475
11283TIP3   OH255263   3.341   2.599   2.640 -0.0417 -0.6953 -0.8541
11283TIP3    H155264   3.257   2.633   2.609  0.0855  0.9166  0.4447
11283TIP3    H255265   3.320   2.554   2.722  0.3132 -0.5854 -0.6998
11284TIP3   OH255266   2.538   5.297   3.601  0.0719  0.3248 -0.0933
11284TIP3    H155267   2.630   5.286   3.578  0.2867  0.5062  0.6539
11284TIP3    H255268   2.538   5.367   3.666 -0.3828 -0.8341  1.1972
11285TIP3   OH255269   3.481   0.334  16.761 -0.0630 -0.2818  0.0189
11285TIP3    H155270   3.550   0.388  16.800 -2.5200  2.8140  0.2963
11285TIP3    H255271   3.501   0.332  16.668  0.6163  0.2224  0.1479
11286TIP3   OH255272   6.243   5.835  14.857  0.6104  0.4451  0.4710
11286TIP3    H155273   6.194   5.772  14.804  1.1198 -0.0961  0.6444
11286TIP3    H255274   6.293   5.886  14.793 -1.2294  1.9571  0.1560
11287TIP3   OH255275   6.501   2.307  15.969  0.2423 -0.0164  0.0628
11287TIP3    H155276   6.460   2.282  15.886  0.4190 -0.4029  0.0911
11287TIP3    H255277   6.450   2.382  15.999  0.6372  0.5878 -0.7634
11288TIP3   OH255278   4.934   4.767   2.790  0.0940 -0.4110 -0.0914
11288TIP3    H155279   4.838   4.771   2.788  0.1132  2.5483  2.0214
11288TIP3    H255280   4.960   4.762   2.698 -2.0924 -2.3157 -0.6513
11289TIP3   OH255281   4.436   2.790   4.046  0.4156 -0.1282  0.2703
11289TIP3    H155282   4.431   2.759   4.137 -0.6338 -0.2703  0.1709
11289TIP3    H255283   4.529   2.790   4.026  0.5752 -1.3154  0.9393
11290TIP3   OH255284   5.988   6.736   0.144  0.1484  0.4726 -0.2302
11290TIP3    H155285   5.899   6.737   0.109 -0.0030 -1.2198  0.0328
11290TIP3    H255286   6.042   6.778   0.077 -1.0411  2.7379  0.1989
11291TIP3   OH255287   2.411   5.195   2.749  0.0103  0.5369  0.3417
11291TIP3    H155288   2.459   5.263   2.796  0.8149  0.2608 -0.0633
11291TIP3    H255289   2.344   5.242   2.701 -0.8037  0.8232  1.7421
11292TIP3   OH255290   1.841   0.653   1.172 -0.4012  0.0426  0.1084
11292TIP3    H155291   1.852   0.743   1.202  0.5132 -0.5549  1.6223
11292TIP3    H255292   1.855   0.658   1.077 -0.4988  1.5004  0.1486
11293TIP3   OH255293   1.216   3.853  16.512  0.3718  0.1648  0.3983
11293TIP3    H155294   1.186   3.762  16.505  1.1193 -0.0283 -0.4402
11293TIP3    H255295   1.135   3.904  16.510  0.0031 -0.4266 -0.2952
11294TIP3   OH255296   0.101   4.463  12.369  0.2902  0.6142  0.0008
11294TIP3    H155297   0.025   4.412  12.398 -0.4551  2.1380  0.7955
11294TIP3    H255298   0.066   4.526  12.306  0.4510  2.8150  2.0120
11295TIP3   OH255299   5.509   4.807   2.460 -0.3501  0.5014 -0.7498
11295TIP3    H155300   5.492   4.792   2.367  0.0079 -0.4612 -0.6640
11295TIP3    H255301   5.532   4.721   2.494 -1.7765  0.6115  0.5179
11296TIP3   OH255302   2.257   3.209  10.747  0.1247 -0.2256 -0.3972
11296TIP3    H155303   2.271   3.295  10.785  1.8459 -0.6549 -0.0152
11296TIP3    H255304   2.263   3.223  10.652  0.4742  0.0655 -0.3308
11297TIP3   OH255305   4.064   3.078   0.515  0.2553  0.1475 -0.5005
11297TIP3    H155306   4.004   3.133   0.464  0.5457  0.2149 -0.7659
11297TIP3    H255307   4.053   3.108   0.605 -0.4903 -0.1855 -0.4763
11298TIP3   OH255308   5.310   5.496   3.101  0.3131  0.2799 -0.4668
11298TIP3    H155309   5.326   5.536   3.015  1.6068 -1.1369 -0.9175
11298TIP3    H255310   5.397   5.475   3.133 -0.2342 -0.1471  0.7516
11299TIP3   OH255311   4.396   2.706  14.591  0.0703  0.4790 -0.0719
11299TIP3    H155312   4.434   2.793  14.581  2.4411 -0.5305 -0.0423
11299TIP3    H255313   4.444   2.651  14.529 -1.8959 -0.6703 -0.6164
11300TIP3   OH255314   3.801   1.025   3.920 -0.1793  0.3180  0.0278
11300TIP3    H155315   3.854   0.949   3.944  1.6420  0.9542 -1.8435
11300TIP3    H255316   3.831   1.048   3.832 -2.0202  2.0727 -0.1679
11301TIP3   OH255317   3.536   0.846  14.344  0.0873  0.5334  0.5355
11301TIP3    H155318   3.535   0.849  14.440  0.5927  2.2230  0.4924
11301TIP3    H255319   3.444   0.845  14.319 -0.0657  2.2058  0.9831
11302TIP3   OH255320   3.396   2.906   1.259  0.1899 -0.2933  0.2695
11302TIP3    H155321   3.432   2.866   1.180 -1.8554 -0.9833 -0.3382
11302TIP3    H255322   3.319   2.955   1.229  0.6522  1.2551  1.5178
11303TIP3   OH255323   6.755   1.519  10.467 -0.4588  0.2244  0.4181
11303TIP3    H155324   6.759   1.424  10.465  0.2485  0.2838 -1.8286
11303TIP3    H255325   6.662   1.540  10.459 -0.3654 -0.2376 -2.0777
11304TIP3   OH255326   6.346   5.489  17.233 -0.6907  0.3123  0.3320
11304TIP3    H155327   6.267   5.462  17.187 -0.3742 -1.0965  0.5912
11304TIP3    H255328   6.346   5.584  17.227 -2.0874  0.2889 -0.1918
11305TIP3   OH255329   0.333   0.542   1.722  0.1834 -0.3017 -0.5104
11305TIP3    H155330   0.404   0.478   1.729  0.0720 -0.2212  1.7336
11305TIP3    H255331   0.378   0.627   1.723  0.1757 -0.2930 -0.9703
11306TIP3   OH255332   0.890   3.367  10.522  0.6957  0.0100  0.3110
11306TIP3    H155333   0.980   3.353  10.552 -0.1999 -0.7224  2.7884
11306TIP3    H255334   0.884   3.461  10.508  1.8218  0.0719  0.1357
11307TIP3   OH255335   5.596   5.406   3.629  0.4879 -0.0405  0.4686
11307TIP3    H155336   5.640   5.378   3.549 -0.0723 -0.2214  0.2180
11307TIP3    H255337   5.613   5.335   3.691 -0.8661 -0.9411 -0.1445
11308TIP3   OH255338   1.930   0.145   3.138 -0.1655  0.2947  0.3416
11308TIP3    H155339   1.881   0.226   3.121 -0.8919 -0.3346 -0.5685
11308TIP3    H255340   2.009   0.154   3.084 -0.2713  0.3705  0.1985
11309TIP3   OH255341   4.476   3.405   0.580 -0.4314 -0.3756  0.1467
11309TIP3    H155342   4.398   3.421   0.526 -0.1469 -0.9086 -0.4318
11309TIP3    H255343   4.441   3.370   0.662 -0.9441  1.4883  0.7553
11310TIP3   OH255344   1.871   4.816  11.945  0.3687  0.2086  0.7361
11310TIP3    H155345   1.845   4.733  11.906 -0.7473 -0.5317  2.9418
11310TIP3    H255346   1.819   4.882  11.900  0.0463 -0.4695  0.1199
11311TIP3   OH255347   4.564   6.131   3.074 -0.7880  0.0821  0.3436
11311TIP3    H155348   4.636   6.147   3.012  0.5699 -1.8847  1.3646
11311TIP3    H255349   4.492   6.098   3.019  0.2395 -1.1777 -0.2734
11312TIP3   OH255350   4.486   0.634  16.224 -0.0036 -0.6481  0.7783
11312TIP3    H155351   4.521   0.563  16.278 -1.1910 -0.7885  1.4004
11312TIP3    H255352   4.422   0.591  16.167  0.5241 -0.3449 -0.0351
11313TIP3   OH255353   1.041   4.832  13.835  0.4324  0.4479  0.0651
11313TIP3    H155354   1.104   4.760  13.840  0.3711  0.2938 -1.3845
11313TIP3    H255355   1.078   4.900  13.891  0.0142 -1.0504  2.2335
11314TIP3   OH255356   6.332   4.147   0.527 -0.2288 -0.0477  0.2560
11314TIP3    H155357   6.344   4.153   0.622  2.3654  1.3687 -0.1008
11314TIP3    H255358   6.367   4.061   0.504 -0.9048 -0.4127  0.5856
11315TIP3   OH255359   1.006   0.585   1.691 -0.0289 -0.5368  0.0285
11315TIP3    H155360   1.065   0.656   1.717 -2.7872  1.9340 -0.1328
11315TIP3    H255361   1.033   0.510   1.744  1.3967  1.3520  2.0496
11316TIP3   OH255362   2.912   6.674  14.670 -0.6366  0.1549 -0.2668
11316TIP3    H155363   3.001   6.680  14.635 -0.2833  0.3335  0.6501
11316TIP3    H255364   2.891   6.764  14.696 -1.9030  0.5449 -2.4239
11317TIP3   OH255365   4.035   4.292  11.044  0.2764 -0.0723 -0.2742
11317TIP3    H155366   3.952   4.273  11.002  0.1162 -0.8434  0.3743
11317TIP3    H255367   4.023   4.265  11.135  0.6187  1.5645  0.2778
11318TIP3   OH255368   3.080   4.471   3.141  0.2530  0.1572  0.3538
11318TIP3    H155369   3.162   4.504   3.104 -0.1684  0.0113 -0.7450
11318TIP3    H255370   3.025   4.548   3.152  0.5456  0.2577  1.1067
11319TIP3   OH255371   3.627   4.432  15.191  0.4105 -0.3269 -0.3892
11319TIP3    H155372   3.632   4.521  15.224  1.2494  0.6804 -3.1194
11319TIP3    H255373   3.534   4.408  15.198  0.1638  0.8032  0.2081
11320TIP3   OH255374   6.461   5.965  11.302  0.1021 -0.4506  0.3918
11320TIP3    H155375   6.421   5.934  11.383 -1.0825 -0.9276 -0.3742
11320TIP3    H255376   6.555   5.951  11.315  0.0402  0.5713  2.1488
11321TIP3   OH255377   3.906   2.381   1.813  0.5542 -0.4392 -0.3913
11321TIP3    H155378   3.868   2.296   1.790 -0.2738 -0.3560  0.6313
11321TIP3    H255379   3.831   2.433   1.843  1.1704  0.4099 -0.3266
11322TIP3   OH255380   3.952   5.538   3.498  0.1319  0.3753  0.3229
11322TIP3    H155381   3.931   5.609   3.559 -4.3754  0.1029 -0.7728
11322TIP3    H255382   3.898   5.555   3.422  1.3273 -2.5482 -1.2476
11323TIP3   OH255383   6.316   5.410   4.957  0.0226 -0.0059 -0.0147
11323TIP3    H155384   6.237   5.429   4.907 -1.1266  0.2253  1.8529
11323TIP3    H255385   6.349   5.495   4.984 -0.4766 -0.2198  1.2950
11324TIP3   OH255386   6.215   1.734   1.818  0.1216  0.0269  0.0241
11324TIP3    H155387   6.266   1.778   1.750 -0.3952 -1.0415 -1.0668
11324TIP3    H255388   6.158   1.803   1.852 -0.0856  0.4354 -1.0994
11325TIP3   OH255389   5.697   1.114  12.069 -0.3613 -0.7095 -0.5673
11325TIP3    H155390   5.720   1.135  11.978  2.3889 -0.3120  0.1847
11325TIP3    H255391   5.741   1.031  12.086 -0.8104 -0.7433  0.4399
11326TIP3   OH255392   4.760   2.338   3.384 -0.0288  0.5333 -0.0066
11326TIP3    H155393   4.845   2.365   3.418  0.1716 -0.1695  0.0689
11326TIP3    H255394   4.766   2.353   3.289 -0.2070  1.4856  0.1286
11327TIP3   OH255395   1.068   4.708   3.803 -0.0082  0.2863 -0.0399
11327TIP3    H155396   1.099   4.742   3.887 -1.2940  0.3799  0.4000
11327TIP3    H255397   1.143   4.660   3.768  0.3665 -0.1971  1.4019
11328TIP3   OH255398   6.756   3.463   5.691  0.2432  0.7113  0.0490
11328TIP3    H155399   6.711   3.388   5.729  1.1357 -0.6143 -1.4454
11328TIP3    H255400   6.811   3.497   5.762 -1.5937  1.1548  1.3016
11329TIP3   OH255401   6.375   4.125  12.546  0.0013 -0.2912  0.1545
11329TIP3    H155402   6.346   4.067  12.616 -1.9748  1.2473  0.6585
11329TIP3    H255403   6.382   4.069  12.469 -1.9225 -1.1993  0.6152
11330TIP3   OH255404   0.647   2.978  14.602 -0.2624 -0.3306  0.5422
11330TIP3    H155405   0.707   3.007  14.671  0.3526  0.5618 -0.3445
11330TIP3    H255406   0.701   2.922  14.546 -0.7606 -1.0593  0.7867
11331TIP3   OH255407   6.559   4.051   0.838  0.4573 -0.0386 -0.6171
11331TIP3    H155408   6.634   4.099   0.804  0.1472  0.1217 -1.0865
11331TIP3    H255409   6.486   4.080   0.783  0.1700 -0.6511 -0.5599
11332TIP3   OH255410   3.638   1.348   5.539  0.1920 -0.9055 -0.7230
11332TIP3    H155411   3.652   1.334   5.446 -1.2094 -0.4718 -1.0081
11332TIP3    H255412   3.616   1.261   5.573 -1.3101 -0.7361 -1.1868
11333TIP3   OH255413   1.463   5.093  14.997  0.0825 -1.0622  0.3421
11333TIP3    H155414   1.482   5.037  14.921 -1.4745 -0.0981 -0.7852
11333TIP3    H255415   1.545   5.096  15.046  0.8724 -2.3735 -0.8661
11334TIP3   OH255416   1.955   6.517  15.175 -0.3997  0.1954 -0.2888
11334TIP3    H155417   2.021   6.510  15.106  0.8148 -1.5100  0.9925
11334TIP3    H255418   1.990   6.582  15.236 -0.1343 -0.3668  0.1560
11335TIP3   OH255419   0.135   1.279  14.284  0.2360  0.6349 -0.5090
11335TIP3    H155420   0.119   1.212  14.218 -0.7045  0.5874 -0.2426
11335TIP3    H255421   0.194   1.237  14.346  1.4636  0.8248 -1.5366
11336TIP3   OH255422   3.335   5.776  11.821  0.1331  0.1065 -0.4269
11336TIP3    H155423   3.356   5.835  11.749 -0.5945  0.6085 -0.2370
11336TIP3    H255424   3.240   5.783  11.830  0.0973 -0.7288 -0.0841
11337TIP3   OH255425   2.883   1.215  12.575 -0.3572  0.4532 -0.4853
11337TIP3    H155426   2.974   1.219  12.545 -0.9422  1.1008 -2.2292
11337TIP3    H255427   2.866   1.122  12.588  0.3427  0.2645 -0.8871
11338TIP3   OH255428   5.010   2.003  16.851  0.2634  0.6473  0.4377
11338TIP3    H155429   5.076   2.035  16.912  0.4176  1.4029 -0.1119
11338TIP3    H255430   5.024   2.054  16.771  0.3602 -0.6326 -0.3827
11339TIP3   OH255431   2.381   1.102  16.810  0.9480 -0.1559  0.5313
11339TIP3    H155432   2.342   1.173  16.760 -2.3686 -0.4718  2.5675
11339TIP3    H255433   2.438   1.146  16.873 -1.3400  0.7751  2.0027
11340TIP3   OH255434   4.329   5.024   6.065  0.6256 -0.5069 -0.0917
11340TIP3    H155435   4.329   5.120   6.068 -0.8435 -0.4819 -0.5475
11340TIP3    H255436   4.248   4.999   6.109  1.4942 -1.5858  0.9230
11341TIP3   OH255437   1.948   0.970  16.880  0.0849 -0.3188  0.2220
11341TIP3    H155438   2.032   0.962  16.834 -0.7776  0.0564 -1.4608
11341TIP3    H255439   1.886   0.997  16.812 -1.7410 -2.1942  1.0842
11342TIP3   OH255440   3.260   6.464   3.793  0.2710 -0.4768 -0.0932
11342TIP3    H155441   3.259   6.379   3.838  1.0908 -0.8335 -0.7224
11342TIP3    H255442   3.353   6.481   3.776 -0.0348 -0.6782 -2.2046
11343TIP3   OH255443   5.335   3.524  15.715  0.4006 -0.8375  0.2887
11343TIP3    H155444   5.369   3.440  15.684 -1.7073 -1.6957  0.2203
11343TIP3    H255445   5.252   3.502  15.757  0.2064  1.1242  0.9799
11344TIP3   OH255446   4.248   4.507   0.084  0.0788  0.1236  0.2800
11344TIP3    H155447   4.198   4.450   0.027  0.1599  0.4823 -0.1540
11344TIP3    H255448   4.184   4.573   0.114  0.1991  0.3549  0.0318
11345TIP3   OH255449   5.695   3.565   1.419  0.5147 -0.2082 -0.0635
11345TIP3    H155450   5.610   3.596   1.451  0.0074 -0.7698 -0.8444
11345TIP3    H255451   5.682   3.555   1.325  1.2461 -0.9489 -0.0853
11346TIP3   OH255452   1.405   5.257   4.565 -0.4935  0.0669  0.1040
11346TIP3    H155453   1.487   5.307   4.574 -0.8846  0.4478  1.6521
11346TIP3    H255454   1.358   5.300   4.494 -0.0670  0.8543  0.2964
11347TIP3   OH255455   4.281   0.659   5.494  0.3154  0.0524 -0.0177
11347TIP3    H155456   4.230   0.738   5.510  0.3183  0.0553 -0.0240
11347TIP3    H255457   4.372   0.689   5.491  0.4611 -0.1898  1.6554
11348TIP3   OH255458   4.875   6.680   0.381  0.2008  0.4763  0.6225
11348TIP3    H155459   4.878   6.758   0.437 -0.7016  1.8242 -1.1693
11348TIP3    H255460   4.787   6.647   0.392  0.5595 -0.2691  1.3170
11349TIP3   OH255461   6.682   6.634  14.736 -0.1506 -0.6005  0.6402
11349TIP3    H155462   6.731   6.609  14.815  0.4359  0.5671  0.6524
11349TIP3    H255463   6.618   6.698  14.767  0.2377  0.0361  0.1276
11350TIP3   OH255464   5.631   0.314  13.229  0.1206  0.2084  0.1214
11350TIP3    H155465   5.700   0.353  13.175  0.5548  0.1199  0.6062
11350TIP3    H255466   5.678   0.263  13.295 -0.3869  0.9549  1.0674
11351TIP3   OH255467   4.455   4.987  11.441 -0.6642  0.2773 -0.5791
11351TIP3    H155468   4.479   4.931  11.368 -0.0517 -0.0928 -0.0977
11351TIP3    H255469   4.536   5.000  11.490 -1.1442  0.2177  0.2449
11352TIP3   OH255470   1.475   3.938  14.137  0.2108 -0.1076 -0.2376
11352TIP3    H155471   1.519   3.886  14.204 -0.9507 -0.5160  0.2093
11352TIP3    H255472   1.486   3.888  14.056 -2.1273 -1.7944  0.4361
11353TIP3   OH255473   3.811   4.676   5.616 -0.5472 -0.7016 -0.1966
11353TIP3    H155474   3.828   4.582   5.606 -0.9761 -0.7001 -1.0431
11353TIP3    H255475   3.716   4.684   5.606 -0.7118 -0.3631  1.5046
11354TIP3   OH255476   0.091   0.517   3.510 -0.1803 -0.7710  0.0451
11354TIP3    H155477   0.003   0.509   3.548  0.0257 -1.7012  0.3187
11354TIP3    H255478   0.150   0.516   3.585  0.1999 -2.2267 -0.2559
11355TIP3   OH255479   0.975   1.886   5.828  0.6580  0.3672 -0.5663
11355TIP3    H155480   1.001   1.819   5.765  0.2767  0.9031 -1.3064
11355TIP3    H255481   1.040   1.880   5.897  0.4555 -0.9702 -0.4762
11356TIP3   OH255482   4.477   0.560   2.464  0.0875 -0.1469 -0.1797
11356TIP3    H155483   4.540   0.603   2.520  0.6867  0.3042 -1.1809
11356TIP3    H255484   4.431   0.499   2.521  0.1261  0.8830  0.9664
11357TIP3   OH255485   6.046   3.957   1.236  0.1763  0.4883  0.1562
11357TIP3    H155486   6.041   3.891   1.305  1.7574  1.5111  1.2773
11357TIP3    H255487   6.075   4.037   1.281 -0.1296  1.5358 -1.4576
11358TIP3   OH255488   1.680   1.362   1.793 -0.7972 -0.2415 -0.3534
11358TIP3    H155489   1.764   1.335   1.830  0.0223  1.6134 -0.8154
11358TIP3    H255490   1.655   1.439   1.843 -2.0160 -0.5315 -0.5036
11359TIP3   OH255491   1.655   2.477   2.381  0.1276 -0.2068 -0.1401
11359TIP3    H155492   1.687   2.423   2.453  0.0810 -3.4922 -2.4860
11359TIP3    H255493   1.561   2.458   2.376 -0.5253  2.4721  0.9111
11360TIP3   OH255494   6.099   1.034   3.078  0.2036 -0.6879  0.3102
11360TIP3    H155495   6.185   1.022   3.119  0.9092  0.3977 -0.8084
11360TIP3    H255496   6.100   1.125   3.047 -0.1492 -1.5917 -2.4693
11361TIP3   OH255497   3.633   6.591   6.567 -0.4234 -0.1603 -0.2175
11361TIP3    H155498   3.637   6.667   6.625  0.2200 -1.1158  1.0133
11361TIP3    H255499   3.542   6.589   6.536 -1.0283 -0.2009  1.5203
11362TIP3   OH255500   1.671   5.204   2.425  0.5828  0.1897 -0.3283
11362TIP3    H155501   1.764   5.204   2.448  0.3173 -0.5048  0.7435
11362TIP3    H255502   1.671   5.196   2.329  1.6203 -0.2951 -0.3010
11363TIP3   OH255503   2.415   1.453   3.788 -0.2168 -0.2306 -0.6679
11363TIP3    H155504   2.401   1.433   3.695  0.6046  0.8701 -1.0393
11363TIP3    H255505   2.495   1.505   3.790 -1.1900  1.2796  0.4701
11364TIP3   OH255506   6.206   1.872   5.238  0.2792  0.2038 -0.4470
11364TIP3    H155507   6.126   1.878   5.187 -1.4704  1.1356  2.2829
11364TIP3    H255508   6.208   1.782   5.270  0.2556  0.2133 -0.4181
11365TIP3   OH255509   4.651   0.888   5.061  0.1956 -0.2882 -0.4380
11365TIP3    H155510   4.664   0.802   5.021  3.2951 -0.0152 -0.1133
11365TIP3    H255511   4.602   0.870   5.141 -0.2641 -1.5898 -1.0045
11366TIP3   OH255512   4.435   4.744  14.129 -0.3461  0.5441  0.1464
11366TIP3    H155513   4.502   4.772  14.192 -1.7443  0.5005  1.6984
11366TIP3    H255514   4.469   4.772  14.044  0.1795  3.4018  1.2283
11367TIP3   OH255515   2.170   2.268   1.040 -0.0848  0.5973  0.3059
11367TIP3    H155516   2.198   2.191   0.991 -1.0706 -0.2031  0.9671
11367TIP3    H255517   2.150   2.333   0.972 -0.2399 -0.0793 -0.3121
11368TIP3   OH255518   6.204   3.996   0.991 -0.2511  0.2560  0.3374
11368TIP3    H155519   6.128   4.037   1.033 -0.9634 -0.3333 -0.3711
11368TIP3    H255520   6.263   3.975   1.064 -0.1557  1.9504  0.7666
11369TIP3   OH255521   2.284   3.524  13.369  0.4074  0.2935  0.4110
11369TIP3    H155522   2.197   3.538  13.406  0.0807 -0.3643 -0.1012
11369TIP3    H255523   2.297   3.429  13.373 -0.8020 -0.1296 -3.7318
11370TIP3   OH255524   4.575   2.818   0.022  0.1802  0.4024 -0.8344
11370TIP3    H155525   4.555   2.871   0.099  1.4420  0.2931 -0.4278
11370TIP3    H255526   4.635   2.751   0.054 -0.1855 -0.3383 -1.6759
11371TIP3   OH255527   4.950   6.361   4.058  0.3471 -0.2834  0.6252
11371TIP3    H155528   4.914   6.420   3.991  0.5200 -1.7458 -0.8020
11371TIP3    H255529   5.034   6.399   4.081  0.8495 -0.4163 -0.9234
11372TIP3   OH255530   1.840   3.268  12.361 -0.2964  0.4655  0.4865
11372TIP3    H155531   1.898   3.343  12.352  2.1962 -1.3306  0.8371
11372TIP3    H255532   1.800   3.257  12.275  1.2701  0.6958 -0.2830
11373TIP3   OH255533   6.051   2.838   6.560  0.4196  0.1313  0.1123
11373TIP3    H155534   6.037   2.745   6.576 -1.7439  0.6812  1.6827
11373TIP3    H255535   5.989   2.860   6.490  0.1151  0.5992  0.5195
11374TIP3   OH255536   0.940   5.438   2.689  0.3200  0.3602 -0.0247
11374TIP3    H155537   0.868   5.501   2.692  0.1712  0.2422 -0.9693
11374TIP3    H255538   0.898   5.353   2.699  0.5425  0.4099  1.4593
11375TIP3   OH255539   6.549   0.244   5.894 -0.4427 -0.0826  0.3520
11375TIP3    H155540   6.583   0.303   5.962 -0.5510 -0.3314  0.6262
11375TIP3    H255541   6.454   0.254   5.900 -0.4186  1.0130 -0.7715
11376TIP3   OH255542   3.910   4.325  12.123  0.4565  0.1390 -0.2834
11376TIP3    H155543   3.964   4.255  12.086 -0.6017 -0.0571 -1.4665
11376TIP3    H255544   3.939   4.404  12.077 -0.5183 -0.0282 -1.2052
11377TIP3   OH255545   0.713   5.431  14.171 -0.1428 -0.2929 -0.1991
11377TIP3    H155546   0.714   5.495  14.100 -3.7735  1.2742  1.0132
11377TIP3    H255547   0.659   5.359  14.139 -1.8041  0.4232  0.8924
11378TIP3   OH255548   0.016   5.934   5.302  0.9744 -0.1564  0.2659
11378TIP3    H155549  -0.034   5.936   5.384 -2.7219 -0.5177 -1.8925
11378TIP3    H255550   0.084   6.001   5.314  0.9170 -0.6092  3.8108
11379TIP3   OH255551   6.612   0.463  16.729  0.0766 -0.7194 -0.2921
11379TIP3    H155552   6.706   0.459  16.743  0.3340 -0.2479 -1.8070
11379TIP3    H255553   6.591   0.556  16.726 -0.5331 -0.8226  0.6510
11380TIP3   OH255554   3.001   6.168  12.979 -0.2132  0.2229 -0.1353
11380TIP3    H155555   2.978   6.075  12.975 -0.5840  0.3054  0.0305
11380TIP3    H255556   2.919   6.214  12.960 -0.6073  0.5481  2.2139
11381TIP3   OH255557   4.453   6.328  14.817  0.0537  0.2240  0.4608
11381TIP3    H155558   4.502   6.357  14.894  1.2549 -1.0156  0.1857
11381TIP3    H255559   4.505   6.256  14.781 -0.8834  0.2927 -1.0803
11382TIP3   OH255560   0.193   3.501   3.317  0.3113 -0.4596 -0.2075
11382TIP3    H155561   0.101   3.490   3.343 -0.0645 -1.7611 -1.9890
11382TIP3    H255562   0.224   3.412   3.302  1.0321  0.1358 -2.3469
11383TIP3   OH255563   5.664   3.242  16.932  0.1022 -0.3483  0.4793
11383TIP3    H155564   5.726   3.184  16.975  1.2862  0.9022  0.4683
11383TIP3    H255565   5.697   3.252  16.843 -0.4819 -0.2286  0.2730
11384TIP3   OH255566   1.405   4.235   4.749 -0.0350 -0.1557  0.4984
11384TIP3    H155567   1.473   4.298   4.721  1.0809 -1.9868 -1.0650
11384TIP3    H255568   1.435   4.204   4.834  1.2454 -1.1379 -0.2945
11385TIP3   OH255569   4.599   5.536   2.438 -0.6538  0.2829  0.1176
11385TIP3    H155570   4.611   5.629   2.454 -0.3995 -0.2095  3.0342
11385TIP3    H255571   4.508   5.519   2.464 -0.8634 -0.1819 -0.9112
11386TIP3   OH255572   4.915   0.487   2.262 -0.1117 -0.2822 -0.7831
11386TIP3    H155573   4.887   0.571   2.225  0.9055 -0.5180 -2.1444
11386TIP3    H255574   4.850   0.424   2.232  1.1712 -0.6262 -2.9783
11387TIP3   OH255575   6.588   1.763   5.310  0.0481  0.2068 -0.8302
11387TIP3    H155576   6.608   1.853   5.282  0.4872  0.3912  0.0594
11387TIP3    H255577   6.547   1.774   5.396  2.3695 -0.6013  0.4019
11388TIP3   OH255578   1.474   4.498   3.976 -0.3130 -0.0727 -0.3261
11388TIP3    H155579   1.419   4.437   3.926 -0.4599 -0.9697  0.9189
11388TIP3    H255580   1.545   4.519   3.916 -0.0485 -1.7945 -0.6517
11389TIP3   OH255581   5.906   4.808  11.950 -0.5610  0.2025 -0.2086
11389TIP3    H155582   5.832   4.775  11.899 -0.2054 -2.5585  0.9384
11389TIP3    H255583   5.892   4.771  12.038  2.3777 -0.7323 -0.0892
11390TIP3   OH255584   2.089   2.356   4.443 -0.4501  0.2354  0.6899
11390TIP3    H155585   2.079   2.398   4.358  0.6531  1.7122  1.2679
11390TIP3    H255586   2.122   2.269   4.423  0.8807  0.9639 -0.3518
11391TIP3   OH255587   0.013   4.183   1.516 -0.4056 -0.3034 -0.1971
11391TIP3    H155588  -0.010   4.237   1.592 -1.5490  0.0051 -0.7586
11391TIP3    H255589   0.105   4.205   1.499 -0.0561 -0.5761  1.2557
11392TIP3   OH255590   6.666   4.099  14.678  0.1785  0.1913  0.3899
11392TIP3    H155591   6.633   4.108  14.588  0.0955  1.7039  0.5619
11392TIP3    H255592   6.671   4.004  14.692 -0.9486 -0.0615 -0.7920
11393TIP3   OH255593   6.321   4.907  16.645  0.0552 -0.0455 -0.6913
11393TIP3    H155594   6.256   4.862  16.699 -0.0400  0.7330 -0.1663
11393TIP3    H255595   6.402   4.859  16.661 -0.4818 -1.3545 -1.7563
11394TIP3   OH255596   4.118   6.058  13.804 -0.1252 -0.3000  0.1307
11394TIP3    H155597   4.163   6.043  13.888  1.3229 -2.8954 -1.0306
11394TIP3    H255598   4.049   6.121  13.825 -0.2188 -1.3731  3.4397
11395TIP3   OH255599   0.712   0.825   0.998  0.0382 -0.5005  0.1901
11395TIP3    H155600   0.772   0.899   1.008 -0.0635 -0.6076  1.8845
11395TIP3    H255601   0.655   0.850   0.925 -0.2501  1.3106  0.9851
11396TIP3   OH255602   6.404   6.774   2.772 -0.2827 -0.1695 -0.5957
11396TIP3    H155603   6.479   6.752   2.716  1.2001  0.2899  1.1449
11396TIP3    H255604   6.408   6.710   2.843 -0.5181  0.9051  0.4044
11397TIP3   OH255605   4.760   1.613   4.836 -0.7175  0.3778  0.4867
11397TIP3    H155606   4.726   1.596   4.924  0.3944 -3.9999  0.1794
11397TIP3    H255607   4.849   1.577   4.837 -0.3367  1.1077 -2.1481
11398TIP3   OH255608   1.829   0.114  14.317  0.4413  1.0689 -0.0499
11398TIP3    H155609   1.832   0.170  14.395  0.0966  1.7049 -0.4890
11398TIP3    H255610   1.745   0.069  14.324  1.5980 -1.0064  1.3923
11399TIP3   OH255611   4.502   2.133   3.951  0.5651 -0.3868 -0.7770
11399TIP3    H155612   4.533   2.168   4.035  0.3377  2.2170 -1.7400
11399TIP3    H255613   4.450   2.056   3.975  0.6165  0.2411  1.4693
11400TIP3   OH255614   5.287   6.117  13.381 -0.1954  0.2125 -0.4955
11400TIP3    H155615   5.274   6.127  13.475 -0.7080 -0.6059 -0.4645
11400TIP3    H255616   5.381   6.124  13.368 -0.2888  2.3294 -0.1874
11401TIP3   OH255617   4.558   1.827  14.882  0.8750  0.6282 -0.2626
11401TIP3    H155618   4.487   1.872  14.836 -1.4393  0.3440  2.8408
11401TIP3    H255619   4.566   1.743  14.837 -1.0177  0.5147 -0.4317
11402TIP3   OH255620   6.099   3.945  16.373 -0.7629  0.1625  0.4235
11402TIP3    H155621   6.033   4.006  16.339 -0.2347  0.2988 -0.3645
11402TIP3    H255622   6.161   4.001  16.419  0.1447  0.3106 -0.9694
11403TIP3   OH255623   0.566   0.168   6.125 -0.3997  0.5146  0.2794
11403TIP3    H155624   0.592   0.076   6.122  1.6396  1.1057 -0.9400
11403TIP3    H255625   0.573   0.192   6.218  0.7957 -0.0912  0.3559
11404TIP3   OH255626   2.371   3.001  14.587 -0.2503 -0.4719  0.0405
11404TIP3    H155627   2.300   2.973  14.645 -0.5536  1.0489  0.4412
11404TIP3    H255628   2.331   3.007  14.501 -0.0030 -1.9535 -0.1793
11405TIP3   OH255629   3.769   3.400  15.129 -0.3773 -0.2422 -0.6827
11405TIP3    H155630   3.815   3.475  15.091  0.4438 -0.1125  0.5070
11405TIP3    H255631   3.832   3.327  15.122 -0.1250 -0.1680  0.5590
11406TIP3   OH255632   2.229   6.204  10.920 -0.3460 -0.0272  0.1064
11406TIP3    H155633   2.175   6.183  10.844  0.4002 -0.7458 -0.2369
11406TIP3    H255634   2.173   6.258  10.975 -0.9682  0.3256 -0.8551
11407TIP3   OH255635   5.998   0.967  10.580  0.2547 -0.2319  0.1693
11407TIP3    H155636   5.975   0.982  10.489  0.3436 -1.3925 -0.0395
11407TIP3    H255637   6.064   0.899  10.578  0.7195  0.1768  1.0601
11408TIP3   OH255638   2.525   6.108  12.579 -0.7796 -0.1498  0.1138
11408TIP3    H155639   2.577   6.058  12.643  1.4177  2.4687  0.4603
11408TIP3    H255640   2.517   6.049  12.504 -1.3243 -2.3543  1.8316
11409TIP3   OH255641   2.344   4.952  12.493  0.7112 -0.1043 -0.2628
11409TIP3    H155642   2.273   4.957  12.558  1.0292 -1.2560  0.1896
11409TIP3    H255643   2.422   4.932  12.545  1.2241  0.3469 -0.8545
11410TIP3   OH255644   3.490   6.765  14.799  0.8906  0.1039  0.4920
11410TIP3    H155645   3.418   6.716  14.838 -0.2693  0.6479 -0.9533
11410TIP3    H255646   3.458   6.854  14.791  1.6160  0.3003 -0.4076
11411TIP3   OH255647   3.872   6.225  11.403 -0.0559  0.1864  0.4840
11411TIP3    H155648   3.802   6.262  11.350 -0.6742  0.0201  1.1821
11411TIP3    H255649   3.834   6.145  11.440  1.1714 -1.0340 -0.7965
11412TIP3   OH255650   2.812   5.872   0.315  0.2126  0.5936  0.0522
11412TIP3    H155651   2.828   5.944   0.376  3.0121 -0.4853  0.6663
11412TIP3    H255652   2.781   5.800   0.370  0.3398  0.3827 -0.1501
11413TIP3   OH255653   5.410   2.348   1.205 -0.1534  0.4570  0.1775
11413TIP3    H155654   5.332   2.295   1.188 -0.5828  0.8927  0.7726
11413TIP3    H255655   5.377   2.424   1.254  0.6394  0.6445  0.4226
11414TIP3   OH255656   2.211   5.070   0.809  0.3628 -0.1900 -0.0765
11414TIP3    H155657   2.253   5.082   0.894 -0.0378  0.6348  0.0027
11414TIP3    H255658   2.284   5.050   0.749  0.7944  0.6155  0.1784
11415TIP3   OH255659   2.140   6.764  14.660  0.0406 -0.4047  0.0901
11415TIP3    H155660   2.160   6.857  14.650 -1.1000 -0.1252  0.3957
11415TIP3    H255661   2.213   6.729  14.712 -0.1184  0.5494  0.9689
11416TIP3   OH255662   1.680   1.674   1.353  0.8309 -0.1461  0.0772
11416TIP3    H155663   1.739   1.653   1.281 -1.3741 -1.2691 -1.4856
11416TIP3    H255664   1.692   1.603   1.416  0.6998 -0.7045 -0.5262
11417TIP3   OH255665   2.774   5.050  13.571 -0.0569  0.0242  0.3768
11417TIP3    H155666   2.844   5.044  13.636 -0.0241 -0.7937  0.2785
11417TIP3    H255667   2.820   5.046  13.486 -0.2558 -1.2809  0.3072
11418TIP3   OH255668   1.043   6.308   2.104 -0.0404 -0.0402  0.0232
11418TIP3    H155669   1.027   6.268   2.019 -1.7109  1.7173 -0.5226
11418TIP3    H255670   1.132   6.343   2.097  0.1151 -0.5702 -0.7216
11419TIP3   OH255671   2.495   5.851  13.952  0.4692 -0.3392 -0.8024
11419TIP3    H155672   2.409   5.823  13.921  0.3007  0.7948 -1.3882
11419TIP3    H255673   2.485   5.944  13.971  1.1556 -0.5398  0.6199
11420TIP3   OH255674   0.115   0.314   2.322 -0.3248 -0.3623  0.5568
11420TIP3    H155675   0.113   0.286   2.413 -1.9228 -0.6348  0.4454
11420TIP3    H255676   0.208   0.312   2.298  0.0566 -0.6702  2.0532
11421TIP3   OH255677   2.665   4.023  12.097 -0.0121 -0.1677 -0.0955
11421TIP3    H155678   2.574   4.036  12.127  0.5813 -0.0182  1.7221
11421TIP3    H255679   2.663   4.045  12.004 -1.4899  1.5174  0.3057
11422TIP3   OH255680   1.934   0.732   6.640 -0.0113  0.3651  0.2196
11422TIP3    H155681   1.840   0.711   6.637 -0.0852  0.6785  0.3182
11422TIP3    H255682   1.938   0.825   6.615  0.3543  0.1096 -0.7086
11423TIP3   OH255683   2.222   0.931   5.366  0.6597 -0.1010  0.0885
11423TIP3    H155684   2.266   0.965   5.287 -1.1329 -0.5954 -1.1564
11423TIP3    H255685   2.291   0.927   5.432  1.6176  3.0705 -0.6023
11424TIP3   OH255686   4.202   1.501  16.358 -0.1310 -0.0930 -0.2795
11424TIP3    H155687   4.256   1.580  16.350  0.7213 -0.5205  1.0714
11424TIP3    H255688   4.192   1.488  16.452 -1.7843 -0.5885 -0.5111
11425TIP3   OH255689   4.497   2.479  14.410  0.2108  0.0906  0.1258
11425TIP3    H155690   4.560   2.411  14.386  0.2384  0.0220  0.3889
11425TIP3    H255691   4.492   2.536  14.333 -0.8897 -1.0186 -0.6192
11426TIP3   OH255692   2.484   0.427   0.105  0.1819  0.1865 -0.0697
11426TIP3    H155693   2.507   0.337   0.082 -0.4749 -0.0697  0.2622
11426TIP3    H255694   2.562   0.478   0.084  0.3705 -0.3774 -0.7819
11427TIP3   OH255695   0.647   6.277   5.548 -0.2829  0.5704  0.2912
11427TIP3    H155696   0.619   6.368   5.555 -1.5458  0.1248  1.1057
11427TIP3    H255697   0.738   6.278   5.578 -0.1344  1.6341 -0.1556
11428TIP3   OH255698   4.767   2.502   2.657  0.1144  0.3105  0.4235
11428TIP3    H155699   4.776   2.594   2.635  0.3578  0.3054  0.4931
11428TIP3    H255700   4.807   2.455   2.583 -0.0340  0.2619  0.3749
11429TIP3   OH255701   2.312   1.891   1.128  0.3435  0.1978  0.0743
11429TIP3    H155702   2.403   1.919   1.137 -0.1357  1.2353  1.9996
11429TIP3    H255703   2.317   1.798   1.109  1.7974  0.1823  0.4689
11430TIP3   OH255704   2.678   6.094  13.332 -0.6444 -0.0131  0.1016
11430TIP3    H155705   2.750   6.069  13.274 -0.3822 -0.7485  0.7403
11430TIP3    H255706   2.657   6.014  13.380 -1.9673  0.1578 -0.1525
11431TIP3   OH255707   4.958   6.651  16.227  0.4132 -0.1538  0.2127
11431TIP3    H155708   4.986   6.739  16.203  0.5249  0.1783  1.5246
11431TIP3    H255709   4.863   6.651  16.214  0.5367 -0.1719 -0.7797
11432TIP3   OH255710   2.356   6.529  16.906  0.1442  0.3502 -0.1353
11432TIP3    H155711   2.415   6.511  16.980 -0.9778 -2.5298  0.1420
11432TIP3    H255712   2.295   6.455  16.905 -2.2761  2.2739 -1.6216
11433TIP3   OH255713   2.830   4.663  11.279  0.0642 -0.4290 -0.3118
11433TIP3    H155714   2.922   4.636  11.273  0.0156 -1.2940  2.1724
11433TIP3    H255715   2.781   4.587  11.248  0.1548  0.1381 -1.9227
11434TIP3   OH255716   5.669   5.535   4.988  0.4168  0.5545 -0.6439
11434TIP3    H155717   5.708   5.450   4.969  0.9986  0.8549 -0.8209
11434TIP3    H255718   5.737   5.598   4.966  0.9242  0.9493  1.8625
11435TIP3   OH255719   4.031   2.704   2.224  0.1170  0.6426 -0.4210
11435TIP3    H155720   4.057   2.794   2.206 -0.6042  0.8435 -0.4495
11435TIP3    H255721   3.938   2.700   2.201  0.5208 -0.5222 -1.9476
11436TIP3   OH255722   3.964   6.522   2.775  0.3381  0.2842 -0.6138
11436TIP3    H155723   3.886   6.496   2.725  0.5577  0.2176 -0.9190
11436TIP3    H255724   3.973   6.454   2.842  0.1905  0.2424 -0.6349
11437TIP3   OH255725   4.250   0.145  12.789 -0.0809 -0.5733 -0.4418
11437TIP3    H155726   4.229   0.208  12.858  0.8524  0.7702 -1.3613
11437TIP3    H255727   4.249   0.060  12.833 -0.5805  0.1554  0.9858
11438TIP3   OH255728   6.026   1.423   3.717  0.5831  0.2101  0.5742
11438TIP3    H155729   6.051   1.513   3.698 -0.4659  0.3592 -0.1035
11438TIP3    H255730   5.981   1.428   3.802  0.4743  0.3227  0.5097
11439TIP3   OH255731   6.353   4.923   4.245 -0.2057 -0.1489  0.3839
11439TIP3    H155732   6.429   4.871   4.271 -0.2614 -0.0679  0.7134
11439TIP3    H255733   6.342   4.987   4.316 -1.6585 -1.3111  1.2331
11440TIP3   OH255734   2.007   6.773  15.314  0.4177  0.0094 -0.3138
11440TIP3    H155735   2.038   6.861  15.337  0.5654  0.1006 -0.8695
11440TIP3    H255736   1.912   6.784  15.304  0.5522  0.3012 -1.2921
11441TIP3   OH255737   5.852   5.660   2.786 -0.3817 -0.2752 -0.1064
11441TIP3    H155738   5.886   5.682   2.873 -4.2344  0.4475  1.3239
11441TIP3    H255739   5.804   5.579   2.798  0.4922 -1.1201 -2.0066
11442TIP3   OH255740   6.271   1.138  13.889  0.0190  0.4815 -0.0879
11442TIP3    H155741   6.300   1.223  13.921  1.5277 -0.4705  1.1384
11442TIP3    H255742   6.294   1.076  13.958 -1.9331 -0.8094 -0.5433
11443TIP3   OH255743   2.347   6.151  13.838 -0.1067  0.4682  0.1268
11443TIP3    H155744   2.277   6.089  13.818  1.5875 -1.2990 -0.3792
11443TIP3    H255745   2.301   6.230  13.867 -2.3012 -0.7102 -0.0703
11444TIP3   OH255746   3.977   4.048   2.681 -0.0443  0.3360 -0.5373
11444TIP3    H155747   3.968   3.984   2.611 -0.3829 -0.2997  0.0766
11444TIP3    H255748   3.906   4.111   2.666 -1.1596 -0.7317  0.1980
11445TIP3   OH255749   0.133   1.494  14.085  0.3740 -0.0038  0.3466
11445TIP3    H155750   0.111   1.574  14.131  0.7255  0.0801  0.3704
11445TIP3    H255751   0.122   1.424  14.150 -1.9598 -0.2202 -0.2323
11446TIP3   OH255752   6.107   0.253  13.005 -0.0943 -0.1125  0.3367
11446TIP3    H155753   6.115   0.236  12.911  1.4341 -0.7644  0.5706
11446TIP3    H255754   6.121   0.168  13.047  0.3857  0.3753  1.1905
11447TIP3   OH255755   2.037   3.837  13.092 -0.2807 -0.5546  0.0890
11447TIP3    H155756   2.087   3.760  13.120 -2.3939 -1.6655  0.8854
11447TIP3    H255757   2.067   3.854  13.002  0.6336 -1.9172  0.1237
11448TIP3   OH255758   5.263   2.344   3.227  0.3222 -0.1861  0.3912
11448TIP3    H155759   5.350   2.349   3.186  1.1059  0.6170  2.1328
11448TIP3    H255760   5.272   2.392   3.309 -1.3937 -1.2912  1.2547
11449TIP3   OH255761   0.377   2.296   3.196 -0.0051  0.2756 -0.3182
11449TIP3    H155762   0.376   2.266   3.105 -1.2576  0.7507 -0.4737
11449TIP3    H255763   0.327   2.229   3.244  1.0344 -0.2093  0.1019
11450TIP3   OH255764   1.082   4.861  17.152 -0.3568  0.1042 -0.7930
11450TIP3    H155765   1.171   4.860  17.116 -0.5311 -0.2306 -1.2274
11450TIP3    H255766   1.043   4.940  17.115  0.0855  0.8031  0.2218
11451TIP3   OH255767   3.533   3.632   0.130 -0.0046 -0.4596  0.0530
11451TIP3    H155768   3.550   3.597   0.218  1.3155 -1.7353 -0.6724
11451TIP3    H255769   3.614   3.676   0.105 -0.6644  0.6332 -0.2005
11452TIP3   OH255770   6.042   3.762   3.883  0.3923 -0.6154 -0.4904
11452TIP3    H155771   6.060   3.853   3.858  0.0901 -0.5228 -0.3725
11452TIP3    H255772   5.953   3.764   3.918  1.6316 -0.2871  2.7950
11453TIP3   OH255773   1.337   6.276   0.302 -0.0310 -0.3515  0.6533
11453TIP3    H155774   1.269   6.287   0.236 -0.1625 -0.8532  0.7031
11453TIP3    H255775   1.369   6.186   0.289 -0.2624 -0.5566  1.4563
11454TIP3   OH255776   2.185   4.672   4.026 -0.5910  0.4115  0.4053
11454TIP3    H155777   2.223   4.605   4.083 -1.6937 -0.3803  0.2132
11454TIP3    H255778   2.097   4.641   4.007 -2.0814  3.1624  2.4404
11455TIP3   OH255779   1.510   4.940  15.500  0.4632  0.1391  0.2865
11455TIP3    H155780   1.434   4.969  15.450  1.8099  1.3188 -1.1290
11455TIP3    H255781   1.583   4.944  15.437  2.0202  0.7843  2.1101
11456TIP3   OH255782   4.848   6.514   1.512  0.4660 -0.7433  0.3945
11456TIP3    H155783   4.881   6.542   1.597 -0.2520 -0.5651  0.6118
11456TIP3    H255784   4.913   6.547   1.450 -0.0038  0.7926  0.7029
11457TIP3   OH255785   0.690   2.215   0.397 -0.3003  0.3999  0.1202
11457TIP3    H155786   0.766   2.272   0.384 -0.7047  0.8819 -0.1508
11457TIP3    H255787   0.629   2.240   0.328 -1.7540  1.7499  1.8305
11458TIP3   OH255788   2.443   5.251   3.066  0.2054  0.2204  0.2117
11458TIP3    H155789   2.413   5.339   3.091 -1.2082  0.1252 -1.0226
11458TIP3    H255790   2.533   5.263   3.037  0.4201  1.0576  1.2243
11459TIP3   OH255791   4.947   4.186  11.276  0.2060 -0.1025 -0.0805
11459TIP3    H155792   4.996   4.268  11.268 -1.0821  0.5564 -1.5066
11459TIP3    H255793   4.906   4.174  11.190 -2.3973 -0.4356  1.1639
11460TIP3   OH255794   3.272   0.952  14.549 -0.5954  0.4027 -0.1541
11460TIP3    H155795   3.341   0.994  14.601 -0.3500  0.8964 -0.8663
11460TIP3    H255796   3.194   0.958  14.603 -0.1654  0.1859  0.4974
11461TIP3   OH255797   0.929   4.566  12.741  0.2196  0.0846 -0.6505
11461TIP3    H155798   0.844   4.521  12.737  0.5487 -0.5490 -0.4058
11461TIP3    H255799   0.914   4.640  12.800 -0.0922 -0.1664 -0.4180
11462TIP3   OH255800   4.371   0.146   4.022  0.6212  0.0683 -0.2596
11462TIP3    H155801   4.362   0.135   3.927  0.3393  0.2186 -0.2491
11462TIP3    H255802   4.294   0.196   4.048  0.7235  0.0674  0.0428
11463TIP3   OH255803   4.623   6.617   0.926  0.2857  0.1317 -0.1692
11463TIP3    H155804   4.649   6.556   0.857  0.7064 -0.4416  0.4936
11463TIP3    H255805   4.701   6.670   0.942  0.2850  0.0500  0.0982
11464TIP3   OH255806   3.298   6.597   0.216 -0.0472  0.1243  0.2222
11464TIP3    H155807   3.268   6.506   0.220  0.5386 -0.0422  0.8844
11464TIP3    H255808   3.357   6.599   0.141  0.5086 -0.2191  0.6434
11465TIP3   OH255809   3.466   0.635  10.946 -0.0800 -0.2641 -0.4775
11465TIP3    H155810   3.535   0.641  10.879 -1.4391 -0.0027 -1.8776
11465TIP3    H255811   3.420   0.718  10.940 -1.4265 -1.0058 -0.5756
11466TIP3   OH255812   1.368   5.393  10.738  0.4259 -0.3893 -0.5947
11466TIP3    H155813   1.362   5.346  10.655 -1.7504  0.3000 -0.8711
11466TIP3    H255814   1.453   5.436  10.736  0.6576 -0.8946 -2.1885
11467TIP3   OH255815   1.018   0.513  12.395  0.1021  0.1024  1.3788
11467TIP3    H155816   1.036   0.457  12.319 -0.0475 -0.8263  2.0180
11467TIP3    H255817   1.073   0.589  12.382 -0.6991  0.4346 -0.2008
11468TIP3   OH255818   5.835   1.336  12.653  0.1167 -0.3955  0.5758
11468TIP3    H155819   5.904   1.363  12.713  2.0028 -1.8707 -0.8787
11468TIP3    H255820   5.808   1.249  12.684  2.8043 -2.2597 -2.0472
11469TIP3   OH255821   1.831   1.348  10.704 -0.2118 -0.3722 -0.0448
11469TIP3    H155822   1.909   1.372  10.753  0.9583 -1.6247 -1.2558
11469TIP3    H255823   1.771   1.311  10.769  0.8555 -0.9157  0.6306
11470TIP3   OH255824   1.776   0.386  15.358  0.0367 -0.0306 -0.0880
11470TIP3    H155825   1.722   0.464  15.345  0.3536  0.3599  0.9370
11470TIP3    H255826   1.838   0.411  15.427  1.1015 -0.6850 -0.7925
11471TIP3   OH255827   2.656   2.436   3.470  0.0746 -0.1501 -0.1271
11471TIP3    H155828   2.655   2.353   3.518 -0.0825  0.8924  1.7103
11471TIP3    H255829   2.566   2.446   3.438 -0.6117  0.5867  1.9399
11472TIP3   OH255830   4.118   4.114  16.213 -0.8617  0.0768 -0.1003
11472TIP3    H155831   4.053   4.045  16.227 -2.2198  1.3962  0.3026
11472TIP3    H255832   4.067   4.195  16.220  0.7237  1.1089 -0.4651
11473TIP3   OH255833   1.540   4.342   2.718  0.4390  0.1152  0.1825
11473TIP3    H155834   1.496   4.285   2.654  1.1649 -2.0776  1.6015
11473TIP3    H255835   1.568   4.418   2.667  2.7223 -2.4661 -2.5499
11474TIP3   OH255836   4.340   6.109  17.119  0.2350 -0.1325 -0.4085
11474TIP3    H155837   4.251   6.135  17.095 -0.4690 -2.4821 -0.4656
11474TIP3    H255838   4.340   6.109  17.215  0.4627  0.7845 -0.4054
11475TIP3   OH255839   1.054   0.857   0.836  0.0009  0.2168  0.4262
11475TIP3    H155840   0.989   0.926   0.823  0.3092  0.4736  0.2700
11475TIP3    H255841   1.034   0.822   0.924 -0.6019  0.0242  0.2163
11476TIP3   OH255842   3.829   4.607   2.731 -0.4108  0.0773  0.1785
11476TIP3    H155843   3.829   4.625   2.825 -0.8114  1.2612 -0.0484
11476TIP3    H255844   3.769   4.670   2.694  0.6049  0.3606 -1.0203
11477TIP3   OH255845   0.006   1.007   1.703  0.4140 -0.1885 -0.0450
11477TIP3    H155846   0.043   1.088   1.667  2.9110 -1.1212  0.2856
11477TIP3    H255847   0.034   0.939   1.641 -0.5902 -0.9592  0.3408
11478TIP3   OH255848   1.004   5.284   0.786  0.3045 -0.5403  0.2203
11478TIP3    H155849   1.018   5.216   0.851 -0.5405  0.6966  1.7433
11478TIP3    H255850   1.070   5.351   0.807 -0.6943  0.3631  0.5165
11479TIP3   OH255851   0.567   0.301   5.548 -0.3751 -0.1035  0.1284
11479TIP3    H155852   0.637   0.344   5.500 -0.6221  0.5687  0.3675
11479TIP3    H255853   0.492   0.305   5.489  0.2800 -2.5587 -0.9347
11480TIP3   OH255854   0.899   3.445   2.837 -0.0469  0.9631  0.2006
11480TIP3    H155855   0.892   3.351   2.824 -0.8167  0.9668  0.5608
11480TIP3    H255856   0.974   3.471   2.784 -0.5568  0.3243 -0.8491
11481TIP3   OH255857   5.548   2.772  13.168 -0.5954  0.1292 -0.2945
11481TIP3    H155858   5.465   2.819  13.157 -0.9276 -0.4856 -0.4035
11481TIP3    H255859   5.582   2.761  13.079 -0.1208  0.8680 -0.2141
11482TIP3   OH255860   1.376   2.798   5.039 -0.0156 -0.2192 -0.6020
11482TIP3    H155861   1.414   2.771   4.956 -0.4312 -0.3657 -0.7452
11482TIP3    H255862   1.445   2.784   5.103 -0.2061 -1.5460 -0.6836
11483TIP3   OH255863   2.420   5.590  10.666 -0.5202 -0.5708  0.0822
11483TIP3    H155864   2.333   5.591  10.625 -0.7916  0.9082  0.6439
11483TIP3    H255865   2.416   5.660  10.731  1.9523  1.2964 -1.6890
11484TIP3   OH255866   2.493   4.376  11.799 -0.0111 -0.0097 -0.3084
11484TIP3    H155867   2.549   4.440  11.755 -0.2206 -0.6008 -1.4595
11484TIP3    H255868   2.442   4.428  11.861  0.4581  0.8135 -0.6064
11485TIP3   OH255869   0.401   5.528   0.426  0.2430 -0.2042 -0.3102
11485TIP3    H155870   0.348   5.461   0.383  0.5279  0.4334 -1.6888
11485TIP3    H255871   0.373   5.526   0.518 -1.9633 -0.0915 -0.9418
11486TIP3   OH255872   5.972   3.767   5.113  0.2688  0.5716  0.3450
11486TIP3    H155873   5.964   3.817   5.032  1.1330 -0.5780 -0.4827
11486TIP3    H255874   5.960   3.676   5.086 -0.9422  0.2849  1.7613
11487TIP3   OH255875   5.155   5.663   1.460 -0.4444  0.2609 -0.2741
11487TIP3    H155876   5.164   5.705   1.545 -0.4831 -1.1919  0.4576
11487TIP3    H255877   5.101   5.585   1.477 -0.3876 -0.0856 -1.6030
11488TIP3   OH255878   5.862   4.963  15.797  0.2404 -0.5965 -0.3612
11488TIP3    H155879   5.853   5.030  15.730  0.7319  0.1467  0.3053
11488TIP3    H255880   5.916   4.895  15.757  1.5419  0.3925 -0.3130
11489TIP3   OH255881   3.809   4.332   2.925  0.1624 -0.1185  0.0529
11489TIP3    H155882   3.734   4.365   2.975 -1.6831 -0.8707 -2.1114
11489TIP3    H255883   3.773   4.315   2.838  2.7313 -1.1245 -0.8400
11490TIP3   OH255884   2.573   1.963  11.109 -0.1729 -0.5435 -0.9664
11490TIP3    H155885   2.531   2.030  11.163 -1.9515 -2.3486 -0.0070
11490TIP3    H255886   2.503   1.932  11.052  1.1501 -0.1860 -2.8227
11491TIP3   OH255887   5.886   0.237  11.113  0.3234 -0.4890 -0.2951
11491TIP3    H155888   5.947   0.277  11.052  0.2146  2.4319  1.4029
11491TIP3    H255889   5.914   0.268  11.199 -2.9714  0.1668  0.6080
11492TIP3   OH255890   4.076   6.471   4.703 -0.1727  0.5819  0.4268
11492TIP3    H155891   4.082   6.457   4.608  0.9892  0.2917  0.5289
11492TIP3    H255892   4.153   6.425   4.738  0.3754  2.1706  1.3411
11493TIP3   OH255893   2.008   3.367   0.676  0.5451  0.5798  0.5397
11493TIP3    H155894   1.942   3.321   0.623  0.2077  0.7409  0.8257
11493TIP3    H255895   2.016   3.453   0.635 -0.0438  0.8626  1.0327
11494TIP3   OH255896   4.020   0.152  10.789 -0.4731 -0.1641  0.5599
11494TIP3    H155897   3.967   0.226  10.819  0.2726  0.4999  0.2321
11494TIP3    H255898   3.976   0.075  10.827 -3.1489  0.1439 -1.7302
11495TIP3   OH255899   0.864   2.888   1.289  0.1447 -0.6891 -0.5037
11495TIP3    H155900   0.804   2.893   1.363 -0.7438 -1.0631 -1.1930
11495TIP3    H255901   0.921   2.813   1.309 -0.2547 -0.9453 -0.3199
11496TIP3   OH255902   5.523   4.295   2.244  0.0851  0.7454 -0.3848
11496TIP3    H155903   5.541   4.254   2.160 -0.5440  0.1935 -0.2427
11496TIP3    H255904   5.608   4.334   2.270  0.8614 -1.0350 -0.1870
11497TIP3   OH255905   3.600   4.835  14.160 -0.1618  0.0809 -0.1782
11497TIP3    H155906   3.512   4.861  14.133 -0.2848 -0.7269 -0.5684
11497TIP3    H255907   3.625   4.766  14.098  1.0901  0.9201 -0.6127
11498TIP3   OH255908   5.172   4.010  17.042 -0.7319  0.3515  0.2670
11498TIP3    H155909   5.227   4.085  17.062 -1.7465  1.6734 -1.7881
11498TIP3    H255910   5.093   4.024  17.095 -1.8556  1.9357 -1.7434
11499TIP3   OH255911   5.847   1.410  14.676  0.2791 -0.3481 -0.0333
11499TIP3    H155912   5.798   1.349  14.731 -0.1190 -0.2986 -0.3302
11499TIP3    H255913   5.840   1.373  14.588  0.5704 -0.2122 -0.1138
11500TIP3   OH255914   5.355   1.603   2.242 -0.1428  0.1477 -0.5475
11500TIP3    H155915   5.285   1.604   2.177 -1.6975  0.9441  1.0829
11500TIP3    H255916   5.372   1.696   2.259  1.8061 -0.0367 -1.4275
11501TIP3   OH255917   2.482   2.306  17.121 -0.1023 -0.1869  0.3672
11501TIP3    H155918   2.574   2.291  17.141  0.5341  0.5437 -1.8974
11501TIP3    H255919   2.473   2.402  17.118 -0.8816 -0.2571  0.2720
11502TIP3   OH255920   4.414   3.615   3.347  0.8028 -0.8283  0.3608
11502TIP3    H155921   4.473   3.615   3.422  0.0955 -0.2236  0.9281
11502TIP3    H255922   4.335   3.571   3.378  0.0571  0.4550  0.3537
11503TIP3   OH255923   3.067   5.111   3.900  0.4527  0.0392  0.9520
11503TIP3    H155924   3.043   5.060   3.822 -1.8833  2.0196  0.3064
11503TIP3    H255925   3.162   5.118   3.895  0.6018 -2.1829 -0.2318
11504TIP3   OH255926   0.304   1.252  13.786 -0.0856 -0.5207  0.6580
11504TIP3    H155927   0.223   1.203  13.801 -0.0383 -0.3940  1.3374
11504TIP3    H255928   0.334   1.223  13.700 -0.5996 -0.9221  0.6092
11505TIP3   OH255929   5.071   6.528   4.803 -0.0297  0.1349  0.3281
11505TIP3    H155930   5.071   6.623   4.810  0.6074  0.0944  0.9633
11505TIP3    H255931   5.014   6.499   4.875 -2.8707  0.1503 -1.8465
11506TIP3   OH255932   5.718   3.307  12.920 -0.3441  0.1136 -0.4105
11506TIP3    H155933   5.699   3.317  12.827 -0.8915  0.1805 -0.2986
11506TIP3    H255934   5.810   3.284  12.924 -0.6125 -1.1205 -1.0479
11507TIP3   OH255935   6.691   1.187  16.458 -0.2986 -0.3077  0.1288
11507TIP3    H155936   6.736   1.207  16.541  0.5611  1.1497 -0.6661
11507TIP3    H255937   6.718   1.097  16.438 -1.2331 -1.0134  1.8712
11508TIP3   OH255938   1.566   5.179  13.775  0.7554  0.2982 -0.2986
11508TIP3    H155939   1.486   5.221  13.806  0.6969 -0.5255  0.6767
11508TIP3    H255940   1.535   5.104  13.724  0.8783  0.9446 -1.3426
11509TIP3   OH255941   5.183   4.843  13.622  0.2899 -0.4818  0.4610
11509TIP3    H155942   5.209   4.933  13.601 -0.1726 -0.7044 -1.1267
11509TIP3    H255943   5.149   4.848  13.711  0.0837  0.9576  0.3145
11510TIP3   OH255944   4.053   2.028   5.012  0.2218 -0.2510  0.1143
11510TIP3    H155945   4.025   1.942   5.042 -1.2225 -0.4933 -1.8410
11510TIP3    H255946   3.982   2.087   5.038 -0.5085 -0.2797 -1.7199
11511TIP3   OH255947   0.433   3.349   3.858  0.4233 -0.0046 -0.4250
11511TIP3    H155948   0.472   3.436   3.847 -1.2092  0.7648 -0.2394
11511TIP3    H255949   0.392   3.330   3.774 -0.2415 -0.0692 -0.0920
11512TIP3   OH255950   6.603   4.552   0.829 -0.6669  0.1412 -0.4532
11512TIP3    H155951   6.660   4.497   0.884  0.0149 -0.0687 -1.3613
11512TIP3    H255952   6.652   4.564   0.748 -1.4752  0.8369 -0.8461
11513TIP3   OH255953   2.482   2.588  12.319 -0.3068  0.3067  0.4628
11513TIP3    H155954   2.446   2.545  12.241  0.5831  2.2848 -1.0935
11513TIP3    H255955   2.409   2.592  12.380 -1.0015 -1.3616 -0.2367
11514TIP3   OH255956   4.236   4.934  12.510  0.1168 -0.0437 -0.3661
11514TIP3    H155957   4.150   4.891  12.507  1.6991 -3.3394 -1.5411
11514TIP3    H255958   4.247   4.974  12.424  0.7265 -1.7805 -1.1340
11515TIP3   OH255959   5.853   0.236  15.914  0.0810  0.0575  0.8010
11515TIP3    H155960   5.795   0.295  15.962 -0.3996 -0.5342  0.9580
11515TIP3    H255961   5.800   0.204  15.842  1.1875  1.8855 -0.8639
11516TIP3   OH255962   3.394   4.042  11.879  0.2766 -0.3228  0.1921
11516TIP3    H155963   3.339   3.966  11.861  0.1484 -0.5236  1.3726
11516TIP3    H255964   3.337   4.117  11.868  0.7000 -0.3024 -2.1587
11517TIP3   OH255965   4.061   3.719   3.010 -0.1730 -0.0236  0.1110
11517TIP3    H155966   4.137   3.733   3.066 -1.9420  1.3840  2.2188
11517TIP3    H255967   4.072   3.630   2.977  0.1665 -1.4986  3.9437
11518TIP3   OH255968   5.008   0.456   4.848 -0.3512 -0.2301 -0.4273
11518TIP3    H155969   5.099   0.426   4.843 -0.1394 -0.2766  2.6939
11518TIP3    H255970   5.012   0.548   4.823  0.3280 -0.5483 -1.5487
11519TIP3   OH255971   3.154   0.774  10.905  0.0387  0.0948  0.2615
11519TIP3    H155972   3.069   0.743  10.935 -1.0893  1.9886 -0.8551
11519TIP3    H255973   3.176   0.718  10.830  0.3920 -1.2174  1.3286
11520TIP3   OH255974   3.341   6.004   2.104 -0.4932 -0.4394 -0.1910
11520TIP3    H155975   3.407   5.966   2.162  1.2651  1.9586 -0.5341
11520TIP3    H255976   3.332   6.095   2.135 -0.1739  0.6211 -3.0548
11521TIP3   OH255977   4.227   1.622  14.237 -0.1717 -0.1089  0.8948
11521TIP3    H155978   4.246   1.715  14.226 -0.1792 -0.1993  0.1399
11521TIP3    H255979   4.138   1.620  14.271 -1.3638  0.0344 -2.1553
11522TIP3   OH255980   2.877   6.229  16.177  0.0968  0.8111 -0.1066
11522TIP3    H155981   2.848   6.222  16.268  1.6022 -0.8534  0.2714
11522TIP3    H255982   2.813   6.286  16.135 -1.1980  0.7398  1.7504
11523TIP3   OH255983   3.855   0.147  12.179  0.3999  0.6690 -0.0712
11523TIP3    H155984   3.911   0.168  12.254  0.2475  0.2478  0.1625
11523TIP3    H255985   3.766   0.157  12.213  0.3245 -0.1631 -0.0053
11524TIP3   OH255986   5.058   2.716  13.051  0.0446  0.1637 -0.0938
11524TIP3    H155987   5.033   2.808  13.062  1.2966  0.3035  1.8058
11524TIP3    H255988   5.039   2.697  12.959  0.6382  2.5854 -0.7620
11525TIP3   OH255989   4.448   6.730  17.044 -0.8066  0.5038  0.6087
11525TIP3    H155990   4.502   6.788  17.097  1.4200 -0.4871 -0.5485
11525TIP3    H255991   4.414   6.786  16.974 -0.8164  0.9884  1.0005
11526TIP3   OH255992   0.970   6.087   5.332  0.2233  0.2435 -0.5020
11526TIP3    H155993   0.947   6.041   5.251 -0.5960 -0.3974  0.0798
11526TIP3    H255994   0.956   6.022   5.401  0.3136  0.9711  0.2104
11527TIP3   OH255995   5.985   3.520   2.231  0.2911 -0.2992 -0.0974
11527TIP3    H155996   5.897   3.482   2.228 -0.0002  0.0339  3.0203
11527TIP3    H255997   6.031   3.479   2.158 -1.8648 -1.9280 -0.5989
11528TIP3   OH255998   4.843   2.990   2.059 -0.1687 -0.5096  0.0726
11528TIP3    H155999   4.858   2.980   2.153  1.5125  0.2263 -0.0973
11528TIP3    H256000   4.852   3.084   2.043  1.4999 -0.8457 -1.1241
11529TIP3   OH256001   0.713   6.579  13.402 -0.8727 -0.1734 -0.4058
11529TIP3    H156002   0.636   6.565  13.347 -1.1904  0.3480 -0.0968
11529TIP3    H256003   0.688   6.649  13.462  0.4837  1.3271 -1.5262
11530TIP3   OH256004   2.253   6.308  15.409  0.1913  0.1281  0.5702
11530TIP3    H156005   2.282   6.397  15.386  2.0501 -0.6365 -0.1700
11530TIP3    H256006   2.304   6.285  15.486  0.9877 -0.9442 -0.2674
11531TIP3   OH256007   2.555   0.345  11.749  0.3730 -0.1753 -0.3957
11531TIP3    H156008   2.495   0.404  11.704 -0.1576 -1.5154 -1.4826
11531TIP3    H256009   2.499   0.274  11.782  0.9880 -0.0662  0.9367
11532TIP3   OH256010   4.472   3.573  12.610 -0.0042 -0.0459  0.1863
11532TIP3    H156011   4.479   3.609  12.522  1.4120  0.1283  0.3699
11532TIP3    H256012   4.440   3.647  12.663 -0.6426 -0.0910 -0.1260
11533TIP3   OH256013   3.813   3.900  10.778  0.6063 -0.2293 -0.0900
11533TIP3    H156014   3.754   3.843  10.828 -0.8664  0.6814 -0.7507
11533TIP3    H256015   3.806   3.869  10.688  1.9972 -0.8221  0.0074
11534TIP3   OH256016   3.498   1.889  16.917 -0.2475  0.1881  0.6283
11534TIP3    H156017   3.577   1.873  16.866 -0.9921 -0.1175 -0.4381
11534TIP3    H256018   3.520   1.859  17.005  0.6408 -0.4078  0.2101
11535TIP3   OH256019   0.113   6.315  12.997  0.3694 -0.7211 -0.6697
11535TIP3    H156020   0.187   6.314  12.937  0.2467  1.0024 -0.8747
11535TIP3    H256021   0.047   6.367  12.953 -0.2129 -0.5570  0.3881
11536TIP3   OH256022   2.172   2.419   0.508  0.5439 -0.2364  0.3503
11536TIP3    H156023   2.175   2.375   0.423  0.7978 -0.2733  0.3766
11536TIP3    H256024   2.104   2.486   0.498  0.9814  0.1551 -0.0813
11537TIP3   OH256025   0.752   5.538   5.652 -0.0688  0.1258 -0.6099
11537TIP3    H156026   0.827   5.592   5.679  0.1253 -0.7306  0.6427
11537TIP3    H256027   0.784   5.448   5.658 -0.5312 -0.1534 -2.2317
11538TIP3   OH256028   1.224   6.301   2.767 -0.2194 -0.5644 -0.0070
11538TIP3    H156029   1.154   6.367   2.771  0.2151  0.0288 -1.9854
11538TIP3    H256030   1.177   6.218   2.755 -0.6574 -0.3761  0.3598
11539TIP3   OH256031   1.753   5.524   5.474 -0.2581 -0.4568 -0.6097
11539TIP3    H156032   1.747   5.530   5.569  1.5398 -0.8227 -0.4702
11539TIP3    H256033   1.664   5.502   5.446 -0.5543 -1.4624  1.0676
11540TIP3   OH256034   0.478   1.943   2.736  0.1293 -0.1414 -0.1343
11540TIP3    H156035   0.515   1.859   2.762 -1.9910 -0.7699  0.9407
11540TIP3    H256036   0.498   1.950   2.642  1.7464 -1.0517  0.1120
11541TIP3   OH256037   4.945   5.892  11.713 -0.3027  0.0948  0.2901
11541TIP3    H156038   4.928   5.819  11.773  0.0120 -1.1330 -1.0800
11541TIP3    H256039   4.931   5.855  11.626  2.8926  0.7931 -0.5959
11542TIP3   OH256040   2.047   4.088  15.766  0.0082 -0.5556 -0.1978
11542TIP3    H156041   1.960   4.051  15.752  0.3138 -1.2385 -0.3116
11542TIP3    H256042   2.107   4.024  15.727  0.5876 -0.3158  0.2910
11543TIP3   OH256043   0.386   5.181   4.603  0.0111  0.1486 -0.3176
11543TIP3    H156044   0.471   5.162   4.564 -0.2265 -1.0804 -0.2627
11543TIP3    H256045   0.380   5.121   4.677 -0.7992  0.4112 -0.1624
11544TIP3   OH256046   5.700   2.348  16.429  0.0788 -0.0486  0.1894
11544TIP3    H156047   5.670   2.330  16.340  2.0982 -0.4808 -0.4363
11544TIP3    H256048   5.629   2.317  16.485 -1.3228  0.4456 -1.2580
11545TIP3   OH256049   0.839   5.264   2.429  0.0844  0.0650 -0.4769
11545TIP3    H156050   0.834   5.357   2.410  0.4822  0.3431  0.7258
11545TIP3    H256051   0.926   5.238   2.398  0.4153  0.3400  0.2174
11546TIP3   OH256052   0.616   6.585   4.947 -0.6527  0.0609  0.1542
11546TIP3    H156053   0.629   6.523   5.019  1.1199  1.4887  1.1018
11546TIP3    H256054   0.689   6.568   4.887 -0.0654  1.3582  0.5078
11547TIP3   OH256055   5.153   3.915  16.260  0.1346  0.1897 -0.4392
11547TIP3    H156056   5.234   3.966  16.267 -0.0740  0.9755 -3.0427
11547TIP3    H256057   5.177   3.839  16.207  0.0180 -1.5604  1.9606
11548TIP3   OH256058   5.061   2.386   1.016 -0.6881  0.7254 -0.2837
11548TIP3    H156059   5.087   2.300   1.050 -0.9682  1.1695  1.0692
11548TIP3    H256060   5.085   2.383   0.924 -1.6590 -1.2025 -0.5056
11549TIP3   OH256061   1.947   6.783   2.028  0.1207  0.1968  0.2565
11549TIP3    H156062   1.895   6.732   2.089 -1.6796  0.8914 -0.6845
11549TIP3    H256063   1.976   6.859   2.078  0.5255 -0.3504  0.8654
11550TIP3   OH256064   4.437   4.324   2.509 -0.1345  0.2550 -0.1585
11550TIP3    H156065   4.403   4.325   2.419  0.6429 -0.5933 -0.4743
11550TIP3    H256066   4.395   4.398   2.551 -0.7071  0.5123 -1.1568
11551TIP3   OH256067   0.952   4.213   3.976 -0.1175  0.3405 -0.0044
11551TIP3    H156068   0.947   4.136   3.918  1.3053  0.5465 -0.4278
11551TIP3    H256069   0.936   4.178   4.064 -3.0857  0.1481 -0.5663
11552TIP3   OH256070   6.231   0.618   5.119 -0.2827 -0.5986  0.2333
11552TIP3    H156071   6.200   0.569   5.195  1.1027 -0.9501  0.5900
11552TIP3    H256072   6.247   0.707   5.153 -0.5242 -0.5229  0.1470
11553TIP3   OH256073   5.118   6.054  14.461  0.1818  0.1345 -0.6645
11553TIP3    H156074   5.054   6.050  14.390 -1.4759 -0.8663  0.8456
11553TIP3    H256075   5.125   6.148  14.481  0.0433  0.3472 -1.5731
11554TIP3   OH256076   0.072   1.280   0.961  0.0049 -0.1645  0.9315
11554TIP3    H156077  -0.016   1.278   0.998 -0.0708  1.7366  0.8822
11554TIP3    H256078   0.117   1.207   1.004 -2.1171 -2.3712 -0.4578
11555TIP3   OH256079   3.968   2.864   3.083  0.9038 -0.7776  0.1069
11555TIP3    H156080   3.882   2.823   3.093 -0.0191  1.1263  0.3188
11555TIP3    H256081   4.017   2.804   3.028 -0.8619 -1.4928 -0.7295
11556TIP3   OH256082   2.996   1.432  17.167 -0.3373  0.0188  0.7127
11556TIP3    H156083   3.007   1.474  17.253  0.7755  0.3015  0.4481
11556TIP3    H256084   3.040   1.492  17.106 -0.5303 -0.5169  0.0442
11557TIP3   OH256085   2.876   5.121   1.089  0.2021  0.7314 -0.0048
11557TIP3    H156086   2.915   5.208   1.100  1.6893  0.0624  0.2107
11557TIP3    H256087   2.907   5.091   1.003 -0.4922  0.5122 -0.1794
11558TIP3   OH256088   6.282   0.572   3.566  0.2188  0.6593  0.1687
11558TIP3    H156089   6.220   0.535   3.503  0.1000 -2.4082  1.9908
11558TIP3    H256090   6.241   0.559   3.651  2.3731  0.6302  1.2332
11559TIP3   OH256091   2.569   5.917  11.210 -0.4006  0.0166  0.0856
11559TIP3    H156092   2.493   5.971  11.189  0.3977  0.9980 -0.3330
11559TIP3    H256093   2.562   5.900  11.304 -1.3114 -0.1881 -0.0141
11560TIP3   OH256094   4.195   4.664   0.827  0.1236  0.2617 -0.2017
11560TIP3    H156095   4.213   4.689   0.736 -1.5213  0.4941 -0.4691
11560TIP3    H256096   4.169   4.745   0.869 -2.3836 -0.4294 -0.3554
11561TIP3   OH256097   0.376   6.475  11.101  0.1260  0.0640  0.6326
11561TIP3    H156098   0.456   6.480  11.049  0.2295  1.6920  0.9054
11561TIP3    H256099   0.399   6.516  11.185 -0.3839 -1.4275  1.5077
11562TIP3   OH256100   2.171   3.589  15.926  0.4189 -0.9924  0.0214
11562TIP3    H156101   2.193   3.681  15.944  0.1573 -1.0153  0.4861
11562TIP3    H256102   2.224   3.539  15.988 -1.8797 -0.9777  2.0717
11563TIP3   OH256103   5.751   5.143  12.061  0.3723  0.1394  0.0751
11563TIP3    H156104   5.753   5.222  12.115 -0.3148  0.0348  0.2611
11563TIP3    H256105   5.783   5.074  12.118  0.2864  0.1526  0.1417
11564TIP3   OH256106   5.109   2.797   3.014 -0.1778 -0.0333  0.5147
11564TIP3    H156107   5.133   2.845   2.935 -1.4271  0.4800  0.4401
11564TIP3    H256108   5.192   2.776   3.056  0.5708 -1.4864 -1.6305
11565TIP3   OH256109   5.770   0.702   2.295 -0.1122  0.2473 -0.1572
11565TIP3    H156110   5.776   0.719   2.201  2.5518 -0.9327 -0.2568
11565TIP3    H256111   5.846   0.747   2.332  0.5325 -1.7292  1.0111
11566TIP3   OH256112   3.552   0.735   0.679  0.2501 -0.4775 -0.3552
11566TIP3    H156113   3.508   0.694   0.753  1.6299 -0.9293  0.2147
11566TIP3    H256114   3.643   0.744   0.706  1.0818 -1.9433 -2.5413
11567TIP3   OH256115   1.713   0.304  13.095  0.2966 -0.1089  0.0841
11567TIP3    H156116   1.635   0.359  13.100 -1.1613 -2.2457  1.0653
11567TIP3    H256117   1.732   0.298  13.001  0.0501  1.4472 -0.0802
11568TIP3   OH256118   6.644   0.799  10.895 -0.4704  0.5780  0.3782
11568TIP3    H156119   6.554   0.765  10.897 -0.3610  0.2055 -0.4301
11568TIP3    H256120   6.681   0.775  10.980 -1.0070  0.3528  0.5519
11569TIP3   OH256121   6.520   1.135  10.746 -0.0476  0.1118  0.4217
11569TIP3    H156122   6.588   1.087  10.698 -0.2206 -0.5419  0.8310
11569TIP3    H256123   6.548   1.227  10.740  1.3446 -0.2410  1.3343
11570TIP3   OH256124   4.257   6.309  16.596 -0.4003 -0.3383  0.1290
11570TIP3    H156125   4.210   6.288  16.676  0.8052 -1.0466  0.6762
11570TIP3    H256126   4.262   6.404  16.594 -0.0256 -0.3280  1.1569
11571TIP3   OH256127   1.639   0.816  15.231  0.2800  0.2191 -0.2964
11571TIP3    H156128   1.684   0.862  15.302  0.6552  0.4875 -0.7037
11571TIP3    H256129   1.546   0.816  15.257  0.8867 -3.2828  2.1627
11572TIP3   OH256130   0.139   1.074   2.188  0.1124 -0.1783 -0.1937
11572TIP3    H156131   0.214   1.060   2.247 -0.2273 -0.4643  0.1707
11572TIP3    H256132   0.062   1.057   2.242 -0.2391  0.6318 -0.4282
11573TIP3   OH256133   2.773   3.268  15.258 -0.5392  0.3968  0.5686
11573TIP3    H156134   2.771   3.297  15.349 -0.8765  3.0351 -0.2333
11573TIP3    H256135   2.865   3.252  15.240 -0.5914 -1.3520  1.7106
11574TIP3   OH256136   1.588   0.113   1.917  0.5400 -0.4425  0.0628
11574TIP3    H156137   1.572   0.062   1.996  0.8713  0.1417  0.5123
11574TIP3    H256138   1.502   0.144   1.890  0.3087 -1.4274 -0.3472
11575TIP3   OH256139   4.349   3.280  15.978 -0.5069 -0.5785  0.4514
11575TIP3    H156140   4.385   3.342  15.914 -0.6394 -1.4244 -0.4500
11575TIP3    H256141   4.292   3.223  15.927 -1.7831 -0.3317  1.5849
11576TIP3   OH256142   2.751   5.148  11.917  0.0362  0.4269  0.2177
11576TIP3    H156143   2.777   5.106  11.999 -0.1553 -1.7352 -0.8059
11576TIP3    H256144   2.827   5.200  11.891  0.8025 -0.4012  0.7898
11577TIP3   OH256145   2.589   0.568   2.284 -0.4775 -0.1593  0.3886
11577TIP3    H156146   2.631   0.544   2.202 -0.7770  0.6749 -0.0116
11577TIP3    H256147   2.496   0.560   2.267 -0.5218 -0.5815  0.8324
11578TIP3   OH256148   1.170   4.986   5.478 -0.0483  0.4792  0.0200
11578TIP3    H156149   1.252   4.962   5.433 -0.1810  1.4364 -0.7466
11578TIP3    H256150   1.108   4.918   5.451  0.4566 -0.1889  0.5160
11579TIP3   OH256151   5.964   4.316   2.163 -0.1408  0.1728  0.5071
11579TIP3    H156152   5.921   4.319   2.077 -1.5859  3.0714  1.2750
11579TIP3    H256153   5.957   4.224   2.189 -3.1685 -0.0368 -0.7723
11580TIP3   OH256154   2.812   0.929  14.771  0.6884 -0.0733 -0.1369
11580TIP3    H156155   2.737   0.964  14.820  0.0910 -2.6227  0.8103
11580TIP3    H256156   2.778   0.914  14.683 -0.1711 -1.9765  0.4970
11581TIP3   OH256157   0.127   1.436   1.900  1.2990 -0.4883  0.0176
11581TIP3    H156158   0.062   1.379   1.939 -0.9940  1.5993 -0.5796
11581TIP3    H256159   0.200   1.379   1.878 -1.0319 -3.2193 -0.8670
11582TIP3   OH256160   3.424   0.404   5.664  0.5046 -0.2639 -0.4623
11582TIP3    H156161   3.469   0.373   5.585  1.6842  1.7635 -0.6227
11582TIP3    H256162   3.369   0.476   5.633 -1.6227 -1.6688  0.0182
11583TIP3   OH256163   1.429   4.722   5.225  0.5626 -0.5340 -0.2723
11583TIP3    H156164   1.462   4.664   5.157  2.3462 -0.6432  0.6611
11583TIP3    H256165   1.337   4.699   5.234  1.2665 -3.3199  0.1786
11584TIP3   OH256166   4.582   3.886   5.430  0.0036 -0.4795 -0.0345
11584TIP3    H156167   4.583   3.930   5.515 -0.9355  0.5796 -0.5554
11584TIP3    H256168   4.610   3.954   5.368  0.5217 -1.1954 -0.5927
11585TIP3   OH256169   0.482   2.182   4.336  0.3462  0.5675  0.0677
11585TIP3    H156170   0.536   2.240   4.390  0.8589 -0.8008  1.0649
11585TIP3    H256171   0.414   2.151   4.396 -0.1562  0.4388 -0.5618
11586TIP3   OH256172   2.538   4.094  10.708 -0.5668  0.4434  0.3097
11586TIP3    H156173   2.459   4.042  10.692 -0.8491  1.0587 -0.3056
11586TIP3    H256174   2.558   4.133  10.623 -0.6793  1.7859  0.8944
11587TIP3   OH256175   0.295   5.103   2.477  0.5557  0.7383  0.1177
11587TIP3    H156176   0.377   5.106   2.526  1.4974  1.1556 -1.4307
11587TIP3    H256177   0.265   5.013   2.485  0.6900  0.8071  1.4575
11588TIP3   OH256178   2.168   5.077   4.234  0.2791  0.6922  0.2297
11588TIP3    H156179   2.216   5.039   4.161  0.0536 -1.6906  1.2872
11588TIP3    H256180   2.081   5.038   4.229  0.1649  0.7452  1.5881
11589TIP3   OH256181   1.665   1.281   0.813 -0.1714  0.1325  0.6439
11589TIP3    H156182   1.581   1.236   0.810 -0.9583  1.5707  0.3580
11589TIP3    H256183   1.648   1.359   0.867  1.8189 -1.2210  3.3376
11590TIP3   OH256184   5.592   6.443  16.605 -0.3288  0.3626 -0.1765
11590TIP3    H156185   5.596   6.434  16.510  2.2978 -0.0557 -0.0689
11590TIP3    H256186   5.518   6.389  16.632  0.7746 -1.9840 -1.7199
11591TIP3   OH256187   2.822   3.372   2.153  0.3337 -0.3909 -0.3894
11591TIP3    H156188   2.898   3.374   2.095  1.4166 -0.4229  1.0259
11591TIP3    H256189   2.857   3.351   2.239 -1.2951 -0.5495  0.2595
11592TIP3   OH256190   0.989   4.661   3.135  0.3887 -0.3649  0.5703
11592TIP3    H156191   0.894   4.670   3.146 -0.3565 -0.6805 -4.3945
11592TIP3    H256192   1.007   4.571   3.163 -0.8287 -0.3935  1.3173
11593TIP3   OH256193   5.805   5.152  15.576 -0.4935  0.4250  0.1619
11593TIP3    H156194   5.853   5.153  15.494 -2.4446  0.2491 -1.0012
11593TIP3    H256195   5.758   5.235  15.578 -0.3182  0.5163  1.2054
11594TIP3   OH256196   1.115   2.886  16.415 -0.0705  0.0427  0.3503
11594TIP3    H156197   1.135   2.887  16.508  2.2412  0.9198 -0.1318
11594TIP3    H256198   1.085   2.975  16.396  0.3757  0.1412  0.0869
11595TIP3   OH256199   1.428   6.125   6.010 -0.3795  0.3918  0.2528
11595TIP3    H156200   1.419   6.085   6.097 -0.9150  1.5830  0.7514
11595TIP3    H256201   1.463   6.055   5.955 -2.3579 -1.1094  0.8485
11596TIP3   OH256202   1.193   4.207   2.154  0.0740  0.3831  0.1643
11596TIP3    H156203   1.200   4.291   2.199  1.5721  0.6734 -0.5677
11596TIP3    H256204   1.232   4.144   2.214  0.2680  0.4520  0.1125
11597TIP3   OH256205   1.895   1.771   1.862 -0.2403 -0.1904  0.6259
11597TIP3    H156206   1.850   1.784   1.778 -1.6845  1.8925  1.6714
11597TIP3    H256207   1.979   1.815   1.851 -0.0193 -0.7721 -0.0490
11598TIP3   OH256208   6.094   0.248  11.793 -0.8306  0.4750  0.0464
11598TIP3    H156209   6.084   0.158  11.762 -0.2732  0.6169 -0.5482
11598TIP3    H256210   6.006   0.286  11.785 -0.7280  0.4703 -1.2381
11599TIP3   OH256211   1.338   3.409   2.485 -0.0630  0.0961 -0.2565
11599TIP3    H156212   1.245   3.404   2.463 -0.1567 -0.6281  0.2607
11599TIP3    H256213   1.383   3.399   2.400 -0.4446 -0.4851 -0.3953
11600TIP3   OH256214   6.479   6.447   0.355 -0.1377 -0.2195 -0.5291
11600TIP3    H156215   6.394   6.406   0.342 -0.2337  0.1402 -1.0496
11600TIP3    H256216   6.499   6.432   0.447 -1.0032  0.1645 -0.2754
11601TIP3   OH256217   1.678   1.835   5.339  0.5742  0.5853  0.2966
11601TIP3    H156218   1.727   1.917   5.342  0.5156  0.6143  0.4528
11601TIP3    H256219   1.644   1.824   5.428  0.5205  0.4296  0.2569
11602TIP3   OH256220   6.328   0.294  15.347 -0.6081  0.1278  0.0873
11602TIP3    H156221   6.419   0.311  15.370 -0.8484  0.3910  0.8835
11602TIP3    H256222   6.277   0.339  15.415 -1.3503  0.9697 -1.0016
11603TIP3   OH256223   1.974   0.860   1.620  0.0963  0.7455  0.4144
11603TIP3    H156224   1.903   0.879   1.559 -2.1358  0.0241  2.6932
11603TIP3    H256225   2.032   0.801   1.573 -2.7582 -1.5980 -0.2684
11604TIP3   OH256226   5.247   5.099  13.609 -0.4627 -0.1545 -0.7243
11604TIP3    H156227   5.236   5.084  13.515  0.3458  0.9247 -0.9994
11604TIP3    H256228   5.342   5.101  13.622 -0.5680  0.7119 -0.0578
11605TIP3   OH256229   4.031   1.247  13.272  0.2295 -0.2926 -0.7809
11605TIP3    H156230   3.950   1.251  13.221 -0.1382  0.3250 -0.1676
11605TIP3    H256231   4.091   1.195  13.219 -1.0607 -2.0580 -0.5551
11606TIP3   OH256232   4.244   0.657   2.305 -0.0895 -0.2712 -0.0166
11606TIP3    H156233   4.217   0.652   2.213 -1.2427  1.8846  0.1591
11606TIP3    H256234   4.311   0.589   2.314  0.6034 -0.0194 -2.6377
11607TIP3   OH256235   5.500   6.568   0.606  0.3293 -0.0430 -0.0776
11607TIP3    H156236   5.573   6.629   0.599 -0.6830  1.2954  0.8167
11607TIP3    H256237   5.541   6.481   0.598  1.7038  0.7352 -1.9097
11608TIP3   OH256238   0.101   4.053  16.602  0.6227  0.4724 -0.1786
11608TIP3    H156239   0.150   4.133  16.584  1.7450 -0.2059 -0.1501
11608TIP3    H256240   0.013   4.084  16.625  0.9049  1.6660 -0.6610
11609TIP3   OH256241   3.047   4.153  12.709  0.6109  0.3705 -0.1064
11609TIP3    H156242   3.067   4.229  12.654 -0.2127 -1.1636 -2.6072
11609TIP3    H256243   2.993   4.188  12.780  1.3469  2.3245 -0.4866
11610TIP3   OH256244   3.718   5.889   0.733 -0.0087 -0.0100  0.6784
11610TIP3    H156245   3.787   5.937   0.687 -1.0994  1.5177  0.5841
11610TIP3    H256246   3.724   5.918   0.824  0.8692 -1.5329  1.1227
11611TIP3   OH256247   3.390   5.120  15.353  0.1967 -0.0319 -0.1151
11611TIP3    H156248   3.379   5.065  15.275  0.3153  0.6658 -0.6286
11611TIP3    H256249   3.302   5.151  15.373  0.3582  0.9451 -0.8369
11612TIP3   OH256250   0.220   2.156  14.618 -0.0486  0.4567  0.4821
11612TIP3    H156251   0.274   2.078  14.606 -0.8696  0.0097 -0.4356
11612TIP3    H256252   0.130   2.123  14.610 -0.4011  1.4563  0.3520
11613TIP3   OH256253   1.745   1.395  12.752 -0.2156  0.1965  0.4304
11613TIP3    H156254   1.833   1.405  12.717 -1.2990 -1.5527 -2.9905
11613TIP3    H256255   1.709   1.484  12.751  0.4503  0.4696 -1.1383
11614TIP3   OH256256   2.388   5.803  14.439 -0.1539  0.1845 -0.9741
11614TIP3    H156257   2.473   5.804  14.394  0.9998  1.5068  1.1695
11614TIP3    H256258   2.376   5.893  14.470 -0.8719 -0.6971  1.4168
11615TIP3   OH256259   5.910   4.377  13.327  0.1437  0.1165  0.2074
11615TIP3    H156260   6.000   4.346  13.333 -0.5077 -1.4130  2.3386
11615TIP3    H256261   5.862   4.305  13.286 -0.2710  0.6078 -0.1815
11616TIP3   OH256262   1.941   0.997   0.073  0.7062  0.1100  0.4305
11616TIP3    H156263   1.970   0.911   0.104 -0.0542 -0.0188  0.7806
11616TIP3    H256264   1.847   0.998   0.089  0.2933  0.0506 -1.8650
11617TIP3   OH256265   5.648   6.073  14.399 -0.2150  0.3845 -0.0525
11617TIP3    H156266   5.707   6.129  14.349 -1.1249  1.0691 -0.3722
11617TIP3    H256267   5.601   6.022  14.333 -0.3645  0.2187  0.1795
11618TIP3   OH256268   0.160   6.426   1.845  0.0007 -0.0890 -0.4675
11618TIP3    H156269   0.162   6.520   1.863  1.4992 -0.1110 -0.4559
11618TIP3    H256270   0.188   6.419   1.754  0.1150 -0.5499 -0.3936
11619TIP3   OH256271   3.385   3.312  14.908 -0.1675  0.2292  1.4360
11619TIP3    H156272   3.444   3.310  14.983  0.3383  1.8090  1.1005
11619TIP3    H256273   3.405   3.395  14.864  0.6070 -1.3583 -1.3016
11620TIP3   OH256274   6.491   4.654  15.683  0.3423  0.5251 -0.1961
11620TIP3    H156275   6.405   4.661  15.724  0.0204 -1.5525 -0.4398
11620TIP3    H256276   6.477   4.595  15.609  2.5392 -2.2829  1.4986
11621TIP3   OH256277   3.163   2.351   1.480 -0.3170 -0.3425  0.1344
11621TIP3    H156278   3.148   2.434   1.434 -2.3020 -0.4151  0.6046
11621TIP3    H256279   3.076   2.315   1.492  0.6188 -3.1548 -1.2113
11622TIP3   OH256280   0.690   2.917  13.708  0.3338  0.2871 -0.3263
11622TIP3    H156281   0.733   2.892  13.790 -0.2976  2.3539  0.6477
11622TIP3    H256282   0.687   3.012  13.709 -1.1090  0.3012 -2.0262
11623TIP3   OH256283   2.306   5.607   1.484 -0.5180 -0.0926 -0.3398
11623TIP3    H156284   2.348   5.629   1.401  1.2923 -0.6470  0.4130
11623TIP3    H256285   2.305   5.689   1.533 -0.0265 -0.1527 -0.2314
11624TIP3   OH256286   1.563   3.102   0.890  0.1185  0.3672 -0.3576
11624TIP3    H156287   1.579   3.196   0.893  0.4906  0.4067 -2.7076
11624TIP3    H256288   1.484   3.093   0.837 -1.1274 -0.5311  1.6178
11625TIP3   OH256289   0.310   3.735   5.359  0.5427 -0.7162 -0.7103
11625TIP3    H156290   0.360   3.799   5.409 -0.3465  1.5060 -2.5615
11625TIP3    H256291   0.244   3.703   5.419  1.7259 -0.7778  0.5802
11626TIP3   OH256292   0.221   6.297  11.246  0.3458 -0.3313 -0.2485
11626TIP3    H156293   0.273   6.359  11.194  0.4148 -0.3637 -0.2186
11626TIP3    H256294   0.258   6.304  11.334 -0.1585  0.1501 -0.0753
11627TIP3   OH256295   1.364   4.931  14.334  0.2127 -0.2082 -0.3796
11627TIP3    H156296   1.406   5.006  14.376  0.5557 -0.1480 -0.8201
11627TIP3    H256297   1.434   4.891  14.282  0.7902 -2.5175  2.0716
11628TIP3   OH256298   4.304   2.465  10.985  0.3313 -1.0678 -0.1294
11628TIP3    H156299   4.397   2.484  10.971  0.3360 -1.5967 -0.8528
11628TIP3    H256300   4.268   2.546  11.021  0.9989 -0.7482 -0.1736
11629TIP3   OH256301   2.394   6.682   4.236  0.9585 -0.1107 -0.0653
11629TIP3    H156302   2.404   6.747   4.168 -0.1776 -0.9715 -1.0770
11629TIP3    H256303   2.454   6.710   4.306 -0.1072  2.4474 -0.1305
11630TIP3   OH256304   0.872   1.474   2.225 -0.3246 -0.5277  0.0071
11630TIP3    H156305   0.803   1.535   2.253 -2.1153 -1.9603 -1.1967
11630TIP3    H256306   0.846   1.447   2.137  1.3815 -1.7035 -0.1660
11631TIP3   OH256307   3.509   4.552   5.641 -0.9390 -0.0690  0.3715
11631TIP3    H156308   3.434   4.530   5.585  0.0039 -1.0365 -0.5504
11631TIP3    H256309   3.478   4.537   5.730 -1.9885  0.0030  0.0270
11632TIP3   OH256310   5.283   1.252  17.020  0.6517 -0.3058  0.2565
11632TIP3    H156311   5.218   1.321  17.038  0.0185 -1.0102  0.7099
11632TIP3    H256312   5.353   1.268  17.084  1.0954  0.6610 -0.4501
11633TIP3   OH256313   6.195   4.329   1.089  0.6075 -0.6403  0.2985
11633TIP3    H156314   6.276   4.280   1.085  1.4469  0.8278 -1.8687
11633TIP3    H256315   6.222   4.421   1.081 -1.1119  0.0066  1.5058
11634TIP3   OH256316   5.799   5.280  11.053  0.0608  0.0526 -0.0398
11634TIP3    H156317   5.736   5.245  11.116  0.4756  1.1718  1.0433
11634TIP3    H256318   5.759   5.362  11.022 -0.4532 -0.8426 -1.7714
11635TIP3   OH256319   2.027   4.940  16.909  0.1499  0.1759 -0.0758
11635TIP3    H156320   1.955   4.903  16.858  1.2960 -0.8970 -0.9651
11635TIP3    H256321   2.073   4.997  16.848  0.4744  0.2961  0.2776
11636TIP3   OH256322   3.885   4.961  14.822 -0.5759  0.0591 -0.2044
11636TIP3    H156323   3.941   5.011  14.763 -0.1624 -1.1457 -0.8390
11636TIP3    H256324   3.901   5.000  14.908  0.9560 -0.0219 -0.4391
11637TIP3   OH256325   6.516   5.396  12.968 -1.2545 -0.2100  0.2606
11637TIP3    H156326   6.487   5.305  12.970 -0.5842 -0.4180  0.6070
11637TIP3    H256327   6.437   5.446  12.946 -1.6228 -0.8713  0.0737
11638TIP3   OH256328   4.024   0.441  17.159  0.7744 -0.9160  0.5071
11638TIP3    H156329   4.106   0.392  17.167  0.6393 -1.4176 -1.0640
11638TIP3    H256330   4.037   0.518  17.213  2.6138 -0.5707 -0.3915
11639TIP3   OH256331   2.923   1.598   5.766 -0.7791  0.2189 -0.4285
11639TIP3    H156332   2.986   1.572   5.833 -1.2385 -0.1325 -0.1291
11639TIP3    H256333   2.856   1.530   5.769 -1.1159  0.5316 -0.8205
11640TIP3   OH256334   2.375   5.685   1.896 -0.8168 -0.8766  0.2135
11640TIP3    H156335   2.452   5.644   1.934 -0.1401 -0.2920 -0.5001
11640TIP3    H256336   2.341   5.620   1.834 -0.2351 -0.6918 -0.3028
11641TIP3   OH256337   6.228   1.483  12.352 -0.2181 -0.1287 -0.1388
11641TIP3    H156338   6.203   1.390  12.358 -0.8902  0.0678  0.2074
11641TIP3    H256339   6.161   1.521  12.295  1.0956 -0.2198 -1.7740
11642TIP3   OH256340   1.048   3.945   3.958 -0.0419 -0.6678  0.1153
11642TIP3    H156341   0.998   3.885   4.013 -1.5489 -0.3810 -0.9253
11642TIP3    H256342   1.096   3.889   3.897  0.0305 -0.8911  0.3787
11643TIP3   OH256343   2.301   5.647  15.180 -0.0150 -0.2179  0.1457
11643TIP3    H156344   2.356   5.709  15.229  1.1119 -0.1682 -1.1496
11643TIP3    H256345   2.313   5.671  15.088 -3.0347  0.4276 -0.1219
11644TIP3   OH256346   4.789   3.620  13.726  0.4510  0.2128 -0.3634
11644TIP3    H156347   4.702   3.579  13.734  0.2312  0.6161 -0.7082
11644TIP3    H256348   4.785   3.669  13.644  1.1753 -0.1681 -0.6291
11645TIP3   OH256349   3.489   3.982   3.986  0.1646 -0.1154  0.2880
11645TIP3    H156350   3.411   3.927   3.986 -0.6144  0.9612  0.4881
11645TIP3    H256351   3.490   4.021   4.074  0.0223  1.1173 -0.2505
11646TIP3   OH256352   0.146   1.762   3.683 -0.3479 -0.2820  0.3894
11646TIP3    H156353   0.167   1.763   3.777  0.4697 -2.4590  0.2687
11646TIP3    H256354   0.228   1.786   3.640 -0.6880  0.5881  0.2261
11647TIP3   OH256355   1.659   6.158   2.541 -0.7322  0.5153 -0.4167
11647TIP3    H156356   1.590   6.224   2.549 -0.5744  0.6977 -0.5322
11647TIP3    H256357   1.626   6.083   2.589 -1.0180  0.5952 -0.4836
11648TIP3   OH256358   4.047   1.248   2.268  0.2065  0.4046 -0.2095
11648TIP3    H156359   4.108   1.215   2.334  0.3257  2.9333  1.0418
11648TIP3    H256360   4.031   1.174   2.210  1.2088 -1.4895  1.8457
11649TIP3   OH256361   5.602   5.849  11.820  0.0747  0.1418  0.2953
11649TIP3    H156362   5.579   5.816  11.733 -0.3489 -0.2377  0.5476
11649TIP3    H256363   5.518   5.868  11.862  0.2383 -0.5353  0.9456
11650TIP3   OH256364   2.193   2.523  13.493 -0.8204 -0.0487 -0.9177
11650TIP3    H156365   2.226   2.604  13.454  0.4831  0.0680  0.3426
11650TIP3    H256366   2.100   2.539  13.508 -0.1620  2.0864  1.3075
11651TIP3   OH256367   2.646   0.271  16.943  0.0866  0.4041  0.1458
11651TIP3    H156368   2.571   0.296  16.889  0.0470  1.0507  0.4997
11651TIP3    H256369   2.712   0.338  16.925  0.8217 -0.5144 -0.6509
11652TIP3   OH256370   3.070   5.016   5.174  0.0960 -0.1698 -0.0489
11652TIP3    H156371   3.002   5.081   5.195  0.3710 -0.2481  1.1054
11652TIP3    H256372   3.149   5.068   5.162  0.3503 -0.2929  1.0305
11653TIP3   OH256373   0.770   0.683   2.375  0.0450  1.0253 -0.0128
11653TIP3    H156374   0.699   0.713   2.433  0.0418  0.7902  0.1051
11653TIP3    H256375   0.850   0.699   2.425  0.0277  0.6098  0.1493
11654TIP3   OH256376   1.211   4.656  12.846 -0.2060  0.6911  0.6255
11654TIP3    H156377   1.123   4.670  12.882 -1.6165 -2.1839 -1.5149
11654TIP3    H256378   1.206   4.571  12.801  2.8238  1.9040 -2.2124
11655TIP3   OH256379   1.455   6.282   2.304  0.4054  0.1927 -0.3995
11655TIP3    H156380   1.445   6.314   2.394 -1.1327 -1.8946  0.2045
11655TIP3    H256381   1.433   6.189   2.309 -0.3290  0.1825 -3.0540
11656TIP3   OH256382   3.288   2.250  14.189  0.4557  0.1595  0.5978
11656TIP3    H156383   3.352   2.222  14.255  0.6869 -0.3549  0.1588
11656TIP3    H256384   3.204   2.245  14.234  0.6073 -0.2183  0.8497
11657TIP3   OH256385   2.466   4.272   2.726 -0.1247  0.2214  0.0562
11657TIP3    H156386   2.477   4.247   2.817  1.5643 -0.6853 -0.3855
11657TIP3    H256387   2.552   4.262   2.687 -1.2877 -1.6584 -2.1935
11658TIP3   OH256388   2.996   5.684   2.975  0.3487 -0.1867  0.2991
11658TIP3    H156389   2.998   5.620   3.046 -2.4752 -0.2761  0.3557
11658TIP3    H256390   3.080   5.730   2.981  1.8717 -2.9556  1.0879
11659TIP3   OH256391   2.088   6.093   2.116  0.1609 -0.3787  0.2161
11659TIP3    H156392   2.129   6.021   2.067 -0.7920 -0.8366  0.0811
11659TIP3    H256393   2.001   6.102   2.077  1.0943  2.3830 -1.3031
11660TIP3   OH256394   4.650   1.715   5.782 -0.2201 -0.3952 -0.6638
11660TIP3    H156395   4.686   1.659   5.713 -2.0072 -0.6589 -1.4053
11660TIP3    H256396   4.581   1.663   5.822  0.3068  0.0433  0.8551
11661TIP3   OH256397   5.147   1.689  13.142 -0.3781  0.3445  0.2314
11661TIP3    H156398   5.079   1.692  13.210 -0.6081 -0.2102  0.0329
11661TIP3    H256399   5.149   1.597  13.115 -0.7655  0.6871 -0.9991
11662TIP3   OH256400   2.174   0.229  16.340 -0.2408  0.7022 -0.3483
11662TIP3    H156401   2.217   0.266  16.263  0.4734 -0.9846 -0.7867
11662TIP3    H256402   2.215   0.274  16.414 -0.6741  2.0703 -0.9396
11663TIP3   OH256403   1.104   4.190  12.889 -0.1609 -0.1332  0.0729
11663TIP3    H156404   1.081   4.097  12.889  0.8550 -0.4164  1.9879
11663TIP3    H256405   1.190   4.193  12.930 -0.7173  1.7714  1.1808
11664TIP3   OH256406   5.046   3.193  12.452  1.1967 -0.0235 -0.3112
11664TIP3    H156407   5.092   3.181  12.535  2.1396 -0.7169 -0.9239
11664TIP3    H256408   4.969   3.246  12.474  2.3026  1.1834  0.7334
11665TIP3   OH256409   0.451   5.109  14.639  0.6383  0.2327 -0.2226
11665TIP3    H156410   0.392   5.144  14.571 -0.8769 -0.5347  0.6804
11665TIP3    H256411   0.398   5.108  14.718  1.8366 -0.6453  0.5752
11666TIP3   OH256412   4.412   0.582   3.949  0.3109 -1.0083 -0.3556
11666TIP3    H156413   4.354   0.563   4.023  1.3858  0.0358  0.7728
11666TIP3    H256414   4.494   0.538   3.971  0.8183 -0.2125 -0.6637
11667TIP3   OH256415   1.948   1.516  17.218  0.5712  0.0392 -0.1766
11667TIP3    H156416   2.028   1.541  17.171  0.0373  0.5990 -0.7962
11667TIP3    H256417   1.968   1.533  17.310  1.3016 -0.1875 -0.2889
11668TIP3   OH256418   3.580   1.415   2.026 -0.0849  0.4783  0.3861
11668TIP3    H156419   3.653   1.457   1.981  0.1791  1.2233  1.5065
11668TIP3    H256420   3.622   1.359   2.092 -0.3831 -2.1884 -1.5788
11669TIP3   OH256421   5.352   3.079  13.398 -0.2271  0.0507 -1.2136
11669TIP3    H156422   5.259   3.055  13.399  0.0173 -0.9120  0.0506
11669TIP3    H256423   5.381   3.060  13.309 -0.9683 -0.7391 -1.2975
11670TIP3   OH256424   4.163   3.835  10.522 -0.6365  0.4680 -0.1765
11670TIP3    H156425   4.216   3.913  10.505 -0.2195  0.2481  0.0732
11670TIP3    H256426   4.079   3.853  10.482 -1.0670  1.7035  1.2470
11671TIP3   OH256427   0.102   2.867   1.587 -0.0126  0.1684 -0.5550
11671TIP3    H156428   0.171   2.802   1.575  0.0888  0.2331 -0.3511
11671TIP3    H256429   0.147   2.951   1.575  0.6867  0.3591  2.6888
11672TIP3   OH256430   1.622   1.212   6.315 -1.1127  0.1189 -0.3947
11672TIP3    H156431   1.664   1.141   6.364 -0.2902  0.4584 -0.6082
11672TIP3    H256432   1.676   1.223   6.237 -0.9331  1.3391 -0.1030
11673TIP3   OH256433   6.722   3.361  16.348  0.4734  0.0599  0.0975
11673TIP3    H156434   6.774   3.417  16.290  2.2422  0.0147  1.5767
11673TIP3    H256435   6.759   3.273  16.335 -0.8853 -0.4216 -0.6392
11674TIP3   OH256436   6.418   0.841  12.422  0.2847 -0.3980 -0.2177
11674TIP3    H156437   6.502   0.797  12.435 -0.0749 -1.0803 -0.2100
11674TIP3    H256438   6.383   0.852  12.511 -0.4979 -1.7973 -0.3499
11675TIP3   OH256439   5.078   5.685  12.270 -0.5065  0.0811 -0.6564
11675TIP3    H156440   5.060   5.595  12.295 -1.1022 -0.1157 -1.7597
11675TIP3    H256441   5.013   5.737  12.318  0.3767  0.0305  0.6439
11676TIP3   OH256442   4.037   3.947  11.189  0.2335  0.2820 -0.0838
11676TIP3    H156443   4.020   4.023  11.243  0.8390  1.3760 -1.4101
11676TIP3    H256444   4.120   3.965  11.146 -0.9190  0.1027 -2.4754
11677TIP3   OH256445   4.841   6.546  11.962 -0.4190  0.5686 -0.6917
11677TIP3    H156446   4.783   6.497  11.904  0.0844  1.3890 -1.8837
11677TIP3    H256447   4.795   6.628  11.979  0.0542  0.8965 -1.0134
11678TIP3   OH256448   3.201   0.457  12.679  0.3084  0.2486  0.1293
11678TIP3    H156449   3.207   0.362  12.686  2.4841  0.4551  1.6132
11678TIP3    H256450   3.290   0.485  12.657 -0.4203  1.9242 -0.8171
11679TIP3   OH256451   1.993   2.002  11.224 -0.2284 -0.2707 -0.2737
11679TIP3    H156452   1.919   2.044  11.180 -0.3153 -1.6170 -1.4195
11679TIP3    H256453   2.014   1.926  11.170  1.1648 -0.6328  0.7483
11680TIP3   OH256454   5.705   5.368   0.831 -0.2178  0.1228 -0.1614
11680TIP3    H156455   5.707   5.435   0.764 -2.3552 -0.9592 -1.3427
11680TIP3    H256456   5.730   5.287   0.785 -1.0586 -0.5138  0.4880
11681TIP3   OH256457   1.280   0.046   3.981 -0.3725  0.5264 -0.5167
11681TIP3    H156458   1.250   0.129   3.945  1.4199  0.2960 -2.6201
11681TIP3    H256459   1.215  -0.018   3.951 -0.4689  0.7920 -0.8674
11682TIP3   OH256460   2.093   0.804  16.051  0.7319 -0.5311 -0.2737
11682TIP3    H156461   2.166   0.745  16.070  1.5382  1.0202  1.6032
11682TIP3    H256462   2.035   0.796  16.126  1.3602  1.8094  0.5031
11683TIP3   OH256463   6.510   3.899   2.211  0.4446 -0.0221  0.1710
11683TIP3    H156464   6.603   3.922   2.208  0.6374 -0.7398  0.5434
11683TIP3    H256465   6.505   3.828   2.275 -0.5767  1.0097  1.2682
11684TIP3   OH256466   0.572   5.763  16.031 -0.1321 -0.1724 -0.7534
11684TIP3    H156467   0.491   5.747  15.983 -0.0213  0.7956 -1.2712
11684TIP3    H256468   0.632   5.800  15.966  0.4114  0.0057 -0.1546
11685TIP3   OH256469   5.264   4.383  16.552 -0.1697 -0.2702 -0.1329
11685TIP3    H156470   5.347   4.422  16.580 -0.5250  0.4314 -0.0500
11685TIP3    H256471   5.266   4.389  16.456 -1.3549  2.3489 -0.0422
11686TIP3   OH256472   4.935   5.157   1.348  0.2841  0.7823  0.6081
11686TIP3    H156473   4.898   5.082   1.301 -0.5323  1.1631  0.6293
11686TIP3    H256474   4.950   5.125   1.437 -0.6499  0.8134  0.7870
11687TIP3   OH256475   6.732   0.029   0.244 -0.0123 -0.1592  0.0816
11687TIP3    H156476   6.795   0.096   0.218  1.3495 -1.3135  0.3573
11687TIP3    H256477   6.646   0.069   0.226  0.8060  0.8956 -1.6262
11688TIP3   OH256478   0.186   5.985  11.852  0.0736 -0.2203  0.0229
11688TIP3    H156479   0.232   5.984  11.768 -2.2025  2.0377 -1.2978
11688TIP3    H256480   0.254   6.005  11.916  1.2384  1.5037 -1.7105
11689TIP3   OH256481   5.081   4.692  15.785 -0.2129 -0.4756  0.2357
11689TIP3    H156482   5.150   4.721  15.725  0.1495  0.2641  0.9949
11689TIP3    H256483   5.004   4.681  15.729  0.1000  0.2853 -0.3581
11690TIP3   OH256484   1.812   4.545  11.072 -0.3572  0.2338 -0.5887
11690TIP3    H156485   1.894   4.594  11.079  0.1483 -0.4300 -1.7116
11690TIP3    H256486   1.765   4.588  11.000  0.2983 -1.2206 -1.9014
11691TIP3   OH256487   2.858   2.225  11.400  0.3037  0.5890 -0.3409
11691TIP3    H156488   2.921   2.296  11.407  0.2674  0.8221 -1.9693
11691TIP3    H256489   2.795   2.256  11.335 -0.4970 -0.3616 -0.0315
11692TIP3   OH256490   1.016   0.177  12.066  0.2227  0.8180 -0.4586
11692TIP3    H156491   1.036   0.263  12.103  0.3160  0.7106 -0.2656
11692TIP3    H256492   0.926   0.159  12.095  0.8283  0.0559  0.9692
11693TIP3   OH256493   4.450   2.075   3.527  0.1337 -0.0702 -0.0476
11693TIP3    H156494   4.400   2.157   3.524  1.9097  1.1645  2.2740
11693TIP3    H256495   4.400   2.020   3.587  0.7626  0.6419  1.1575
11694TIP3   OH256496   4.577   2.859  13.214 -0.2402  0.3273  0.2878
11694TIP3    H156497   4.624   2.897  13.140 -1.0838  0.4139 -0.2088
11694TIP3    H256498   4.487   2.889  13.204 -0.7022 -0.9422  0.4656
11695TIP3   OH256499   6.424   1.481   5.054 -0.2468  0.3401  0.3215
11695TIP3    H156500   6.404   1.391   5.029 -2.7531  0.5543  1.3979
11695TIP3    H256501   6.472   1.473   5.137 -0.4609 -0.0125  0.4121
11696TIP3   OH256502   1.415   5.164   3.654 -0.2115  0.0320  0.2748
11696TIP3    H156503   1.383   5.075   3.640  1.4859 -0.6819  0.7926
11696TIP3    H256504   1.483   5.177   3.588  0.7964  0.2764  1.3332
11697TIP3   OH256505   4.191   0.025   1.635 -0.6780 -0.2209  0.4792
11697TIP3    H156506   4.205  -0.064   1.667  0.5717  0.7605  2.7607
11697TIP3    H256507   4.105   0.022   1.594  0.0585 -2.8920 -1.0309
11698TIP3   OH256508   2.071   0.531   5.655 -0.2681  0.6629 -0.4941
11698TIP3    H156509   2.116   0.495   5.731 -0.6148  0.3479 -0.4364
11698TIP3    H256510   2.068   0.460   5.592  0.3984  1.0545 -0.9745
11699TIP3   OH256511   5.900   6.481  11.915  0.6626 -0.1043 -0.1292
11699TIP3    H156512   5.872   6.532  11.991  0.4405 -0.1145 -0.2015
11699TIP3    H256513   5.833   6.412  11.907  1.1376 -0.5976  0.1591
11700TIP3   OH256514   5.749   0.826  11.258  1.0943 -0.4782  0.0271
11700TIP3    H156515   5.844   0.828  11.265  1.2553 -0.4706 -1.8051
11700TIP3    H256516   5.721   0.916  11.275  1.0951 -1.1515  3.9839
11701TIP3   OH256517   3.460   0.068  11.761  0.0070  0.1388 -0.8364
11701TIP3    H156518   3.493   0.153  11.732  0.3130  0.6765  0.9865
11701TIP3    H256519   3.524   0.004  11.730  0.3342  0.6853 -1.2942
11702TIP3   OH256520   0.550   4.916   2.296 -0.0084 -0.2634 -0.6038
11702TIP3    H156521   0.475   4.878   2.342 -0.2440 -0.2270 -0.9516
11702TIP3    H256522   0.520   5.002   2.267  0.5188  0.1835  0.1584
11703TIP3   OH256523   0.259   3.971   5.043  0.2421  0.1378 -0.0038
11703TIP3    H156524   0.183   3.981   4.985  0.8001 -0.4825 -0.8431
11703TIP3    H256525   0.242   4.033   5.115 -0.5559  0.7458 -0.7043
11704TIP3   OH256526   2.109   0.337  16.740  0.3735  0.5414 -0.6950
11704TIP3    H156527   2.073   0.367  16.657 -1.9627 -1.1688 -0.3439
11704TIP3    H256528   2.037   0.346  16.802  1.9402  1.3221  1.0388
11705TIP3   OH256529   6.627   4.459  12.922 -0.2467  0.0953 -0.1648
11705TIP3    H156530   6.686   4.398  12.967 -0.8543 -1.0188 -0.8583
11705TIP3    H256531   6.598   4.411  12.844 -2.0079  0.6635  0.1228
11706TIP3   OH256532   4.202   1.339   4.226 -0.4642  0.6763  0.3146
11706TIP3    H156533   4.128   1.377   4.178 -1.2451  0.1633  1.0981
11706TIP3    H256534   4.195   1.245   4.211  0.4865  0.6904 -0.2397
11707TIP3   OH256535   4.481   1.405   1.636  0.1168  0.5756  0.3770
11707TIP3    H156536   4.522   1.357   1.565  1.1117  2.8812 -0.6803
11707TIP3    H256537   4.387   1.400   1.618  0.1024 -2.0573  1.0481
11708TIP3   OH256538   0.976   3.612   4.314 -0.0973  0.3521 -0.0666
11708TIP3    H156539   0.962   3.644   4.403 -1.4632 -1.3904  0.3664
11708TIP3    H256540   1.029   3.532   4.325 -0.0846  0.2531 -0.8387
11709TIP3   OH256541   2.045   0.300   1.246  0.4502 -0.1697 -0.5115
11709TIP3    H156542   1.956   0.287   1.214  1.3845 -0.1906 -3.2418
11709TIP3    H256543   2.079   0.373   1.193  3.0314 -2.0946 -1.5897
11710TIP3   OH256544   2.825   5.040  15.873  0.0507  0.5256  0.4105
11710TIP3    H156545   2.757   4.973  15.880 -0.7329  1.5077  2.6754
11710TIP3    H256546   2.894   4.999  15.821 -0.0150 -2.4126  2.4941
11711TIP3   OH256547   4.430   0.084  12.559 -0.0280  0.1944  0.3342
11711TIP3    H156548   4.414   0.100  12.652  2.4711  1.9948  0.4869
11711TIP3    H256549   4.510   0.031  12.557  1.1287  1.9659 -0.8631
11712TIP3   OH256550   2.821   3.618   1.822  0.0074  0.4115  0.8997
11712TIP3    H156551   2.800   3.678   1.894  0.8767  1.2527  0.4776
11712TIP3    H256552   2.890   3.664   1.773  0.5645 -0.8747  0.4726
11713TIP3   OH256553   0.878   0.122  12.370 -0.0847 -0.5371 -0.1651
11713TIP3    H156554   0.860   0.054  12.305  2.7173 -0.0238 -1.5561
11713TIP3    H256555   0.967   0.104  12.400 -0.3015  0.9289  1.4602
11714TIP3   OH256556   3.747   6.102  14.013  0.3206 -0.7417 -0.0925
11714TIP3    H156557   3.755   6.146  14.098  1.1106 -0.6626 -0.1987
11714TIP3    H256558   3.815   6.035  14.016 -0.9719 -2.0531  0.1220
11715TIP3   OH256559   4.904   0.567   3.027 -0.3522  0.6075  0.2455
11715TIP3    H156560   4.846   0.613   3.088 -1.0894 -0.9135  0.7160
11715TIP3    H256561   4.968   0.524   3.084  0.8652  1.7705 -0.2404
11716TIP3   OH256562   3.892   4.995   4.200  0.1845 -0.1480  0.5143
11716TIP3    H156563   3.813   5.033   4.239 -0.0600  0.2328 -0.3363
11716TIP3    H256564   3.903   4.912   4.246 -0.6458 -0.1508  0.7236
11717TIP3   OH256565   0.709   1.660  15.644 -0.3469  0.7616 -0.4893
11717TIP3    H156566   0.635   1.674  15.703 -0.3795  0.8398 -0.5486
11717TIP3    H256567   0.669   1.642  15.559 -0.3914 -2.5852  0.1634
11718TIP3   OH256568   1.212   1.019  13.432  0.1920  0.5293  0.4025
11718TIP3    H156569   1.139   0.968  13.397 -1.3378  1.3370  2.2886
11718TIP3    H256570   1.263   1.045  13.355 -1.0662 -0.7031 -0.8756
11719TIP3   OH256571   0.664   3.442  16.069 -0.0577 -0.4961 -0.1429
11719TIP3    H156572   0.679   3.537  16.078 -0.2913 -0.2434 -2.1931
11719TIP3    H256573   0.571   3.431  16.089  0.3290 -0.5261  1.6856
11720TIP3   OH256574   5.172   6.098   4.344  0.0888 -0.1724  0.3095
11720TIP3    H156575   5.131   6.178   4.375 -1.8519 -0.7746 -0.6001
11720TIP3    H256576   5.217   6.062   4.420  0.2806  1.3387  0.9246
11721TIP3   OH256577   4.946   2.356   1.917 -0.0396 -0.4252  0.1047
11721TIP3    H156578   5.001   2.374   1.993  1.1415 -1.1721 -0.5669
11721TIP3    H256579   4.949   2.436   1.865  3.6518 -1.7768 -1.9154
11722TIP3   OH256580   0.872   1.619  15.164  0.7910  0.2165 -0.5301
11722TIP3    H156581   0.805   1.636  15.098  0.2965  2.0675  0.4176
11722TIP3    H256582   0.858   1.529  15.190 -1.6128  0.7139 -0.0292
11723TIP3   OH256583   3.508   3.310   5.180 -0.2013  0.0209 -0.0968
11723TIP3    H156584   3.547   3.229   5.147  0.2231  0.1636  0.0614
11723TIP3    H256585   3.430   3.322   5.125  1.4344  1.1716 -2.2448
11724TIP3   OH256586   3.740   5.497   0.162 -0.2721  0.1732  0.2065
11724TIP3    H156587   3.750   5.586   0.195 -3.2932  0.5346  0.3395
11724TIP3    H256588   3.736   5.507   0.067  3.5609 -0.3432 -0.0960
11725TIP3   OH256589   1.952   0.760   5.759 -0.0117 -0.2388 -0.0845
11725TIP3    H156590   1.901   0.699   5.812  0.4218 -1.6030 -1.1947
11725TIP3    H256591   2.007   0.704   5.704  0.5772  1.1600 -0.9571
11726TIP3   OH256592   6.041   4.618   0.484 -0.2437 -1.1028 -0.2094
11726TIP3    H156593   6.035   4.711   0.503  0.5805 -0.9942 -0.4668
11726TIP3    H256594   6.134   4.598   0.490 -0.1009 -1.3736 -2.6569
11727TIP3   OH256595   4.850   2.732  11.300 -0.3301 -0.7917 -0.3530
11727TIP3    H156596   4.807   2.781  11.230 -0.9792 -0.2924  0.3827
11727TIP3    H256597   4.900   2.798  11.348 -1.7090 -0.7086  1.0197
11728TIP3   OH256598   0.048   1.162  13.596  0.3788 -0.1502 -0.5072
11728TIP3    H156599   0.010   1.224  13.658  1.2311  0.5671 -0.6901
11728TIP3    H256600   0.119   1.210  13.555 -1.5199  0.1141 -3.6211
11729TIP3   OH256601   2.635   1.585   6.548  0.3061  0.6165 -0.0517
11729TIP3    H156602   2.574   1.522   6.512  2.3406 -0.8539 -1.0087
11729TIP3    H256603   2.583   1.664   6.561 -1.7661 -0.5766 -0.8918
11730TIP3   OH256604   4.255   2.916   0.627  0.0665 -0.6979 -0.2341
11730TIP3    H156605   4.345   2.928   0.597  0.3405  0.4026  0.9865
11730TIP3    H256606   4.203   2.975   0.573  0.0396 -1.4937 -1.0884
11731TIP3   OH256607   4.438   6.330   0.107  0.0489  0.0160  0.6258
11731TIP3    H156608   4.434   6.368   0.019  1.6420  0.9011  0.9164
11731TIP3    H256609   4.524   6.357   0.141  0.7001 -2.7631  1.3444
11732TIP3   OH256610   3.981   3.946  17.131  0.1800  0.1159  0.1656
11732TIP3    H156611   3.957   3.880  17.066 -0.1873 -1.3539  1.7878
11732TIP3    H256612   4.046   4.001  17.086  1.1496 -1.8539 -0.8970
11733TIP3   OH256613   3.901   2.412  15.214  0.0069  0.2854 -0.5205
11733TIP3    H156614   3.874   2.379  15.299  0.5509 -0.5401 -0.6571
11733TIP3    H256615   3.995   2.423  15.221  0.0440  0.2929 -0.9881
11734TIP3   OH256616   2.383   2.850  13.150  0.0516 -0.3993 -0.2449
11734TIP3    H156617   2.314   2.832  13.087  0.3711 -1.1827 -0.3801
11734TIP3    H256618   2.416   2.764  13.176 -0.1434 -0.0954  1.0704
11735TIP3   OH256619   5.798   5.630  13.033  0.5012 -0.0122  0.5629
11735TIP3    H156620   5.878   5.666  13.070  1.2392  0.5032 -1.4741
11735TIP3    H256621   5.728   5.672  13.082  1.4144  1.8438  0.3224
11736TIP3   OH256622   2.877   6.277   6.344  0.0035  0.0016 -0.1866
11736TIP3    H156623   2.946   6.220   6.378 -0.9102 -0.9428  0.1061
11736TIP3    H256624   2.915   6.365   6.347  1.7615 -0.6809 -1.4817
11737TIP3   OH256625   0.121   2.317   3.877  0.2267  0.2695  0.4306
11737TIP3    H156626   0.054   2.384   3.865  0.3025  0.3375  0.3819
11737TIP3    H256627   0.197   2.351   3.830 -0.0454 -0.3217 -0.4273
11738TIP3   OH256628   3.805   1.479  15.374  0.0941  0.4163  0.2886
11738TIP3    H156629   3.790   1.451  15.465 -0.0094 -0.9295 -0.1343
11738TIP3    H256630   3.784   1.402  15.322 -0.4684  1.3885 -0.9305
11739TIP3   OH256631   5.453   1.546   1.847  0.6075 -0.0655 -0.1143
11739TIP3    H156632   5.399   1.607   1.797 -0.0197 -0.7537 -0.2718
11739TIP3    H256633   5.516   1.512   1.783 -0.9447 -1.8388 -0.7173
11740TIP3   OH256634   2.316   6.094   2.990 -0.5044 -0.1872 -0.6587
11740TIP3    H156635   2.335   6.185   3.011  1.5534 -0.6343 -0.5328
11740TIP3    H256636   2.313   6.050   3.075 -1.4052 -0.2773 -0.7272
11741TIP3   OH256637   0.017   6.597   2.534 -0.3672  0.0415  0.0418
11741TIP3    H156638   0.037   6.614   2.442 -0.0991 -0.9474 -0.0935
11741TIP3    H256639   0.086   6.536   2.562 -0.8643 -0.2187  0.7000
11742TIP3   OH256640   2.251   3.855  15.682  0.1724  0.1418  0.4174
11742TIP3    H156641   2.334   3.852  15.634 -0.3181 -0.2278 -0.4283
11742TIP3    H256642   2.274   3.831  15.772  0.4652 -3.3791 -0.5376
11743TIP3   OH256643   6.710   5.448  11.166  0.1265 -0.0348  0.7939
11743TIP3    H156644   6.740   5.539  11.156 -1.1589  0.2779 -0.3146
11743TIP3    H256645   6.752   5.402  11.093 -0.0774 -0.1183  0.7319
11744TIP3   OH256646   3.747   5.475   4.991 -0.3307 -0.5626 -0.2497
11744TIP3    H156647   3.842   5.486   4.984 -0.2399 -0.2506  1.4299
11744TIP3    H256648   3.713   5.511   4.909  0.6925  3.3981  0.9766
11745TIP3   OH256649   3.092   4.846   2.596  0.1555 -0.0185  0.2080
11745TIP3    H156650   3.096   4.926   2.543 -1.3493  0.6566  1.0577
11745TIP3    H256651   3.003   4.846   2.630 -0.3488 -2.8953 -1.0237
11746TIP3   OH256652   0.268   4.676   2.261  0.7382 -0.8036 -0.2588
11746TIP3    H156653   0.302   4.628   2.185  0.7925 -0.3301 -0.5353
11746TIP3    H256654   0.343   4.681   2.321  1.6746  1.7191 -1.5881
11747TIP3   OH256655   1.244   1.870  16.352  0.6053  0.3477  0.0148
11747TIP3    H156656   1.158   1.859  16.311  0.5028  0.8459  0.0860
11747TIP3    H256657   1.244   1.810  16.427 -0.3056  1.5353  0.9845
11748TIP3   OH256658   4.203   1.349   5.163 -0.0377 -0.0075  0.8687
11748TIP3    H156659   4.268   1.350   5.093 -0.4333  2.4454  0.4719
11748TIP3    H256660   4.211   1.262   5.202  1.2203 -0.8878 -1.2481
11749TIP3   OH256661   2.512   4.446   0.838 -0.1729  0.0383 -0.0702
11749TIP3    H156662   2.476   4.534   0.826  1.4074  0.4156 -2.2124
11749TIP3    H256663   2.583   4.440   0.774  0.5929 -2.3309  0.9597
11750TIP3   OH256664   2.537   3.359   1.057 -0.0004  0.2495  0.0048
11750TIP3    H156665   2.613   3.376   1.002  0.9609  3.9706  2.2622
11750TIP3    H256666   2.462   3.384   1.003  0.7811  1.7081 -0.4500
11751TIP3   OH256667   1.409   6.368   2.962 -0.0284 -1.1874  0.3021
11751TIP3    H156668   1.360   6.323   2.893  0.7144 -0.4559 -0.6957
11751TIP3    H256669   1.368   6.337   3.043 -1.2697 -1.6139 -0.4724
11752TIP3   OH256670   3.365   4.039   5.632 -0.3220  0.4910 -0.2729
11752TIP3    H156671   3.363   4.133   5.649 -0.1745  0.2657  1.1279
11752TIP3    H256672   3.303   4.003   5.696  0.4112 -0.4627 -0.0979
11753TIP3   OH256673   4.303   1.191  11.590 -0.2368  0.2631 -0.0164
11753TIP3    H156674   4.346   1.108  11.612  1.1326  1.2122  0.9448
11753TIP3    H256675   4.284   1.184  11.497  1.6733 -0.3496 -0.3876
11754TIP3   OH256676   5.147   1.820  11.046  0.4362  0.3049  0.3007
11754TIP3    H156677   5.154   1.895  10.987  2.2372  0.3152  0.4973
11754TIP3    H256678   5.165   1.856  11.133  0.1616 -0.1565  0.5523
11755TIP3   OH256679   0.862   5.303   4.274  0.0837  0.6548 -0.6303
11755TIP3    H156680   0.922   5.245   4.226 -0.1413  1.8961 -2.4700
11755TIP3    H256681   0.917   5.346   4.339  1.0535  1.2579 -1.8397
11756TIP3   OH256682   0.518   3.252   4.643 -0.4531 -0.8407  0.1413
11756TIP3    H156683   0.484   3.198   4.572 -1.3235  0.9057 -0.8251
11756TIP3    H256684   0.602   3.286   4.609 -1.2897  0.7065 -0.4627
11757TIP3   OH256685   6.580   5.401  13.236 -0.1662  0.0159 -0.3726
11757TIP3    H156686   6.665   5.443  13.227 -0.1305  0.0036 -0.1001
11757TIP3    H256687   6.552   5.383  13.146  1.2228 -2.2056 -0.3831
11758TIP3   OH256688   0.009   3.850  11.624 -0.4085 -0.2484 -0.1028
11758TIP3    H156689   0.055   3.767  11.636  0.7941  0.5709  1.0667
11758TIP3    H256690  -0.010   3.881  11.712  0.0696  1.2035 -0.4855
11759TIP3   OH256691   2.497   5.976  14.932  0.1246 -0.0252 -0.0439
11759TIP3    H156692   2.435   5.903  14.943  0.1891 -0.1808 -0.6718
11759TIP3    H256693   2.566   5.959  14.995 -0.8124  0.5117  1.1522
11760TIP3   OH256694   5.836   0.429  13.594  0.4839 -0.0690  0.1280
11760TIP3    H156695   5.896   0.363  13.561 -0.5857 -0.2980 -1.3991
11760TIP3    H256696   5.824   0.406  13.686  0.5684 -1.6746 -0.2489
11761TIP3   OH256697   2.109   0.026  12.991  0.1125  0.0610  0.4088
11761TIP3    H156698   2.203   0.038  13.007  0.5742 -0.5817 -1.6012
11761TIP3    H256699   2.067   0.097  13.039  1.7798  1.3644 -0.0108
11762TIP3   OH256700   6.088   2.050  15.568  0.2440  1.3909  0.0495
11762TIP3    H156701   6.099   2.029  15.661 -0.5444 -1.4090 -0.4446
11762TIP3    H256702   6.177   2.053  15.533  0.4249 -0.6833  0.2756
11763TIP3   OH256703   0.864   4.746  15.598 -0.3356 -0.0483 -0.3727
11763TIP3    H156704   0.832   4.834  15.616 -0.9764 -0.3008 -0.2589
11763TIP3    H256705   0.826   4.724  15.512 -2.2880 -1.1962  0.7496
11764TIP3   OH256706   3.304   6.128   0.510  0.1064  0.2125  0.0692
11764TIP3    H156707   3.283   6.050   0.459 -0.0549 -0.2100  0.7715
11764TIP3    H256708   3.223   6.179   0.510  0.8238  1.4318 -2.1999
11765TIP3   OH256709   5.006   4.452   1.091  0.2682 -0.2992  0.1929
11765TIP3    H156710   4.982   4.379   1.147 -0.0415  0.0768  0.5503
11765TIP3    H256711   5.046   4.516   1.150 -0.2327  0.1799  0.0208
11766TIP3   OH256712   4.280   0.617  13.911  0.1604  1.4948 -0.3670
11766TIP3    H156713   4.331   0.630  13.991  1.4216 -0.9637 -0.7244
11766TIP3    H256714   4.193   0.591  13.941  0.7884  0.0317  0.2147
11767TIP3   OH256715   6.359   6.146  13.352  0.3140  0.1882  0.3397
11767TIP3    H156716   6.398   6.059  13.348  0.8806  0.3917  1.2900
11767TIP3    H256717   6.318   6.158  13.267  1.7076 -0.3220 -0.4216
11768TIP3   OH256718   1.942   0.978   4.758  0.0743 -0.1311  0.1740
11768TIP3    H156719   2.013   1.017   4.808 -1.7445  4.7361 -0.7545
11768TIP3    H256720   1.866   0.984   4.815 -1.0030  1.0760 -1.3527
11769TIP3   OH256721   4.665   3.423  13.371 -0.4376 -0.3533 -0.0779
11769TIP3    H156722   4.596   3.490  13.379  0.2896  0.3354  0.5460
11769TIP3    H256723   4.725   3.459  13.305 -0.3712 -0.6786 -0.1930
11770TIP3   OH256724   1.256   4.360  14.132  0.1098 -0.4243 -0.2322
11770TIP3    H156725   1.211   4.282  14.100  1.0063 -1.1358  0.2456
11770TIP3    H256726   1.334   4.367  14.078 -0.7224  1.0117 -1.2924
11771TIP3   OH256727   4.866   3.743   4.885  0.3150  0.7934 -0.8582
11771TIP3    H156728   4.943   3.800   4.878 -1.4187  3.2204 -0.7031
11771TIP3    H256729   4.795   3.793   4.844 -1.4323 -0.9369 -0.0247
11772TIP3   OH256730   1.986   4.865  13.350 -0.0289 -0.2547  0.3818
11772TIP3    H156731   2.068   4.888  13.395  0.5618 -0.6224 -0.4802
11772TIP3    H256732   1.949   4.950  13.324 -0.2065 -0.0597  1.2608
11773TIP3   OH256733   0.809   1.269  13.059  0.3734 -0.2171 -0.2330
11773TIP3    H156734   0.901   1.249  13.043  0.5432  1.0430 -0.8617
11773TIP3    H256735   0.763   1.231  12.984  0.2717 -1.5569  0.4792
11774TIP3   OH256736   3.532   0.033   0.250  0.5273 -0.3437 -0.1543
11774TIP3    H156737   3.600  -0.020   0.208  3.8718  2.8886  0.8493
11774TIP3    H256738   3.533   0.005   0.341  1.4652  0.5877  0.1303
11775TIP3   OH256739   5.299   4.735  13.161  0.3443 -0.7331  0.1233
11775TIP3    H156740   5.387   4.764  13.137  0.2921  0.5425  1.4073
11775TIP3    H256741   5.267   4.802  13.222 -1.9541 -0.5377 -1.2193
11776TIP3   OH256742   4.030   2.125   2.083 -0.4696  0.4069  0.6280
11776TIP3    H156743   4.009   2.052   2.140  0.6318 -1.0258 -0.7485
11776TIP3    H256744   4.049   2.198   2.142 -1.1536 -0.5455  2.0224
11777TIP3   OH256745   5.625   6.348   3.044  0.0649 -0.1201  0.3706
11777TIP3    H156746   5.616   6.275   2.982  0.6476  0.5757 -0.5527
11777TIP3    H256747   5.605   6.425   2.992  0.3738  0.4613  1.1134
11778TIP3   OH256748   6.478   3.462  16.363 -0.5231  0.1501  0.4412
11778TIP3    H156749   6.456   3.370  16.348 -0.2569  0.1323  0.1547
11778TIP3    H256750   6.571   3.460  16.388 -0.0402  0.4979 -1.2584
11779TIP3   OH256751   5.994   0.745   3.733  0.2364  0.1340 -0.0445
11779TIP3    H156752   6.020   0.782   3.649  3.3483 -0.4659  0.5894
11779TIP3    H256753   6.008   0.651   3.723 -2.5674 -0.3253  0.0837
11780TIP3   OH256754   2.304   5.086   1.538  0.0710 -0.4432 -0.2094
11780TIP3    H156755   2.339   5.093   1.626  1.1478 -0.2562 -0.6465
11780TIP3    H256756   2.217   5.048   1.550 -0.3567  0.8895  1.0359
11781TIP3   OH256757   5.183   1.400  16.248  0.1923 -0.5401  0.3902
11781TIP3    H156758   5.138   1.445  16.320  1.1828  1.5068 -0.2383
11781TIP3    H256759   5.228   1.470  16.200  1.7677 -2.2060 -0.6297
11782TIP3   OH256760   0.749   1.421  16.045 -0.5910  0.4775 -0.0601
11782TIP3    H156761   0.686   1.429  15.973 -0.9333 -0.1439  0.1646
11782TIP3    H256762   0.809   1.353  16.017 -1.0674 -0.1740  0.4891
11783TIP3   OH256763   6.352   0.505   0.893 -0.0037 -0.2423 -0.2077
11783TIP3    H156764   6.315   0.444   0.828  1.3396 -1.1654 -0.1251
11783TIP3    H256765   6.433   0.536   0.853 -0.4647  1.2014 -0.0662
11784TIP3   OH256766   3.546   0.283   1.925 -0.4935 -0.0990 -0.1447
11784TIP3    H156767   3.532   0.376   1.911  0.0094  0.3489  2.2227
11784TIP3    H256768   3.458   0.248   1.941 -0.4872  0.2806  0.7373
11785TIP3   OH256769   5.829   3.051  12.408  0.2674  0.2655  0.1905
11785TIP3    H156770   5.885   3.001  12.468  0.9239  1.0628  0.2563
11785TIP3    H256771   5.770   2.986  12.371  1.6752 -0.7135 -0.3807
11786TIP3   OH256772   5.584   6.204   5.422 -0.4558 -0.1616  0.3083
11786TIP3    H156773   5.616   6.190   5.333  1.7625 -1.2223  1.2200
11786TIP3    H256774   5.517   6.136   5.435  0.4742 -1.1589  0.0176
11787TIP3   OH256775   3.852   2.402   4.166  0.2121  0.4964  0.3261
11787TIP3    H156776   3.821   2.461   4.235  0.8266 -0.3579  1.3606
11787TIP3    H256777   3.940   2.434   4.145  0.7139 -0.2653  1.1832
11788TIP3   OH256778   4.989   5.948  12.962  0.0092 -0.3693  0.1711
11788TIP3    H156779   4.944   6.029  12.986  1.0365 -0.1501  1.4271
11788TIP3    H256780   5.038   5.971  12.883  0.2018  0.2093  0.4531
11789TIP3   OH256781   2.346   0.386   2.943 -0.2697  0.4561 -0.1183
11789TIP3    H156782   2.366   0.392   3.036  2.9502  0.4452 -0.7577
11789TIP3    H256783   2.296   0.305   2.934 -1.3852  0.9123  1.6985
11790TIP3   OH256784   4.322   2.862   1.893  0.5483  0.0566 -0.0496
11790TIP3    H156785   4.240   2.815   1.884  0.7937 -0.3277 -0.2549
11790TIP3    H256786   4.390   2.798   1.871  0.8820  0.4868 -0.2877
11791TIP3   OH256787   1.927   0.176  12.808 -0.3098  0.4594 -0.0072
11791TIP3    H156788   1.853   0.121  12.833  1.3533 -1.4249  0.9551
11791TIP3    H256789   1.999   0.145  12.864  1.3778  1.7330 -1.4350
11792TIP3   OH256790   2.956   4.582  15.025  0.4990 -0.3762  0.8766
11792TIP3    H156791   2.983   4.664  14.984  1.8665  0.1364  2.7136
11792TIP3    H256792   2.889   4.608  15.088 -0.1088 -0.8839  0.4501
11793TIP3   OH256793   0.266   0.104   5.553 -0.5512 -0.3886  0.2427
11793TIP3    H156794   0.291   0.189   5.517 -0.0697 -1.8752 -3.1633
11793TIP3    H256795   0.171   0.101   5.543 -0.8210  0.5339  2.2843
11794TIP3   OH256796   6.109   3.416   2.004 -0.4303 -0.0528 -0.3202
11794TIP3    H156797   6.092   3.333   1.960  0.3245 -0.3602 -0.0380
11794TIP3    H256798   6.204   3.416   2.020 -0.5359  0.5335  0.3284
11795TIP3   OH256799   4.367   6.193   1.738  0.6868 -0.1581 -0.3329
11795TIP3    H156800   4.317   6.229   1.811  1.3782  1.8896 -0.8343
11795TIP3    H256801   4.325   6.230   1.660  0.0815 -2.1666 -0.9916
11796TIP3   OH256802   6.314   6.740  16.819 -0.9782 -0.2145 -0.8164
11796TIP3    H156803   6.266   6.751  16.737  0.2493  0.4083 -1.4746
11796TIP3    H256804   6.278   6.807  16.877 -1.2305 -0.0568 -1.1535
11797TIP3   OH256805   2.365   3.247  16.872 -0.0101  0.7624  0.8634
11797TIP3    H156806   2.314   3.168  16.886  1.4257 -0.2217  0.6864
11797TIP3    H256807   2.350   3.269  16.780 -0.8139  1.0017  1.0453
11798TIP3   OH256808   4.860   0.988   3.985 -0.1414 -0.2604  1.0066
11798TIP3    H156809   4.829   0.912   3.935  0.5159 -1.2550  2.0963
11798TIP3    H256810   4.833   0.970   4.075 -0.1305  0.8899  1.2439
11799TIP3   OH256811   3.734   0.473   5.696  0.4641  0.1734 -0.6069
11799TIP3    H156812   3.650   0.493   5.655  0.9915  1.1581 -1.2479
11799TIP3    H256813   3.798   0.520   5.642  1.5971 -2.0253 -1.2075
11800TIP3   OH256814   1.102   1.811  11.879 -0.1539 -0.0921  0.6112
11800TIP3    H156815   1.087   1.883  11.940  0.4894 -0.9953  1.8493
11800TIP3    H256816   1.155   1.749  11.928  1.8617 -0.0521 -1.4398
11801TIP3   OH256817   3.704   2.857  15.604  0.6110  0.1708 -0.0016
11801TIP3    H156818   3.727   2.780  15.550 -0.6703 -1.3048  1.5255
11801TIP3    H256819   3.739   2.837  15.690 -2.4785 -0.1393  1.2357
11802TIP3   OH256820   5.270   2.654   1.803  0.2720 -0.1290 -0.3510
11802TIP3    H156821   5.233   2.695   1.882 -3.0820 -1.6223 -1.0613
11802TIP3    H256822   5.307   2.727   1.753 -0.3051  1.2278  1.1456
11803TIP3   OH256823   0.745   6.677  16.314  0.2600  0.2286 -0.1780
11803TIP3    H156824   0.691   6.699  16.389  1.7466 -0.8798  1.2376
11803TIP3    H256825   0.682   6.656  16.244 -1.1237  0.5109  0.9665
11804TIP3   OH256826   2.563   4.364   1.186  0.5594  0.3918 -0.1444
11804TIP3    H156827   2.538   4.452   1.160  0.1561  0.0801 -0.8482
11804TIP3    H256828   2.591   4.322   1.105  1.2665  0.0420  0.2773
11805TIP3   OH256829   6.675   5.923  12.256 -0.4172  0.4894 -0.1274
11805TIP3    H156830   6.767   5.937  12.233  0.0146 -0.3661  1.0541
11805TIP3    H256831   6.676   5.849  12.316 -1.8965  0.4227 -0.1686
11806TIP3   OH256832   3.795   4.025   4.160 -0.3702  0.2861  0.5473
11806TIP3    H156833   3.768   3.973   4.085 -2.3156 -0.1977  1.5535
11806TIP3    H256834   3.716   4.036   4.212  1.1289 -0.2721  3.0648
11807TIP3   OH256835   0.421   1.746  12.070 -0.2663  0.1165  0.1608
11807TIP3    H156836   0.425   1.705  11.983  2.0596 -2.1948  1.2807
11807TIP3    H256837   0.467   1.829  12.059  0.6942 -0.5130 -0.6599
11808TIP3   OH256838   1.364   5.733  14.405  0.1073  0.2988  0.0606
11808TIP3    H156839   1.323   5.659  14.449  1.7781 -0.3151  0.6373
11808TIP3    H256840   1.343   5.722  14.313 -0.4473 -0.3604  0.2631
11809TIP3   OH256841   5.773   1.346  14.404 -0.8701  0.0781  0.3369
11809TIP3    H156842   5.798   1.263  14.363 -1.7508 -0.4900  0.9316
11809TIP3    H256843   5.678   1.344  14.406 -0.8467 -0.0554  2.6971
11810TIP3   OH256844   4.105   0.195   2.824 -0.4724 -0.1780  0.2804
11810TIP3    H156845   4.193   0.158   2.827 -0.7595 -0.8077  1.1040
11810TIP3    H256846   4.085   0.204   2.731  0.2387 -0.5637  0.0934
11811TIP3   OH256847   5.023   2.845  11.662  0.0736  0.7106  0.0256
11811TIP3    H156848   4.931   2.864  11.644  0.0666 -1.8334 -3.1779
11811TIP3    H256849   5.068   2.864  11.580  1.8845 -1.1504  0.5472
11812TIP3   OH256850   4.525   2.957   0.505  0.5605  0.2293  0.1173
11812TIP3    H156851   4.555   3.046   0.523  0.2304  0.4580 -0.4205
11812TIP3    H256852   4.594   2.900   0.538  0.4022  0.6610  1.1894
11813TIP3   OH256853   0.458   1.364  11.280  0.0409  0.1966  0.5766
11813TIP3    H156854   0.495   1.276  11.272 -0.3016  0.0624  0.4726
11813TIP3    H256855   0.461   1.400  11.191  0.4714  0.4058  0.6766
11814TIP3   OH256856   6.258   5.913  15.099 -0.0076 -0.7019  0.1272
11814TIP3    H156857   6.271   5.880  15.009  1.3785  1.7293 -0.6006
11814TIP3    H256858   6.181   5.969  15.093  1.4505  1.3176 -0.0816
11815TIP3   OH256859   3.968   4.567   0.116 -0.1065  0.1079 -0.0423
11815TIP3    H156860   3.929   4.527   0.193  1.7346 -1.1394  0.2604
11815TIP3    H256861   3.894   4.608   0.071 -1.5215 -0.9227  1.2793
11816TIP3   OH256862   3.152   5.679   6.120 -0.2055 -0.4190  0.4644
11816TIP3    H156863   3.135   5.727   6.201 -0.5096 -1.7603  1.2168
11816TIP3    H256864   3.177   5.591   6.150  1.3577 -0.4436 -0.8472
11817TIP3   OH256865   2.726   2.774  17.112 -0.3100 -0.3436 -0.0580
11817TIP3    H156866   2.717   2.859  17.155 -3.3821 -0.8445  0.4115
11817TIP3    H256867   2.819   2.752  17.121  0.0747  1.8845  1.8431
11818TIP3   OH256868   1.511   4.556  14.944 -0.5318  0.3573 -0.3635
11818TIP3    H156869   1.597   4.535  14.908 -0.5579 -1.5049  0.5771
11818TIP3    H256870   1.529   4.579  15.036 -0.8136  1.9774 -0.7038
11819TIP3   OH256871   4.038   0.543  12.007 -0.5480 -0.0867  0.0293
11819TIP3    H156872   4.060   0.467  12.060 -0.0132 -0.0167 -0.0918
11819TIP3    H256873   3.991   0.506  11.932 -1.4401 -0.1685  0.6230
11820TIP3   OH256874   6.387   3.155  14.233 -0.1199  0.4078  0.0743
11820TIP3    H156875   6.360   3.210  14.160 -2.0629 -0.1946  0.3216
11820TIP3    H256876   6.372   3.209  14.311  0.6723  0.5589  0.1267
11821TIP3   OH256877   4.776   5.627   4.455 -0.2322  0.0659 -0.0847
11821TIP3    H156878   4.718   5.553   4.439 -1.6024  0.9928  0.5902
11821TIP3    H256879   4.817   5.609   4.540 -1.1109  0.4342  0.4179
11822TIP3   OH256880   2.274   1.070  15.039 -0.0397  0.3631  0.2379
11822TIP3    H156881   2.235   1.110  14.961 -0.2037  0.6669  0.4772
11822TIP3    H256882   2.281   0.977  15.016  0.5698  0.5622 -0.4105
11823TIP3   OH256883   4.830   0.093  15.205  0.1012 -0.3102 -0.4689
11823TIP3    H156884   4.771   0.019  15.215 -1.5061  0.8334 -1.1882
11823TIP3    H256885   4.862   0.087  15.114  3.4529 -2.5816  0.7624
11824TIP3   OH256886   0.169   6.259  16.767  0.1177 -0.1216 -0.1396
11824TIP3    H156887   0.207   6.214  16.692  2.5577  0.4969  0.6727
11824TIP3    H256888   0.234   6.249  16.837 -0.8006  1.7705  1.0310
11825TIP3   OH256889   3.161   3.294  12.952  0.2007  0.6165  0.3171
11825TIP3    H156890   3.156   3.287  13.048  0.2384 -0.1967  0.2685
11825TIP3    H256891   3.189   3.207  12.924 -0.5939  0.6195 -0.4939
11826TIP3   OH256892   3.059   2.637  14.185 -0.3231 -0.6591 -0.4191
11826TIP3    H156893   3.149   2.607  14.171  0.4907  1.0188  1.0733
11826TIP3    H256894   3.047   2.709  14.123 -1.2570 -2.0088 -1.8519
11827TIP3   OH256895   4.977   5.555   3.111  0.4049  0.1515 -0.7984
11827TIP3    H156896   5.021   5.471   3.096  2.1526  1.1977 -1.7563
11827TIP3    H256897   4.959   5.588   3.023 -1.0419  0.4013 -0.4149
11828TIP3   OH256898   4.415   1.919  13.290 -0.2958 -0.3412 -0.0060
11828TIP3    H156899   4.404   1.873  13.207 -1.4518 -0.2722  0.0958
11828TIP3    H256900   4.326   1.927  13.324 -0.2647  2.8485 -0.5016
11829TIP3   OH256901   5.057   4.238   6.839  0.1352 -0.0992  0.4382
11829TIP3    H156902   4.976   4.206   6.799  1.3469 -1.4431 -0.9821
11829TIP3    H256903   5.124   4.176   6.811  1.8932  1.6918  0.5843
11830TIP3   OH256904   4.638   4.111   3.485 -0.8655  1.0363 -0.8824
11830TIP3    H156905   4.638   4.132   3.578 -2.0827 -0.3746 -0.5495
11830TIP3    H256906   4.563   4.159   3.449 -1.4195  0.2451 -0.8043
11831TIP3   OH256907   2.947   0.041  11.743 -0.4869  0.6254 -0.5484
11831TIP3    H156908   2.966  -0.032  11.802 -0.2309  0.1953 -1.1614
11831TIP3    H256909   2.907   0.107  11.799 -1.6515 -0.3762 -0.1901
11832TIP3   OH256910   0.830   3.944  11.548 -0.3496  0.0241  0.0806
11832TIP3    H156911   0.735   3.946  11.548 -0.3356  0.7286 -1.0941
11832TIP3    H256912   0.854   3.896  11.469  0.2709 -0.1558  0.3715
11833TIP3   OH256913   3.938   6.201   0.608 -0.2947  0.3297  0.2307
11833TIP3    H156914   3.860   6.190   0.662 -0.4761  1.4187  0.2075
11833TIP3    H256915   3.908   6.190   0.518 -0.3893  0.5342  0.2358
11834TIP3   OH256916   0.226   3.303  13.203  0.0598 -0.0407 -0.1332
11834TIP3    H156917   0.239   3.214  13.171 -0.0638  0.0772 -0.5203
11834TIP3    H256918   0.253   3.301  13.295  0.9796 -0.2412 -0.4082
11835TIP3   OH256919   3.101   6.509   3.016 -0.8293  0.3585 -0.0156
11835TIP3    H156920   3.024   6.545   2.973  0.2680  2.8462  0.0166
11835TIP3    H256921   3.166   6.500   2.946 -0.2011  1.0468  0.4718
11836TIP3   OH256922   2.805   1.643   0.319  0.3278  0.2647  0.4942
11836TIP3    H156923   2.816   1.641   0.414 -1.4765  0.1287  0.7216
11836TIP3    H256924   2.789   1.735   0.298 -0.3216  0.1430  0.4528
11837TIP3   OH256925   1.622   1.125  14.156  0.2446  0.5790 -0.2288
11837TIP3    H156926   1.624   1.171  14.241 -0.4792 -0.1316  0.1849
11837TIP3    H256927   1.533   1.140  14.124  0.2996  0.2554 -0.5342
11838TIP3   OH256928   4.720   5.803   6.032 -0.2656  0.4081  0.4089
11838TIP3    H156929   4.691   5.821   6.121 -1.0364  0.0368  0.2413
11838TIP3    H256930   4.786   5.871   6.013 -0.1383  0.5138  1.2347
11839TIP3   OH256931   2.653   5.295   5.342 -0.2375  0.1829  0.6182
11839TIP3    H156932   2.720   5.348   5.385  1.3450 -1.6119  0.4351
11839TIP3    H256933   2.655   5.323   5.250  1.0940 -0.6784  0.3758
11840TIP3   OH256934   5.156   1.120   4.058 -0.3208  0.3546 -0.9027
11840TIP3    H156935   5.152   1.106   3.964 -0.8471  2.7763 -1.2694
11840TIP3    H256936   5.075   1.080   4.092  0.2462 -1.2243 -1.3361
11841TIP3   OH256937   6.320   5.587  13.159 -0.5938 -0.3456  0.2381
11841TIP3    H156938   6.270   5.648  13.213 -1.0797 -0.5860  0.0632
11841TIP3    H256939   6.375   5.539  13.222  1.0794  1.4511  0.2084
11842TIP3   OH256940   3.103   3.513   5.702  0.4021 -0.3500 -1.0893
11842TIP3    H156941   3.094   3.568   5.624 -2.0161 -0.3867 -0.8579
11842TIP3    H256942   3.090   3.573   5.775 -0.8379 -0.9605 -0.8014
11843TIP3   OH256943   2.353   5.396   0.160  0.1180  0.1333  0.3473
11843TIP3    H156944   2.393   5.416   0.244 -1.5202 -1.0448  1.4448
11843TIP3    H256945   2.293   5.469   0.143 -0.2622 -0.0954  0.6867
11844TIP3   OH256946   5.914   6.315  12.579 -0.1502  0.1280  0.3701
11844TIP3    H156947   5.897   6.238  12.524  1.4766 -0.9735  1.3610
11844TIP3    H256948   5.868   6.386  12.535  2.9465 -0.2177 -3.7092
11845TIP3   OH256949   5.386   3.859  16.467 -0.5271  0.3638  0.5878
11845TIP3    H156950   5.292   3.842  16.468 -0.2613 -1.2163  1.6437
11845TIP3    H256951   5.407   3.885  16.557 -0.2184  2.3942 -0.0406
11846TIP3   OH256952   0.552   0.678   4.257  0.1858  0.4688  0.3286
11846TIP3    H156953   0.525   0.618   4.187  0.9595  0.1906  0.2598
11846TIP3    H256954   0.563   0.762   4.213  1.3427  0.1434 -0.0336
11847TIP3   OH256955   4.976   0.956  14.557  0.0479  0.5348 -0.3347
11847TIP3    H156956   5.039   1.014  14.513 -2.6320  3.2881 -0.7228
11847TIP3    H256957   4.961   0.886  14.494  0.7957  1.2404 -1.3166
11848TIP3   OH256958   3.155   3.716   0.939  0.1005  0.1579  0.3606
11848TIP3    H156959   3.103   3.725   1.019  0.8469  0.1713  0.8594
11848TIP3    H256960   3.200   3.800   0.931 -1.2683  0.7756 -1.0211
11849TIP3   OH256961   1.103   5.194  12.575  0.5140  0.0174 -0.1216
11849TIP3    H156962   1.135   5.121  12.522 -0.4021 -0.1218 -0.4888
11849TIP3    H256963   1.014   5.168  12.600  0.6220  0.4762  0.7484
11850TIP3   OH256964   2.565   3.290  15.095  0.0796 -0.0054  0.1707
11850TIP3    H156965   2.568   3.233  15.018  2.6028  0.5300 -0.1639
11850TIP3    H256966   2.644   3.269  15.144 -0.0639  1.6779  1.1677
11851TIP3   OH256967   0.122   4.028   3.689  0.2788  0.3722  0.1201
11851TIP3    H156968   0.086   3.990   3.608  2.1251 -0.5711 -0.2796
11851TIP3    H256969   0.193   4.085   3.659 -0.5822  1.9146  0.9335
11852TIP3   OH256970   4.724   5.437  12.751 -0.3538 -0.3952 -0.5499
11852TIP3    H156971   4.654   5.470  12.694 -1.4727 -3.5917 -1.1317
11852TIP3    H256972   4.701   5.470  12.838 -0.7301  1.3654 -1.2933
11853TIP3   OH256973   3.108   2.530  11.640 -0.2111  0.5856 -0.4155
11853TIP3    H156974   3.089   2.461  11.704 -0.4935  1.4807  0.4815
11853TIP3    H256975   3.110   2.485  11.556 -1.1522 -0.3910  0.0714
11854TIP3   OH256976   1.866   0.246   0.384 -0.4374 -0.5458  0.2869
11854TIP3    H156977   1.894   0.194   0.459 -0.1715 -0.5441  0.1884
11854TIP3    H256978   1.815   0.184   0.331  1.5850 -1.2928 -0.8603
11855TIP3   OH256979   5.177   4.540   1.561 -0.3829 -0.4880  0.1009
11855TIP3    H156980   5.266   4.504   1.560 -0.7309 -1.3658  0.2671
11855TIP3    H256981   5.186   4.623   1.608  0.3205 -0.6473  0.2623
11856TIP3   OH256982   6.339   4.371  11.490 -0.3129  0.2245  0.1099
11856TIP3    H156983   6.303   4.386  11.403  0.4719  1.4327 -0.0156
11856TIP3    H256984   6.279   4.309  11.531 -0.1252 -1.1721 -1.6565
11857TIP3   OH256985   2.376   5.773  10.855 -0.1837 -0.1299  0.3444
11857TIP3    H156986   2.373   5.848  10.795  0.0273 -0.3167  0.0972
11857TIP3    H256987   2.288   5.768  10.892  0.0447  0.7793  1.0283
11858TIP3   OH256988   2.493   2.392  15.767  0.3259 -0.0971  0.1794
11858TIP3    H156989   2.522   2.302  15.759  0.7984 -0.1666  2.2446
11858TIP3    H256990   2.406   2.394  15.727  0.5432 -1.3307 -0.3539
11859TIP3   OH256991   1.631   3.080  10.473 -0.0436  0.0167  0.1358
11859TIP3    H156992   1.709   3.128  10.501  0.1849 -0.2325 -0.0680
11859TIP3    H256993   1.558   3.129  10.511  0.2714 -0.5209  1.4560
11860TIP3   OH256994   4.056   0.946  14.406 -0.6447  0.0595 -0.1913
11860TIP3    H156995   3.978   0.939  14.351 -0.4690  2.2879 -0.7911
11860TIP3    H256996   4.050   1.033  14.445  0.1810 -0.7912  1.8883
11861TIP3   OH256997   1.841   5.200  11.572 -0.1041  0.7324 -0.1527
11861TIP3    H156998   1.854   5.180  11.479  0.3875 -3.0720  0.6495
11861TIP3    H256999   1.923   5.172  11.614 -0.5711  1.8302  1.5425
11862TIP3   OH257000   0.192   3.715   2.083  0.1016 -0.2625 -0.5888
11862TIP3    H157001   0.243   3.702   2.004  0.9736  1.9296 -0.4463
11862TIP3    H257002   0.254   3.756   2.144 -1.7349  2.2708 -0.3509
11863TIP3   OH257003   1.603   5.426  16.336 -0.0040  0.3513 -0.1334
11863TIP3    H157004   1.683   5.429  16.389 -1.1041  0.5997  1.5449
11863TIP3    H257005   1.626   5.473  16.255  1.3659  0.9607  0.5951
11864TIP3   OH257006   2.116   3.501   5.300  0.3622 -0.4861 -0.5448
11864TIP3    H157007   2.118   3.555   5.221  1.8046  0.8643  0.3817
11864TIP3    H257008   2.185   3.436   5.287  1.2022  0.2867 -0.0454
11865TIP3   OH257009   3.787   1.964   0.519 -0.8677 -0.1241  0.6031
11865TIP3    H157010   3.737   2.036   0.557 -1.9485 -1.5027  1.8464
11865TIP3    H257011   3.772   1.891   0.579  2.9719 -0.4721  1.2465
11866TIP3   OH257012   5.703   2.821  16.833  0.0339 -0.0434  0.3701
11866TIP3    H157013   5.692   2.852  16.743 -0.2007  0.1267  0.4544
11866TIP3    H257014   5.793   2.790  16.837  0.6854  1.7648  0.6114
11867TIP3   OH257015   1.584   1.988   0.998  0.0395  0.1028 -0.1856
11867TIP3    H157016   1.676   1.987   1.028 -0.0570  0.4961  0.1347
11867TIP3    H257017   1.577   2.067   0.946 -0.2479  0.3353  0.2065
11868TIP3   OH257018   5.212   0.307   0.353 -0.3101 -0.3262 -0.2411
11868TIP3    H157019   5.217   0.215   0.328  0.7341 -0.4739  0.4932
11868TIP3    H257020   5.189   0.353   0.272 -0.0934 -1.1409 -0.7649
11869TIP3   OH257021   5.925   5.862   5.716 -0.4021 -0.3863 -0.5269
11869TIP3    H157022   6.006   5.826   5.750 -1.8449 -0.9053  2.4827
11869TIP3    H257023   5.874   5.786   5.688 -1.0088 -0.2830  0.2772
11870TIP3   OH257024   0.984   2.507  12.713 -0.0979 -0.2280  0.1306
11870TIP3    H157025   0.943   2.479  12.632 -0.2778  0.1558  0.0880
11870TIP3    H257026   1.029   2.429  12.746  1.9095  0.1884 -1.5126
11871TIP3   OH257027   4.408   6.772  16.572  0.5624  0.0042 -0.3748
11871TIP3    H157028   4.483   6.728  16.534  1.5388  1.0647  0.2793
11871TIP3    H257029   4.402   6.737  16.661  2.4919  2.4835  0.7979
11872TIP3   OH257030   4.416   4.414  13.346 -0.2366 -0.2563  0.0127
11872TIP3    H157031   4.492   4.401  13.290  0.5625 -4.4911  1.8506
11872TIP3    H257032   4.344   4.431  13.286  1.5542  0.6795 -1.9442
11873TIP3   OH257033   3.784   5.377  14.647  0.1059  0.3317  0.2174
11873TIP3    H157034   3.843   5.430  14.702  1.8936 -2.5582  1.2115
11873TIP3    H257035   3.754   5.307  14.705 -1.2229 -0.4751 -1.4065
11874TIP3   OH257036   4.437   0.368  12.381  0.1369  0.3325 -0.0539
11874TIP3    H157037   4.476   0.449  12.348 -1.3962  1.5905  1.2263
11874TIP3    H257038   4.399   0.391  12.465  0.4263 -1.9259  0.7272
11875TIP3   OH257039   0.731   5.999   0.807  0.0255 -0.1850  0.0582
11875TIP3    H157040   0.649   5.969   0.768  0.1499  0.0470 -0.3911
11875TIP3    H257041   0.765   5.923   0.855  0.4750 -0.8553 -1.2915
11876TIP3   OH257042   4.532   0.429  12.766  0.0824 -0.0444 -0.3428
11876TIP3    H157043   4.565   0.476  12.689 -0.3257  1.4956  0.4113
11876TIP3    H257044   4.561   0.338  12.753  1.1461  0.4727 -1.6587
11877TIP3   OH257045   5.718   3.195   0.663  0.0402  0.3475 -0.5480
11877TIP3    H157046   5.782   3.266   0.667  0.0729  0.3550 -1.1574
11877TIP3    H257047   5.765   3.119   0.697  0.5453  0.2294 -1.5082
11878TIP3   OH257048   2.641   1.677   1.780 -0.0046  0.0100  0.0529
11878TIP3    H157049   2.629   1.584   1.798  1.9125 -0.4309 -0.8011
11878TIP3    H257050   2.732   1.695   1.804 -0.3501  1.6692  0.2128
11879TIP3   OH257051   4.525   5.804   2.778 -0.2095 -0.3566  0.5067
11879TIP3    H157052   4.497   5.848   2.859 -1.6533 -0.9205  0.3356
11879TIP3    H257053   4.446   5.759   2.748  0.2176  0.1757 -1.4361
11880TIP3   OH257054   1.065   6.166   4.290  0.2687  0.1566 -0.4537
11880TIP3    H157055   1.117   6.243   4.266  0.4615 -0.4780 -2.0793
11880TIP3    H257056   1.130   6.100   4.312  0.1146  0.0368 -0.3585
11881TIP3   OH257057   2.524   4.800   5.657 -0.2333  0.4640  0.3552
11881TIP3    H157058   2.440   4.843   5.637 -1.8498 -1.6514  2.3546
11881TIP3    H257059   2.550   4.838   5.741  1.7418  2.3704 -1.0601
11882TIP3   OH257060   1.656   1.384   5.170 -0.4669 -0.2621  0.1454
11882TIP3    H157061   1.727   1.423   5.221 -0.9401 -0.2621  0.8070
11882TIP3    H257062   1.630   1.453   5.108  1.0038 -0.7187 -1.0182
11883TIP3   OH257063   1.971   1.327   5.266  0.5318  0.2703 -0.2401
11883TIP3    H157064   1.901   1.385   5.236  1.2140  1.3468  0.2355
11883TIP3    H257065   1.988   1.270   5.190 -0.2984  0.5195 -0.6262
11884TIP3   OH257066   1.634   4.805   0.318 -0.0395 -0.8729 -0.5073
11884TIP3    H157067   1.712   4.759   0.350 -0.7433 -1.5747  0.2118
11884TIP3    H257068   1.561   4.754   0.352 -0.8133 -0.2077 -1.1782
11885TIP3   OH257069   0.688   6.776  12.188 -0.5262 -0.1433 -0.7742
11885TIP3    H157070   0.609   6.739  12.226 -0.4584  0.1542 -0.3530
11885TIP3    H257071   0.752   6.705  12.194 -0.3398  0.1043  0.2209
11886TIP3   OH257072   0.052   1.157   5.156  0.0795  0.6542 -0.3588
11886TIP3    H157073   0.056   1.062   5.159  0.8073  0.6818 -0.4482
11886TIP3    H257074   0.096   1.185   5.237  0.5191  0.9267 -0.6886
11887TIP3   OH257075   5.002   6.628   2.409 -0.5397  0.5056 -0.3391
11887TIP3    H157076   5.000   6.629   2.505 -0.0114 -1.3208 -0.2960
11887TIP3    H257077   4.948   6.553   2.384  0.3447  0.2251 -1.4450
11888TIP3   OH257078   2.010   0.988  11.897  0.5264  0.5407  0.1493
11888TIP3    H157079   2.066   0.968  11.822 -0.3683  0.2379 -0.4510
11888TIP3    H257080   2.031   0.921  11.962  1.0016  0.5489  0.0025
11889TIP3   OH257081   3.784   3.754  13.715  0.0104  0.3026  0.2900
11889TIP3    H157082   3.759   3.682  13.657  2.4651 -0.0201 -0.4255
11889TIP3    H257083   3.773   3.833  13.662  1.7111  0.0564 -0.4447
11890TIP3   OH257084   5.408   1.975   1.248 -0.4099  0.3161  0.0510
11890TIP3    H157085   5.454   1.969   1.164 -1.4380 -1.8570 -0.4055
11890TIP3    H257086   5.438   1.898   1.296  0.3578  1.6867  1.8003
11891TIP3   OH257087   0.333   2.821  16.035  0.5787  0.7652  0.0410
11891TIP3    H157088   0.258   2.847  16.090 -0.1992 -0.1817 -0.5548
11891TIP3    H257089   0.393   2.896  16.040  0.6156  0.6131  2.3317
11892TIP3   OH257090   5.489   6.769   2.534  0.1453 -0.6133 -0.3279
11892TIP3    H157091   5.548   6.843   2.517 -1.4373  0.5169 -0.9159
11892TIP3    H257092   5.460   6.782   2.624 -0.9147  0.0518 -0.7554
11893TIP3   OH257093   2.674   2.439   3.115 -0.2812 -0.4140 -0.1999
11893TIP3    H157094   2.745   2.375   3.114  1.7161  1.7168 -1.6929
11893TIP3    H257095   2.624   2.421   3.035  0.0210 -0.4053 -0.3931
11894TIP3   OH257096   4.507   1.967   1.934  0.2469 -0.2956 -0.4898
11894TIP3    H157097   4.442   2.033   1.955 -0.7159 -1.4108  0.0958
11894TIP3    H257098   4.481   1.933   1.848 -0.1734 -0.9972 -0.0937
11895TIP3   OH257099   6.065   4.156  13.155  0.2313 -0.9512  0.3896
11895TIP3    H157100   6.059   4.062  13.174 -4.0789 -0.7463  0.5409
11895TIP3    H257101   5.989   4.175  13.101  0.0874  2.7620  1.7220
11896TIP3   OH257102   6.073   6.033  13.908 -0.4371 -0.6436  0.3291
11896TIP3    H157103   6.042   6.040  13.999  1.0769 -0.4122  0.8550
11896TIP3    H257104   6.003   5.988  13.862 -2.4116  1.5948  1.0289
11897TIP3   OH257105   6.438   4.532  14.465  0.2438 -0.7283 -0.0772
11897TIP3    H157106   6.382   4.520  14.389 -0.6815  0.6572  0.3584
11897TIP3    H257107   6.460   4.443  14.493  0.4389 -1.2547 -1.8251
11898TIP3   OH257108   2.191   4.406   3.388 -0.0881  0.2927  0.1052
11898TIP3    H157109   2.225   4.423   3.300 -2.1873 -2.8336 -1.4269
11898TIP3    H257110   2.122   4.471   3.400 -1.5826 -0.9248 -1.6943
11899TIP3   OH257111   6.310   1.164   1.532 -0.2632  0.5077 -0.4602
11899TIP3    H157112   6.376   1.097   1.548 -0.5305  0.4353  0.3676
11899TIP3    H257113   6.314   1.181   1.438 -0.1158 -0.5809 -0.6483
11900TIP3   OH257114   2.015   1.133   6.113 -0.0816  0.1332  0.3766
11900TIP3    H157115   2.055   1.215   6.087 -0.0217 -0.7379 -2.4631
11900TIP3    H257116   2.088   1.073   6.125 -0.2445 -0.1059  0.1863
11901TIP3   OH257117   5.116   6.298   3.473  0.5384 -0.6488  0.0518
11901TIP3    H157118   5.087   6.247   3.549 -0.0327  1.0908  1.0192
11901TIP3    H257119   5.212   6.296   3.479  0.4903 -0.0862  1.1138
11902TIP3   OH257120   6.147   2.079  16.045 -0.0633 -0.5399  0.0044
11902TIP3    H157121   6.143   2.022  15.969 -0.8315 -0.5370  0.0395
11902TIP3    H257122   6.064   2.126  16.044 -0.1742 -0.7054  0.9726
11903TIP3   OH257123   6.050   2.573   1.380 -0.2120 -0.4114  0.1862
11903TIP3    H157124   6.017   2.608   1.297  1.1187  0.4446  0.0049
11903TIP3    H257125   6.053   2.478   1.367  0.5329 -0.2428 -0.9554
11904TIP3   OH257126   5.052   0.555  16.854 -0.2732 -0.3531  0.3244
11904TIP3    H157127   5.091   0.489  16.911  0.6328  0.6326  0.8641
11904TIP3    H257128   5.019   0.505  16.779 -0.5243 -1.5284  1.1993
11905TIP3   OH257129   0.814   4.706   2.670  0.1606  0.0970  0.2304
11905TIP3    H157130   0.805   4.748   2.585  3.1438  0.0984 -0.1450
11905TIP3    H257131   0.867   4.628   2.653 -0.4018 -0.6710  1.8649
11906TIP3   OH257132   4.728   3.041  15.095  0.5394  0.0399 -0.5746
11906TIP3    H157133   4.814   3.080  15.109  0.5363  0.1114 -0.7599
11906TIP3    H257134   4.742   2.974  15.028 -0.1442  2.1998 -2.9473
11907TIP3   OH257135   4.349   0.568   5.798 -0.5435 -0.0164 -0.2263
11907TIP3    H157136   4.362   0.563   5.704  0.4401  0.7766 -0.1509
11907TIP3    H257137   4.278   0.630   5.810  0.8707  1.6688 -0.3755
11908TIP3   OH257138   3.085   2.413  12.489 -0.2148 -0.4348 -0.2133
11908TIP3    H157139   3.107   2.393  12.580 -3.7195  0.2129  0.8404
11908TIP3    H257140   3.126   2.498  12.473  1.3377 -1.0578  0.3865
11909TIP3   OH257141   1.440   3.445   2.227 -0.4057  0.5399  0.2369
11909TIP3    H157142   1.416   3.393   2.150 -1.4132  1.4953 -0.0994
11909TIP3    H257143   1.460   3.532   2.192  0.6110  0.5715  0.8797
11910TIP3   OH257144   6.691   6.126   2.735  0.8509 -0.3166  0.7744
11910TIP3    H157145   6.634   6.118   2.812  0.5277 -0.9001  0.4755
11910TIP3    H257146   6.729   6.214   2.743 -0.2776  0.1816  0.8605
11911TIP3   OH257147   5.887   0.526   0.522 -0.0154 -0.2643  0.2807
11911TIP3    H157148   5.945   0.487   0.588  2.2874  1.0098 -0.9028
11911TIP3    H257149   5.921   0.493   0.438 -1.1572  0.3242 -0.4228
11912TIP3   OH257150   4.405   4.682   5.171 -0.3994  0.1041  0.3251
11912TIP3    H157151   4.449   4.755   5.126 -0.1069  0.7932  1.7183
11912TIP3    H257152   4.312   4.703   5.165 -0.2785  0.9418  1.3006
11913TIP3   OH257153   2.501   6.366   3.526 -0.3709 -0.7732 -0.4647
11913TIP3    H157154   2.468   6.305   3.461 -0.7577 -0.6324 -0.4057
11913TIP3    H257155   2.484   6.453   3.488  0.8078 -0.7126 -0.8560
11914TIP3   OH257156   0.613   1.760  12.357  0.6569  0.2633 -0.4971
11914TIP3    H157157   0.539   1.699  12.350  0.1612  0.6693  0.9018
11914TIP3    H257158   0.690   1.704  12.360  0.3001 -0.2336 -0.5400
11915TIP3   OH257159   0.106   0.055   5.210 -0.6803  0.2615 -0.4171
11915TIP3    H157160   0.087   0.126   5.149  1.1075  0.0439 -1.2328
11915TIP3    H257161   0.097   0.095   5.297 -2.3931  0.7715 -0.8067
11916TIP3   OH257162   0.870   3.219  11.470 -0.3981  0.3807 -0.8855
11916TIP3    H157163   0.788   3.259  11.443 -0.8016  0.2534  0.1132
11916TIP3    H257164   0.873   3.233  11.565  0.2817 -0.4377 -0.7816
11917TIP3   OH257165   1.864   2.113   4.786 -0.3208 -0.4498 -0.1629
11917TIP3    H157166   1.934   2.165   4.824  0.2343  0.1130 -1.9246
11917TIP3    H257167   1.906   2.032   4.758 -0.7017 -0.7950  0.2403
11918TIP3   OH257168   0.695   5.478  17.128  0.4306 -0.0007 -0.5921
11918TIP3    H157169   0.605   5.508  17.142  0.3999 -0.4419  0.1636
11918TIP3    H257170   0.687   5.385  17.108  0.8379 -0.4085  1.0786
11919TIP3   OH257171   0.967   3.754   5.260  0.3899  0.0297  0.1142
11919TIP3    H157172   1.014   3.675   5.285  2.0101 -0.0357 -2.8085
11919TIP3    H257173   0.922   3.731   5.179 -1.4581  1.2734  0.7586
11920TIP3   OH257174   1.933   2.350   3.020 -0.2479 -0.2178 -0.7220
11920TIP3    H157175   1.847   2.392   3.024 -1.0140 -1.9582  2.7513
11920TIP3    H257176   1.916   2.264   2.983 -0.2673 -1.0599  1.1723
11921TIP3   OH257177   1.096   3.347   4.392  0.0639  0.1635 -0.0440
11921TIP3    H157178   1.083   3.258   4.426 -0.0843  0.8787  1.8021
11921TIP3    H257179   1.093   3.336   4.296  1.4637 -2.0104  0.1324
11922TIP3   OH257180   1.161   3.603  16.444  0.7380  0.0699 -0.2346
11922TIP3    H157181   1.183   3.561  16.361  0.5973 -0.2956 -0.0930
11922TIP3    H257182   1.066   3.598  16.448  0.5933  1.9614 -1.0221
11923TIP3   OH257183   5.302   6.163   3.044  0.1593 -0.1477 -0.1218
11923TIP3    H157184   5.209   6.171   3.024  0.0864  0.4660  0.4508
11923TIP3    H257185   5.343   6.239   3.004  0.2183  0.2954  0.7561
11924TIP3   OH257186   0.343   2.562   3.298  0.0308 -0.2849  0.3788
11924TIP3    H157187   0.352   2.522   3.384  1.6761  0.4492  0.5617
11924TIP3    H257188   0.338   2.488   3.237 -0.6449 -0.7907  1.0388
11925TIP3   OH257189   3.379   0.518   1.556 -0.5797 -0.2269  0.9195
11925TIP3    H157190   3.466   0.481   1.573 -0.0502  0.2120 -0.7063
11925TIP3    H257191   3.382   0.545   1.464 -2.6980 -0.8832  0.6278
11926TIP3   OH257192   1.164   4.000   6.737 -0.4704  0.0840 -0.1982
11926TIP3    H157193   1.090   4.056   6.761  0.2217  0.4937  1.0311
11926TIP3    H257194   1.124   3.920   6.702 -1.5097  0.0474  1.0330
11927TIP3   OH257195   5.571   1.757   6.660 -0.3752 -0.0683  0.6355
11927TIP3    H157196   5.620   1.675   6.652 -0.9834 -0.4286  0.5610
11927TIP3    H257197   5.513   1.759   6.584  2.4770  2.4004 -1.5626
11928TIP3   OH257198   6.209   4.659  13.213 -0.0883  0.2650 -0.3528
11928TIP3    H157199   6.268   4.588  13.188  1.9243  0.4123  3.6270
11928TIP3    H257200   6.246   4.737  13.171  1.1913 -0.0296  0.2176
11929TIP3   OH257201   2.591   5.420   6.185 -0.0580 -0.1068 -0.3648
11929TIP3    H157202   2.573   5.383   6.098  1.2153 -0.1964 -0.5990
11929TIP3    H257203   2.653   5.359   6.225 -1.4833 -0.6619  1.0667
11930TIP3   OH257204   5.100   1.343  12.156 -0.1662 -0.3956 -0.0613
11930TIP3    H157205   5.155   1.366  12.231 -0.9017 -1.8364  0.9462
11930TIP3    H257206   5.021   1.396  12.167 -0.7661 -1.4642  0.8333
11931TIP3   OH257207   4.899   5.412   2.823 -0.6360  0.7172  0.2204
11931TIP3    H157208   4.827   5.379   2.878  0.1285  1.6240  1.8231
11931TIP3    H257209   4.978   5.377   2.865 -0.1780 -1.5551 -2.4181
11932TIP3   OH257210   0.265   0.341   5.018 -0.6090  0.2271  0.9269
11932TIP3    H157211   0.356   0.314   5.029 -0.5756  1.0463  2.8463
11932TIP3    H257212   0.264   0.391   4.937  0.7876  0.7650  1.2374
11933TIP3   OH257213   4.479   3.706  11.850 -0.0550  0.1946  0.2276
11933TIP3    H157214   4.417   3.698  11.922 -1.0271 -0.1010 -0.6254
11933TIP3    H257215   4.558   3.662  11.880 -1.0131 -1.3660  0.4887
11934TIP3   OH257216   2.720   5.304   5.872 -0.6807  0.3788 -0.2243
11934TIP3    H157217   2.714   5.243   5.798 -1.6718  1.1146 -0.7722
11934TIP3    H257218   2.787   5.367   5.846 -0.5987  0.2814 -0.2448
11935TIP3   OH257219   2.822   4.098   1.190  0.1173  0.3770  0.1256
11935TIP3    H157220   2.897   4.133   1.142 -0.3378  0.3616 -0.5999
11935TIP3    H257221   2.751   4.158   1.172 -0.3655 -0.2794 -0.1942
11936TIP3   OH257222   4.360   0.056   2.834 -0.8050  0.3761 -0.4634
11936TIP3    H157223   4.336  -0.013   2.895 -2.3446  0.5785 -0.8130
11936TIP3    H257224   4.454   0.046   2.821 -0.7399 -0.6201  0.7498
11937TIP3   OH257225   3.916   3.161   1.331  0.1171 -0.3516  0.1539
11937TIP3    H157226   3.897   3.195   1.418 -0.3212 -0.2282  0.0125
11937TIP3    H257227   3.861   3.213   1.272  0.4569 -0.3917 -0.2020
11938TIP3   OH257228   1.161   0.909  12.795  0.1523  0.4065 -0.1523
11938TIP3    H157229   1.221   0.913  12.721  0.8676  0.0132  0.4018
11938TIP3    H257230   1.093   0.847  12.768 -0.0253  0.8658 -0.7845
11939TIP3   OH257231   2.069   0.042   3.586  0.3638 -0.0659  0.0804
11939TIP3    H157232   2.021   0.034   3.503  0.1567  1.6976  0.0063
11939TIP3    H257233   2.081  -0.048   3.616  0.5680 -0.7336 -1.9450
11940TIP3   OH257234   6.124   1.245   1.729  0.3364  0.2197 -0.7216
11940TIP3    H157235   6.193   1.230   1.665  0.0004  2.2989 -1.6213
11940TIP3    H257236   6.153   1.321   1.779 -0.2555 -0.2710  0.3892
11941TIP3   OH257237   3.992   2.368   3.189  0.3888 -0.1445  0.2847
11941TIP3    H157238   3.934   2.394   3.261  0.0097  2.0029 -0.7628
11941TIP3    H257239   4.039   2.292   3.223  0.6379  1.1665  3.0411
11942TIP3   OH257240   2.823   4.646  17.187  0.2767 -0.5222 -0.3065
11942TIP3    H157241   2.729   4.648  17.168  0.0153  0.9737  1.0431
11942TIP3    H257242   2.843   4.553  17.195 -1.1591 -0.8516 -0.3043
11943TIP3   OH257243   2.619   5.690   2.822 -0.0579 -0.2471  0.3666
11943TIP3    H157244   2.686   5.623   2.834  0.4619  0.4628  1.5417
11943TIP3    H257245   2.644   5.760   2.882 -1.4654  0.3246  0.3150
11944TIP3   OH257246   4.125   2.277  12.125  0.2833 -0.0479 -0.2381
11944TIP3    H157247   4.050   2.327  12.157 -0.1191 -1.0042  0.3449
11944TIP3    H257248   4.100   2.185  12.140  1.1440 -0.4075 -0.9836
11945TIP3   OH257249   5.513   0.619  12.368  0.4358 -0.1053  0.4530
11945TIP3    H157250   5.504   0.604  12.462 -0.1988 -0.3168  0.3605
11945TIP3    H257251   5.467   0.702  12.353 -0.0592 -0.4161  0.2239
11946TIP3   OH257252   1.874   5.297   4.779 -0.4446 -0.1189 -0.1024
11946TIP3    H157253   1.803   5.359   4.795 -0.3165 -0.1311  0.5128
11946TIP3    H257254   1.910   5.278   4.865  0.5662  0.1956 -0.4446
11947TIP3   OH257255   5.697   4.824   1.128  0.2654 -0.7181 -0.3316
11947TIP3    H157256   5.646   4.892   1.084 -1.7522 -0.8982  1.6593
11947TIP3    H257257   5.748   4.784   1.058 -0.9710  0.6609 -2.0784
11948TIP3   OH257258   1.501   2.541   5.732  0.3047  0.0366  0.6873
11948TIP3    H157259   1.502   2.515   5.825  0.7926 -1.5070  0.2629
11948TIP3    H257260   1.593   2.554   5.711  0.2761 -0.6195  0.1501
11949TIP3   OH257261   6.549   2.440  11.319 -0.6150  0.1571  0.0520
11949TIP3    H157262   6.519   2.394  11.398  1.0764 -1.0703  0.0113
11949TIP3    H257263   6.622   2.495  11.349  0.6952 -1.0692 -0.7981
11950TIP3   OH257264   4.994   6.227  14.814 -0.3439 -0.0857 -0.0781
11950TIP3    H157265   5.055   6.160  14.842  0.5739  0.0754 -1.6598
11950TIP3    H257266   5.033   6.264  14.735 -1.5829  1.2692 -0.0794
11951TIP3   OH257267   6.655   3.214   5.121  0.4017 -0.0948  0.2504
11951TIP3    H157268   6.590   3.184   5.057  0.0613  1.4353 -0.1400
11951TIP3    H257269   6.614   3.196   5.206 -1.2849  2.4001  0.0081
11952TIP3   OH257270   5.734   5.982   5.887 -0.3849 -0.2861 -0.0014
11952TIP3    H157271   5.813   5.960   5.838  1.2873  2.4742  1.3287
11952TIP3    H257272   5.746   5.939   5.972  0.4086  1.2983  0.7130
11953TIP3   OH257273   4.555   6.265  16.607  0.1676 -0.0199 -0.6818
11953TIP3    H157274   4.582   6.203  16.540 -0.8062  0.8030 -1.8634
11953TIP3    H257275   4.468   6.235  16.633 -0.2212  0.7150 -1.1128
11954TIP3   OH257276   3.822   0.705  16.889  0.2559 -0.0278 -0.5113
11954TIP3    H157277   3.809   0.767  16.960  0.3025 -1.0016  0.3505
11954TIP3    H257278   3.893   0.648  16.919 -0.1806 -0.8682 -1.0431
11955TIP3   OH257279   3.232   6.347  15.717 -0.2102  0.6896 -0.3207
11955TIP3    H157280   3.217   6.356  15.622 -0.4545  2.8707 -0.1228
11955TIP3    H257281   3.202   6.259  15.738 -1.5289  0.6877 -2.0455
11956TIP3   OH257282   2.291   3.647  12.369 -0.0206  0.1255 -0.2996
11956TIP3    H157283   2.378   3.686  12.376 -0.1757  0.8646 -2.3396
11956TIP3    H257284   2.240   3.709  12.317 -1.4456 -0.8655 -0.1312
11957TIP3   OH257285   5.840   4.878  16.816 -0.2600 -0.1093 -0.1154
11957TIP3    H157286   5.790   4.907  16.892 -1.1654 -0.1677 -0.6810
11957TIP3    H257287   5.796   4.919  16.741 -0.3692 -1.3519 -0.7531
11958TIP3   OH257288   1.347   0.056  15.369  0.4332 -0.0706 -0.7773
11958TIP3    H157289   1.385  -0.031  15.358  0.9860 -0.3990  3.0484
11958TIP3    H257290   1.383   0.087  15.452 -1.3644  2.9645 -1.0765
11959TIP3   OH257291   3.335   4.820  15.245  0.4063  0.3229  0.2902
11959TIP3    H157292   3.310   4.890  15.185  1.2773 -2.1132 -3.0509
11959TIP3    H257293   3.252   4.788  15.280 -0.2385  0.7999 -0.7736
11960TIP3   OH257294   3.200   1.208   5.957  0.1998 -0.0833 -0.0934
11960TIP3    H157295   3.292   1.222   5.932 -0.0168 -0.3678 -1.0837
11960TIP3    H257296   3.161   1.295   5.953  0.3652 -0.0020  0.0649
11961TIP3   OH257297   4.409   3.241  16.250  0.5224 -0.3994  0.5680
11961TIP3    H157298   4.429   3.332  16.269 -1.2164  0.1437 -0.0794
11961TIP3    H257299   4.360   3.244  16.168  1.1525 -1.9891  0.1175
11962TIP3   OH257300   1.833   2.271   0.407  0.4375  0.2514  0.2562
11962TIP3    H157301   1.757   2.322   0.380 -0.8930 -1.6579  0.2671
11962TIP3    H257302   1.902   2.295   0.345 -0.7733  0.5179 -1.0183
11963TIP3   OH257303   3.709   4.812  16.996 -0.2279  0.5301 -0.4514
11963TIP3    H157304   3.802   4.819  16.976  0.0497  0.2192  0.6969
11963TIP3    H257305   3.698   4.856  17.080 -1.0209  0.1180 -0.3269
11964TIP3   OH257306   2.712   5.223  11.254 -0.5613  0.2805 -0.5934
11964TIP3    H157307   2.765   5.175  11.191  1.2399 -0.1320  1.1901
11964TIP3    H257308   2.759   5.306  11.267  0.0378 -0.3481  1.4654
11965TIP3   OH257309   0.252   4.524   2.027  0.7080  0.0247 -0.1242
11965TIP3    H157310   0.314   4.583   1.983  0.6660 -1.0650 -1.6828
11965TIP3    H257311   0.170   4.535   1.979  0.9335 -1.9381 -0.9594
11966TIP3   OH257312   5.374   0.659   2.521  0.1190  0.3294 -0.2226
11966TIP3    H157313   5.346   0.607   2.445 -1.2898  1.6545 -0.6457
11966TIP3    H257314   5.428   0.600   2.573  0.5778 -0.7846 -1.9537
11967TIP3   OH257315   1.177   5.182  14.479  0.3138 -0.1227 -0.1198
11967TIP3    H157316   1.137   5.134  14.552 -0.5035 -1.2093 -1.2686
11967TIP3    H257317   1.134   5.147  14.401  0.4831  1.7316 -1.0596
11968TIP3   OH257318   2.350   1.341   0.708  0.3909 -0.1770  0.6924
11968TIP3    H157319   2.445   1.336   0.717  0.4465 -1.2580 -0.4961
11968TIP3    H257320   2.331   1.294   0.628 -1.1862 -0.2013  1.0758
11969TIP3   OH257321   5.046   0.749  11.798 -0.1326 -0.1433  0.5687
11969TIP3    H157322   5.040   0.664  11.755 -1.6251  0.6494 -0.8177
11969TIP3    H257323   5.114   0.796  11.750 -0.8140  0.2350 -0.0150
11970TIP3   OH257324   0.618   5.260  14.472 -0.1645  0.1328  0.1038
11970TIP3    H157325   0.563   5.210  14.533  0.1134 -0.5127 -0.1740
11970TIP3    H257326   0.639   5.198  14.403  1.6689  0.1009  0.6753
11971TIP3   OH257327   4.591   6.748   2.563 -0.0871 -0.1854 -0.5270
11971TIP3    H157328   4.498   6.741   2.583 -0.3099 -1.6786 -1.9896
11971TIP3    H257329   4.594   6.797   2.480  0.6013  2.3962  0.9602
11972TIP3   OH257330   4.843   4.737   2.102  1.0597 -0.1571 -0.6625
11972TIP3    H157331   4.893   4.752   2.183 -0.0951 -2.3991  0.5189
11972TIP3    H257332   4.904   4.692   2.044  0.7269 -2.0694  0.4410
11973TIP3   OH257333   2.785   6.430  14.682  0.5475  0.1134  0.2033
11973TIP3    H157334   2.820   6.518  14.666  1.5968 -0.0477  1.5477
11973TIP3    H257335   2.855   6.385  14.728 -0.3808 -1.1195  0.4153
11974TIP3   OH257336   5.545   3.863   6.175 -0.3719  0.4870 -0.4133
11974TIP3    H157337   5.521   3.783   6.221  0.2837  0.0126 -0.8881
11974TIP3    H257338   5.542   3.931   6.242  1.0488 -0.2676  0.4412
11975TIP3   OH257339   5.885   1.926   3.403 -0.0271  0.1933 -0.1135
11975TIP3    H157340   5.978   1.945   3.419  0.5191 -2.4415  0.0343
11975TIP3    H257341   5.864   1.977   3.325  2.3501 -1.3686 -1.8680
11976TIP3   OH257342   4.997   3.240   1.912  0.0947 -0.0414  0.1633
11976TIP3    H157343   4.927   3.271   1.970 -2.1764 -2.4052 -1.1705
11976TIP3    H257344   5.007   3.310   1.847 -1.1836  0.2610  0.2702
11977TIP3   OH257345   6.122   1.480  14.309  0.3334  0.2489 -0.0173
11977TIP3    H157346   6.156   1.490  14.398  0.5192 -0.1215 -0.0468
11977TIP3    H257347   6.079   1.395  14.309 -1.4607  1.1102  0.2999
11978TIP3   OH257348   1.387   3.921   0.799 -0.7012  0.2488  0.1311
11978TIP3    H157349   1.387   3.911   0.894  2.7711 -1.3236  0.0506
11978TIP3    H257350   1.321   3.859   0.768  1.2814 -2.5797  1.3325
11979TIP3   OH257351   4.646   1.292   5.946  0.1171  0.4219  0.1774
11979TIP3    H157352   4.573   1.233   5.966 -1.2965  1.5956 -1.3718
11979TIP3    H257353   4.667   1.274   5.855  0.7693  1.1512  0.1825
11980TIP3   OH257354   4.837   5.343  15.501  0.1889 -0.2256  0.6909
11980TIP3    H157355   4.793   5.264  15.534 -0.5058  0.1421  0.6485
11980TIP3    H257356   4.780   5.374  15.431  1.2698 -0.5755 -0.3642
11981TIP3   OH257357   0.534   4.165   4.217  0.3034 -0.2882  0.4596
11981TIP3    H157358   0.500   4.090   4.168 -1.1338  0.4464  0.2919
11981TIP3    H257359   0.629   4.154   4.216  0.0689 -2.8891  1.7032
11982TIP3   OH257360   4.388   3.318   3.192 -0.6252  0.2469 -0.1800
11982TIP3    H157361   4.361   3.335   3.283 -1.4493  2.0175 -0.7269
11982TIP3    H257362   4.482   3.303   3.198 -0.6233  0.6304  0.9533
11983TIP3   OH257363   0.852   3.339   3.788  0.5288  0.1795  0.1956
11983TIP3    H157364   0.848   3.319   3.882  1.5220 -0.4209  0.1208
11983TIP3    H257365   0.903   3.420   3.783  2.1389 -0.8270  0.0504
11984TIP3   OH257366   2.143   2.669  14.792 -0.3464 -0.2394 -0.0193
11984TIP3    H157367   2.126   2.605  14.861 -2.1374  0.3761  0.1463
11984TIP3    H257368   2.132   2.620  14.711  0.4049 -0.6476  0.1290
11985TIP3   OH257369   4.978   2.460   5.398  0.1657 -0.4270  0.4932
11985TIP3    H157370   4.932   2.537   5.433  0.2407  0.3836 -1.1630
11985TIP3    H257371   4.936   2.386   5.442 -0.8529  0.4702  1.0636
11986TIP3   OH257372   2.894   4.440  15.654 -0.2609 -0.1024 -0.0724
11986TIP3    H157373   2.984   4.408  15.654  0.3412  1.4065 -3.0465
11986TIP3    H257374   2.900   4.531  15.682 -0.6892  0.3687 -1.4590
11987TIP3   OH257375   5.942   5.324   2.601 -0.1221  0.4139 -0.3027
11987TIP3    H157376   5.869   5.263   2.587 -0.3722  0.4577  0.8073
11987TIP3    H257377   5.900   5.408   2.621  0.2363  0.5910 -0.2858
11988TIP3   OH257378   1.780   4.451   0.434 -0.6266  0.0611 -0.0674
11988TIP3    H157379   1.721   4.376   0.437  0.4729 -0.7882  0.8139
11988TIP3    H257380   1.868   4.413   0.427 -0.0686  1.2750  0.0814
11989TIP3   OH257381   5.796   1.354   4.408 -0.1869 -1.1543  0.5980
11989TIP3    H157382   5.782   1.358   4.502 -2.0372 -1.8062  0.3647
11989TIP3    H257383   5.728   1.294   4.376 -0.9499  0.7305 -1.4034
11990TIP3   OH257384   3.222   2.602   1.723 -0.0737  0.3783 -0.1793
11990TIP3    H157385   3.269   2.676   1.761  0.0993  1.1193 -1.7939
11990TIP3    H257386   3.226   2.617   1.629 -0.2275 -1.5793 -0.5140
11991TIP3   OH257387   1.205   2.241  15.380  0.1846 -0.4896  0.6372
11991TIP3    H157388   1.195   2.244  15.475 -2.0832  0.1063  0.3907
11991TIP3    H257389   1.174   2.154  15.355 -2.2418  0.4851  0.1294
11992TIP3   OH257390   5.345   5.631   4.256 -0.2194 -0.1567  0.3336
11992TIP3    H157391   5.278   5.581   4.303 -0.0354  0.2775  1.0549
11992TIP3    H257392   5.355   5.584   4.173 -1.4254 -0.2158  0.2124
11993TIP3   OH257393   3.329   3.598  13.358  0.3065  0.4983 -0.2413
11993TIP3    H157394   3.355   3.689  13.366 -0.2876  0.6019  0.6474
11993TIP3    H257395   3.235   3.601  13.339  0.5108  0.0936 -1.3647
11994TIP3   OH257396   0.774   6.255  14.448  0.3996  0.1381 -0.2244
11994TIP3    H157397   0.766   6.317  14.521  0.7539  0.8618 -0.7986
11994TIP3    H257398   0.723   6.179  14.476  1.4515 -0.0317  1.2593
11995TIP3   OH257399   2.278   1.338   1.045 -0.4629 -0.1272  0.1083
11995TIP3    H157400   2.303   1.287   1.122 -1.3324 -0.2272  0.3234
11995TIP3    H257401   2.342   1.409   1.042 -0.4653 -0.0790  0.9706
11996TIP3   OH257402   0.403   6.710   5.181  0.2796  0.1195 -0.8761
11996TIP3    H157403   0.428   6.786   5.128 -0.0895  2.5970  2.3705
11996TIP3    H257404   0.307   6.715   5.185  0.3778  0.6831  1.0307
11997TIP3   OH257405   0.551   0.642  11.565 -0.0457 -0.4599 -0.5688
11997TIP3    H157406   0.487   0.675  11.502  1.5060 -0.9779 -2.4679
11997TIP3    H257407   0.553   0.547  11.551  1.9587 -0.3258 -1.3551
11998TIP3   OH257408   2.629   3.564  15.109 -0.1946 -0.0069 -0.4385
11998TIP3    H157409   2.625   3.468  15.105  0.1418 -0.1914  2.2146
11998TIP3    H257410   2.686   3.589  15.036  0.5646 -1.9241 -0.5472
11999TIP3   OH257411   4.867   5.386   1.195 -0.1596 -0.0106  0.3723
11999TIP3    H157412   4.816   5.435   1.260 -0.4304 -0.6377  0.6333
11999TIP3    H257413   4.919   5.324   1.247  1.4807  1.1613  0.1803
12000TIP3   OH257414   1.475   2.617   2.609 -0.3088 -0.0905  0.7913
12000TIP3    H157415   1.467   2.562   2.531 -1.1807  1.3062 -0.1077
12000TIP3    H257416   1.508   2.700   2.577 -2.0024  0.9672  1.7140
12001TIP3   OH257417   3.779   6.716   0.194  0.0659  0.3566 -0.3885
12001TIP3    H157418   3.816   6.647   0.139  1.1559  0.8949 -0.3328
12001TIP3    H257419   3.843   6.787   0.191  0.1276  0.4156  1.5198
12002TIP3   OH257420   4.151   6.007   0.414 -0.2709 -0.6786  0.0155
12002TIP3    H157421   4.209   6.000   0.490 -0.5067 -1.3714  0.1308
12002TIP3    H257422   4.209   6.024   0.341 -0.0567  0.2135  0.3827
12003TIP3   OH257423   3.326   2.196  11.361  0.5723 -0.2919  0.0939
12003TIP3    H157424   3.392   2.177  11.428  3.3187  1.1753 -2.0971
12003TIP3    H257425   3.343   2.133  11.291  0.5958  1.0656 -1.1335
12004TIP3   OH257426   6.761   6.044   0.573 -0.2754  0.0000 -0.9113
12004TIP3    H157427   6.802   6.098   0.505  0.0173  0.8141 -0.0976
12004TIP3    H257428   6.680   6.090   0.595  0.1417  0.3070  0.0289
12005TIP3   OH257429   3.453   5.730   2.272  0.0185  0.1796 -0.0119
12005TIP3    H157430   3.381   5.752   2.331  0.1366 -1.7728  0.9372
12005TIP3    H257431   3.478   5.812   2.231 -1.5317  1.1915  1.0419
12006TIP3   OH257432   1.938   0.938   4.478  0.1666  0.0199  0.1459
12006TIP3    H157433   2.013   0.990   4.449  0.9396 -0.5962  1.0232
12006TIP3    H257434   1.933   0.955   4.572 -0.9986  0.3096  0.0359
12007TIP3   OH257435   3.735   5.457  16.430  0.0189  0.0707  0.0480
12007TIP3    H157436   3.769   5.455  16.340  0.7615 -0.5768  0.3448
12007TIP3    H257437   3.719   5.365  16.452  1.1298  0.1092  1.0646
12008TIP3   OH257438   4.828   0.840   3.693  0.3277 -0.1127 -0.9873
12008TIP3    H157439   4.912   0.880   3.717 -0.2909  1.8248 -1.9431
12008TIP3    H257440   4.787   0.820   3.777  1.0598  0.4215 -0.4902
12009TIP3   OH257441   3.256   5.306  15.021 -0.5787 -0.0127  0.5978
12009TIP3    H157442   3.183   5.331  15.078 -0.9938  0.3603 -0.0943
12009TIP3    H257443   3.301   5.388  15.002 -0.0829 -0.2173  0.8688
12010TIP3   OH257444   6.405   3.726  12.182 -0.4970 -0.1990 -0.3616
12010TIP3    H157445   6.497   3.753  12.177 -1.2178  2.6322  0.9842
12010TIP3    H257446   6.407   3.632  12.161  2.7852 -0.3873  0.4923
12011TIP3   OH257447   3.467   2.245  15.385 -0.5769 -0.6858  0.7826
12011TIP3    H157448   3.378   2.275  15.370 -0.5257 -0.6561  0.5329
12011TIP3    H257449   3.522   2.311  15.342 -0.4786 -1.3662 -0.1684
12012TIP3   OH257450   3.644   0.735  11.368 -0.3697  0.1378 -0.3426
12012TIP3    H157451   3.665   0.753  11.276 -2.0610  0.9323 -0.6082
12012TIP3    H257452   3.642   0.822  11.409 -2.1384  0.0314 -0.1492
12013TIP3   OH257453   2.142   3.312   3.648 -0.2347  0.1346 -0.0138
12013TIP3    H157454   2.088   3.279   3.576  0.8628  0.1627 -0.8684
12013TIP3    H257455   2.145   3.407   3.633  0.4643  0.0757 -0.2677
12014TIP3   OH257456   6.488   5.291   3.784 -0.2520  0.2598 -0.3861
12014TIP3    H157457   6.572   5.291   3.830 -0.1907  0.7877 -0.4869
12014TIP3    H257458   6.461   5.383   3.785 -1.9807 -0.2434  1.7446
12015TIP3   OH257459   3.153   4.753   1.397  0.0807 -0.1237  0.1333
12015TIP3    H157460   3.085   4.728   1.335  0.0910 -0.5493  0.2942
12015TIP3    H257461   3.142   4.847   1.408 -0.7066 -0.2540  0.4403
12016TIP3   OH257462   3.139   2.316  12.199  0.3409  0.3940 -0.4012
12016TIP3    H157463   3.115   2.353  12.284 -0.2030 -0.6269 -0.1135
12016TIP3    H257464   3.191   2.239  12.219  1.1358  0.7556 -1.0105
12017TIP3   OH257465   6.139   6.574  15.993 -0.0804 -0.0982  0.9037
12017TIP3    H157466   6.100   6.662  16.000  0.4425  0.1137  1.1486
12017TIP3    H257467   6.232   6.588  16.011 -0.1072 -0.8044  1.5979
12018TIP3   OH257468   5.142   0.160   5.341 -0.2469  0.4246  0.0196
12018TIP3    H157469   5.083   0.207   5.400 -2.4255 -0.1389 -1.6518
12018TIP3    H257470   5.088   0.089   5.305  1.7067 -0.6105 -0.9144
12019TIP3   OH257471   1.625   2.300  15.916  0.3596  0.5623 -0.6185
12019TIP3    H157472   1.561   2.247  15.963  1.6588  1.4824  2.2608
12019TIP3    H257473   1.662   2.241  15.850 -0.6364 -1.0973  0.2808
12020TIP3   OH257474   4.024   0.775   4.458  0.1380 -0.3531 -0.5295
12020TIP3    H157475   4.009   0.777   4.553  3.2606 -2.4718  0.0625
12020TIP3    H257476   3.988   0.692   4.429  1.7247 -0.9868 -0.7200
12021TIP3   OH257477   6.515   3.851   2.692 -0.4843 -0.5871  0.0809
12021TIP3    H157478   6.423   3.846   2.717 -0.3732  0.7802  0.8677
12021TIP3    H257479   6.558   3.782   2.742 -1.1894 -1.6927 -0.8310
12022TIP3   OH257480   3.921   5.765   2.213 -0.0071  0.2921  0.2861
12022TIP3    H157481   3.834   5.766   2.174 -0.2668  0.4796  0.8575
12022TIP3    H257482   3.970   5.699   2.163  0.2950  1.9686 -1.6793
12023TIP3   OH257483   3.208   4.409  13.776 -1.1375  0.2324 -0.0102
12023TIP3    H157484   3.209   4.503  13.797 -2.2756 -0.0582  1.3980
12023TIP3    H257485   3.178   4.406  13.685  0.0522  1.2898 -0.4559
12024TIP3   OH257486   5.942   5.227  12.817 -0.0035  0.8009  0.1206
12024TIP3    H157487   5.884   5.272  12.756 -0.5142 -0.2310 -0.1745
12024TIP3    H257488   5.899   5.237  12.902 -0.7358 -0.1161 -0.1222
12025TIP3   OH257489   4.248   5.298  12.528 -0.1788  0.1041 -0.3793
12025TIP3    H157490   4.184   5.262  12.467 -0.4109 -0.1424  0.0074
12025TIP3    H257491   4.196   5.348  12.591  0.0916  0.6528 -0.5865
12026TIP3   OH257492   6.757   3.895   1.901 -0.5515 -0.6336 -0.2693
12026TIP3    H157493   6.823   3.884   1.970  0.8276  0.5875 -1.3794
12026TIP3    H257494   6.803   3.875   1.820 -1.8562 -0.8613 -0.9707
12027TIP3   OH257495   1.739   3.642   2.128  0.5003 -0.2393 -0.0471
12027TIP3    H157496   1.698   3.575   2.074  1.7141 -0.5451 -0.5789
12027TIP3    H257497   1.753   3.716   2.069  1.0778 -0.2741  0.0470
12028TIP3   OH257498   1.342   0.000   5.787  0.1945  0.3432 -0.5103
12028TIP3    H157499   1.281  -0.054   5.837 -0.1842 -0.7921 -2.1667
12028TIP3    H257500   1.288   0.042   5.720  1.0465  0.1989 -1.2982
12029TIP3   OH257501   4.002   5.790  13.794 -0.4354  0.2487 -0.0218
12029TIP3    H157502   4.019   5.883  13.801  1.1367 -0.0616  0.4509
12029TIP3    H257503   4.067   5.758  13.732 -0.6028 -0.6284  0.2448
12030TIP3   OH257504   0.237   0.443  16.699 -0.3416  0.4801 -0.0129
12030TIP3    H157505   0.196   0.495  16.767 -0.2786  0.7314 -0.1653
12030TIP3    H257506   0.168   0.430  16.633 -0.8869 -1.1216  0.8381
12031TIP3   OH257507   5.187   5.458  12.617 -0.0909 -0.1535 -0.0991
12031TIP3    H157508   5.201   5.552  12.625 -2.7428  0.3559 -0.9149
12031TIP3    H257509   5.230   5.420  12.694  0.8252  1.7356  0.3361
12032TIP3   OH257510   5.628   5.505   3.890 -0.2089 -0.4517 -0.3706
12032TIP3    H157511   5.710   5.480   3.932 -1.1657 -2.6723  0.2647
12032TIP3    H257512   5.638   5.476   3.799  0.9269  2.1989 -1.1454
12033TIP3   OH257513   5.621   0.615  14.431 -0.0376  0.0994  0.2696
12033TIP3    H157514   5.617   0.598  14.525  3.2045 -0.2386  0.3915
12033TIP3    H257515   5.711   0.593  14.406 -0.7709  0.4357 -2.8696
12034TIP3   OH257516   5.149   6.705  14.072 -0.0963  0.1011  0.0952
12034TIP3    H157517   5.213   6.776  14.068 -0.1368  0.2038  1.0469
12034TIP3    H257518   5.098   6.724  14.151 -0.3250 -0.8025  0.1704
12035TIP3   OH257519   0.984   5.176  17.223 -0.0396  0.3562 -0.2866
12035TIP3    H157520   0.969   5.254  17.276  0.4890  0.9786 -1.0288
12035TIP3    H257521   0.945   5.198  17.138 -1.9932 -1.1033  0.2124
12036TIP3   OH257522   1.055   2.173   0.003  0.0172  0.0320 -0.1861
12036TIP3    H157523   1.039   2.084   0.033  0.9917  0.4666  1.7494
12036TIP3    H257524   1.060   2.166  -0.092 -0.9388 -1.7947 -0.1223
12037TIP3   OH257525   3.154   3.032  10.641 -0.3009  0.2792  0.2859
12037TIP3    H157526   3.137   3.126  10.636  1.1963  0.4452 -2.6788
12037TIP3    H257527   3.106   2.995  10.567 -0.5969 -1.2647  1.2273
12038TIP3   OH257528   6.043   2.871   4.418 -0.0546  0.5903 -0.3856
12038TIP3    H157529   6.020   2.925   4.343  0.7284  0.4129 -0.7599
12038TIP3    H257530   6.137   2.853   4.407 -0.4361 -1.3778 -0.6113
12039TIP3   OH257531   4.811   1.142  14.654 -0.1753 -0.5046  0.5745
12039TIP3    H157532   4.734   1.094  14.622 -0.4990  1.4779 -1.8026
12039TIP3    H257533   4.885   1.097  14.615 -0.4160  0.1255 -0.6719
12040TIP3   OH257534   3.177   5.912  16.742 -0.1290  0.2493  0.0311
12040TIP3    H157535   3.237   5.894  16.669 -0.5788  1.0949 -0.5507
12040TIP3    H257536   3.176   6.007  16.750 -1.4705  0.2571 -0.0416
12041TIP3   OH257537   5.487   5.887   2.225  0.0632 -0.7181 -0.2001
12041TIP3    H157538   5.526   5.824   2.164  0.8046 -2.1012  1.6410
12041TIP3    H257539   5.399   5.854   2.241  0.5770 -1.5300  1.0497
12042TIP3   OH257540   0.615   6.085  14.642 -0.6221 -0.5815  0.0394
12042TIP3    H157541   0.697   6.127  14.671 -1.8957  1.2890  1.0331
12042TIP3    H257542   0.628   5.992  14.660  1.1800 -0.2819  0.4295
12043TIP3   OH257543   1.900   4.598   3.993  0.0978 -0.4901 -0.2356
12043TIP3    H157544   1.887   4.563   3.905  0.0080 -0.2959 -0.2978
12043TIP3    H257545   1.895   4.521   4.050  2.7255 -0.9869 -0.6360
12044TIP3   OH257546   3.225   0.314   2.845  0.6507  0.1060 -0.2645
12044TIP3    H157547   3.300   0.287   2.792  0.0992 -0.0564 -0.9636
12044TIP3    H257548   3.232   0.261   2.925  0.1636 -1.3729 -1.1764
12045TIP3   OH257549   0.157   0.034  12.906  0.4495  0.1990 -0.5356
12045TIP3    H157550   0.071   0.077  12.910 -1.3142 -3.1453  0.2065
12045TIP3    H257551   0.202   0.064  12.985 -1.7699 -1.2262  1.3646
12046TIP3   OH257552   2.374   6.765  13.115  0.4370  0.2558  0.5620
12046TIP3    H157553   2.337   6.724  13.194 -1.3148  2.8206  1.1682
12046TIP3    H257554   2.408   6.849  13.147 -0.0777  1.2152 -1.3540
12047TIP3   OH257555   1.516   0.370   0.851 -0.3458 -0.4102 -0.1562
12047TIP3    H157556   1.506   0.366   0.756 -0.3429  0.0396 -0.1737
12047TIP3    H257557   1.460   0.442   0.878 -0.5596 -0.7172  0.2153
12048TIP3   OH257558   0.864   5.805  14.159 -0.2204  0.2947 -0.6656
12048TIP3    H157559   0.953   5.840  14.167  0.6452 -1.3566 -2.5989
12048TIP3    H257560   0.864   5.727  14.214 -1.2889  1.6746  1.3682
12049TIP3   OH257561   1.604   5.672   0.034  0.1664 -0.1867  0.3440
12049TIP3    H157562   1.579   5.626  -0.046  0.1208  0.3921  0.0225
12049TIP3    H257563   1.699   5.673   0.033  0.1740 -0.5114  0.4905
12050TIP3   OH257564   1.802   1.855   5.061  0.2331  0.1537 -0.4388
12050TIP3    H157565   1.818   1.949   5.054  3.1668 -0.2364  0.1648
12050TIP3    H257566   1.741   1.845   5.134  1.3987  1.4725  0.7256
12051TIP3   OH257567   2.726   3.148  12.084 -0.6905 -0.4573  0.1085
12051TIP3    H157568   2.774   3.209  12.027 -0.2485 -1.4772 -0.6184
12051TIP3    H257569   2.650   3.122  12.033  0.0455 -1.8833 -0.2963
12052TIP3   OH257570   6.392   1.715  13.563  0.3376  0.7916  1.0904
12052TIP3    H157571   6.448   1.647  13.601 -1.7425 -2.8814 -2.0070
12052TIP3    H257572   6.451   1.768  13.510  1.7429  0.2926  2.1457
12053TIP3   OH257573   0.231   5.386  15.331  0.4335 -0.0118 -0.0843
12053TIP3    H157574   0.257   5.477  15.340  1.5717 -0.2180 -1.1633
12053TIP3    H257575   0.147   5.388  15.286  1.0982  0.4474 -1.3079
12054TIP3   OH257576   2.030   0.720   4.334  0.3639  0.0981 -0.2541
12054TIP3    H157577   1.983   0.749   4.412 -0.1465  0.6057 -0.7441
12054TIP3    H257578   1.996   0.632   4.317 -1.3091  0.9198 -1.2921
12055TIP3   OH257579   2.287   6.180  16.928 -0.7127 -0.0161  0.5664
12055TIP3    H157580   2.274   6.094  16.968 -0.5042 -0.2564  0.1233
12055TIP3    H257581   2.369   6.172  16.879 -2.8586 -0.8774 -3.0240
12056TIP3   OH257582   5.357   5.456   5.044  0.3324  0.6722  0.2070
12056TIP3    H157583   5.446   5.492   5.051  0.2551  1.0737 -0.8976
12056TIP3    H257584   5.304   5.530   5.015 -0.3429  0.3956  0.7452
12057TIP3   OH257585   0.147   6.194  13.485 -0.0885  0.1410 -0.5617
12057TIP3    H157586   0.094   6.204  13.406 -0.5787 -1.0575 -0.3838
12057TIP3    H257587   0.159   6.100  13.495 -0.7392  0.2387  1.2665
12058TIP3   OH257588   1.361   3.674   0.629  0.1144 -0.0288  0.1593
12058TIP3    H157589   1.359   3.592   0.678 -1.0043 -0.6380 -0.8569
12058TIP3    H257590   1.411   3.653   0.550  3.0287  1.2899  1.5991
12059TIP3   OH257591   2.697   0.081  16.303 -0.1538 -0.4556  0.0326
12059TIP3    H157592   2.636   0.140  16.346  0.3573 -0.8161  1.2762
12059TIP3    H257593   2.783   0.120  16.318 -0.1587  0.8626 -3.0130
12060TIP3   OH257594   4.562   0.497   3.238  0.8358 -0.5649 -0.0341
12060TIP3    H157595   4.636   0.463   3.289  2.0598  1.9259 -0.0766
12060TIP3    H257596   4.592   0.582   3.206 -2.0362  0.4827 -0.0869
12061TIP3   OH257597   3.089   0.893  14.735  1.4231  0.5699 -0.1134
12061TIP3    H157598   3.133   0.814  14.764 -0.3075 -0.9711 -1.5251
12061TIP3    H257599   2.996   0.877  14.754  1.0589  2.3057 -0.3288
12062TIP3   OH257600   2.969   4.967   0.868  0.2547  0.6890 -0.3417
12062TIP3    H157601   2.965   4.912   0.789 -0.9600 -0.4345  0.4820
12062TIP3    H257602   3.045   4.936   0.915  0.1161  0.3397 -0.3432
12063TIP3   OH257603   6.502   4.282   1.615 -0.0585  0.0107  0.5410
12063TIP3    H157604   6.479   4.189   1.612 -1.8965  0.4746 -0.6292
12063TIP3    H257605   6.512   4.308   1.524  0.6190  0.9185  0.8606
12064TIP3   OH257606   1.819   1.532  11.917 -0.4366 -0.1050  0.1016
12064TIP3    H157607   1.774   1.494  11.991  0.9019 -0.0277  0.9748
12064TIP3    H257608   1.800   1.626  11.922  0.0219 -0.0384  0.6128
12065TIP3   OH257609   1.099   3.517  14.101 -0.1462  0.3913  0.0822
12065TIP3    H157610   1.097   3.458  14.176  0.6721 -1.4181 -1.2926
12065TIP3    H257611   1.192   3.533  14.085 -0.3503  1.9776  0.3540
12066TIP3   OH257612   1.680   5.526   4.785  0.4447 -0.3405 -0.0661
12066TIP3    H157613   1.736   5.594   4.824 -0.6241  0.1367  0.6651
12066TIP3    H257614   1.660   5.559   4.697  2.1110 -0.9839 -0.7059
12067TIP3   OH257615   4.889   4.518   4.749 -0.1297  0.3172  0.4204
12067TIP3    H157616   4.973   4.514   4.705 -0.2217  0.3607  0.2433
12067TIP3    H257617   4.836   4.577   4.696 -0.6851 -0.7030 -0.1817
12068TIP3   OH257618   0.700   3.134  15.024 -0.2171 -0.0748  0.3082
12068TIP3    H157619   0.660   3.109  15.106 -0.2259 -0.3169  0.2317
12068TIP3    H257620   0.793   3.113  15.035 -0.3017 -0.5842  0.0740
12069TIP3   OH257621   2.592   6.364   5.720  0.3527  0.3833  0.3548
12069TIP3    H157622   2.632   6.419   5.787  1.7066  0.6430 -0.6620
12069TIP3    H257623   2.655   6.363   5.648 -0.8391 -0.3473 -0.6998
12070TIP3   OH257624   4.159   2.652   5.322  0.4523  0.1239  0.1379
12070TIP3    H157625   4.182   2.614   5.406 -0.1043  0.0349  0.2470
12070TIP3    H257626   4.236   2.637   5.267  0.9001  0.3793  0.6908
12071TIP3   OH257627   6.409   5.298   3.285 -0.0641 -0.0563 -0.3445
12071TIP3    H157628   6.498   5.297   3.248  1.1174  3.6952  2.1018
12071TIP3    H257629   6.361   5.358   3.228  0.2157  1.2980  0.8095
12072TIP3   OH257630   0.609   0.141  13.354 -0.2884 -0.5362 -0.2383
12072TIP3    H157631   0.561   0.070  13.313 -1.7551  0.1162  0.3364
12072TIP3    H257632   0.573   0.147  13.442  0.1789  0.5975 -0.1183
12073TIP3   OH257633   1.228   3.595   5.569  0.2831  0.2967 -0.1216
12073TIP3    H157634   1.307   3.546   5.547  1.3213 -0.2636  4.3859
12073TIP3    H257635   1.163   3.529   5.592 -0.8201  0.8450 -1.5280
12074TIP3   OH257636   3.301   3.954   1.888  0.0273  0.0232  0.2098
12074TIP3    H157637   3.323   4.039   1.850 -0.3010 -0.0227 -0.0790
12074TIP3    H257638   3.385   3.910   1.898  0.2081  0.4117  0.4353
12075TIP3   OH257639   1.525   3.643   5.786  0.3456  0.0942  0.0783
12075TIP3    H157640   1.547   3.606   5.872 -3.2854 -1.7640  0.3069
12075TIP3    H257641   1.457   3.708   5.805 -0.5336 -0.3835 -1.3548
12076TIP3   OH257642   3.586   5.422  12.783  0.1997  0.2698  0.3429
12076TIP3    H157643   3.600   5.515  12.769  1.2666 -0.1319 -1.4683
12076TIP3    H257644   3.631   5.402  12.864 -0.7670  1.4855  1.1925
12077TIP3   OH257645   3.615   6.054  13.084  0.0223  0.1476 -0.1345
12077TIP3    H157646   3.704   6.047  13.119 -0.1819  2.5140  1.0078
12077TIP3    H257647   3.567   6.101  13.152 -1.5758  0.7534 -1.6513
12078TIP3   OH257648   6.321   2.028   0.373 -0.4289  0.6815 -0.0615
12078TIP3    H157649   6.411   2.011   0.400 -0.3552  1.1221 -0.0211
12078TIP3    H257650   6.281   2.073   0.448 -1.3739 -1.5867  0.8543
12079TIP3   OH257651   0.342   3.914  16.590 -0.4410  0.7680 -1.3044
12079TIP3    H157652   0.260   3.923  16.637 -0.6201  1.3994 -1.7295
12079TIP3    H257653   0.409   3.937  16.654 -0.4812 -1.4287 -0.4611
12080TIP3   OH257654   1.603   2.655  11.717  0.1677  0.1212 -0.2433
12080TIP3    H157655   1.657   2.578  11.703 -0.9680 -0.8547  0.6916
12080TIP3    H257656   1.647   2.703  11.787 -0.1538 -0.6450  0.4816
12081TIP3   OH257657   6.148   4.411   5.920 -0.0950  0.2677 -0.2511
12081TIP3    H157658   6.060   4.447   5.931  0.3251  1.0561  0.6107
12081TIP3    H257659   6.139   4.318   5.942 -0.3448  0.7302  1.7819
12082TIP3   OH257660   2.714   6.760   5.281  0.1274 -0.0598  0.5016
12082TIP3    H157661   2.752   6.816   5.214  1.4461 -1.1221  0.3273
12082TIP3    H257662   2.708   6.673   5.241 -1.1258 -0.2370  1.0303
12083TIP3   OH257663   2.583   4.786  15.734  0.0067 -0.2161  0.4641
12083TIP3    H157664   2.546   4.857  15.786  1.3963  1.1360 -0.3580
12083TIP3    H257665   2.507   4.746  15.690 -0.6185  1.6932 -0.2182
12084TIP3   OH257666   2.151   2.955   3.072 -0.1435  0.4675 -0.2739
12084TIP3    H157667   2.116   2.885   3.017 -1.9717  1.1235  0.0103
12084TIP3    H257668   2.233   2.981   3.029  0.2666 -1.4494 -0.6715
12085TIP3   OH257669   0.617   1.423   4.489  0.4632  0.5115  0.0972
12085TIP3    H157670   0.607   1.387   4.400  1.6832 -0.0663  0.1941
12085TIP3    H257671   0.599   1.517   4.478  0.9412  0.5064 -0.8268
12086TIP3   OH257672   2.017   6.543   3.635 -0.3846  0.3645 -0.4262
12086TIP3    H157673   1.934   6.538   3.588 -0.6379  2.7673 -0.3218
12086TIP3    H257674   2.078   6.492   3.581 -1.4878  0.1991 -1.5419
12087TIP3   OH257675   3.326   2.251  13.936  0.6651  0.3664  0.2064
12087TIP3    H157676   3.342   2.157  13.929  1.3998  0.2772  2.8400
12087TIP3    H257677   3.307   2.266  14.028 -0.5139  2.6575 -0.3687
12088TIP3   OH257678   5.350   3.594   5.471 -0.2842  0.7445 -0.0268
12088TIP3    H157679   5.429   3.639   5.501 -0.7351  0.9316  0.8896
12088TIP3    H257680   5.283   3.663   5.469 -0.9070  0.1813  1.0961
12089TIP3   OH257681   5.688   4.485   0.894  0.5424  0.1111  0.0030
12089TIP3    H157682   5.772   4.490   0.940 -0.8412  0.1423  2.5979
12089TIP3    H257683   5.682   4.566   0.845  2.2595 -0.1254 -0.6200
12090TIP3   OH257684   1.647   3.669  16.456  0.5386  0.0152 -0.2971
12090TIP3    H157685   1.576   3.641  16.513  0.7810  1.6756  0.8524
12090TIP3    H257686   1.719   3.609  16.476  0.4886  0.3362  0.8762
12091TIP3   OH257687   1.630   3.112  13.473 -0.0596 -0.3365  0.0414
12091TIP3    H157688   1.601   3.023  13.492  0.4627 -0.7197 -0.8972
12091TIP3    H257689   1.722   3.113  13.500  0.0286 -0.1835 -0.2628
12092TIP3   OH257690   0.089   3.056  15.489  0.3632 -0.0230 -0.3627
12092TIP3    H157691   0.061   2.987  15.550 -1.6123  1.6916  0.7639
12092TIP3    H257692   0.016   3.064  15.428  0.8348  0.6701 -0.8313
12093TIP3   OH257693   3.475   6.136  15.183  0.0161  0.5770 -0.6618
12093TIP3    H157694   3.508   6.047  15.195 -1.1050  0.1029 -1.0485
12093TIP3    H257695   3.547   6.181  15.137  0.9953  0.1672  0.4412
12094TIP3   OH257696   4.314   1.324  10.667 -0.6380  0.0586  0.3437
12094TIP3    H157697   4.297   1.400  10.612  0.5036 -1.1483 -1.7256
12094TIP3    H257698   4.381   1.354  10.729 -1.0202  1.0729  0.2750
12095TIP3   OH257699   5.648   1.550  11.698 -0.0745 -0.2246  0.0570
12095TIP3    H157700   5.661   1.645  11.702 -1.6082 -0.0051  0.3599
12095TIP3    H257701   5.713   1.519  11.635 -1.2779  1.3589 -2.0128
12096TIP3   OH257702   1.317   5.972  15.321  0.1543 -0.4568  0.5839
12096TIP3    H157703   1.319   6.050  15.376  0.2288  0.1473 -0.2644
12096TIP3    H257704   1.321   6.005  15.231 -2.1056 -1.3124  0.1247
12097TIP3   OH257705   6.360   0.002  11.363 -1.1815 -0.0685  0.0501
12097TIP3    H157706   6.429  -0.009  11.428 -1.4152  1.4490  0.5744
12097TIP3    H257707   6.335  -0.087  11.339 -0.0326 -0.6328  0.9053
12098TIP3   OH257708   0.013   1.225  10.560 -0.7532  0.2735 -0.2299
12098TIP3    H157709   0.030   1.137  10.593 -0.6725  0.4422  0.1825
12098TIP3    H257710   0.069   1.282  10.612 -0.8695  0.5789 -0.4349
12099TIP3   OH257711   5.111   0.972  14.794 -0.0221 -0.1632 -0.1184
12099TIP3    H157712   5.072   0.944  14.712  1.1455  0.1117 -0.7868
12099TIP3    H257713   5.053   0.938  14.862 -2.0499  1.2379 -1.1067
12100TIP3   OH257714   3.192   3.731   1.299  0.2378  0.2645 -0.0826
12100TIP3    H157715   3.255   3.784   1.347 -1.0329  0.6418  1.2017
12100TIP3    H257716   3.147   3.794   1.241  0.1159  0.2350 -0.0205
12101TIP3   OH257717   4.841   1.394  13.999 -0.4100  0.4283  0.8736
12101TIP3    H157718   4.821   1.453  13.926  0.5791 -0.8123 -0.4065
12101TIP3    H257719   4.762   1.340  14.008  0.9960 -2.1831 -1.9747
12102TIP3   OH257720   3.229   6.311   0.160 -0.0018 -0.4930  0.9935
12102TIP3    H157721   3.159   6.303   0.226 -0.0364  0.4418  1.0755
12102TIP3    H257722   3.183   6.312   0.076 -0.1427  0.7812  1.0799
12103TIP3   OH257723   5.382   4.092   2.353 -0.3482  0.4714  0.6248
12103TIP3    H157724   5.449   4.157   2.333  0.5543 -1.4661 -2.8902
12103TIP3    H257725   5.321   4.097   2.280 -1.5047 -1.0937  1.4571
12104TIP3   OH257726   3.034   4.361   3.868 -0.4180 -0.1823  0.1131
12104TIP3    H157727   2.965   4.407   3.820 -0.2773 -1.9093 -1.8523
12104TIP3    H257728   3.116   4.395   3.831 -0.3148 -2.0653 -1.4759
12105TIP3   OH257729   6.316   2.758   1.802 -0.3814  0.5043  0.1929
12105TIP3    H157730   6.258   2.804   1.742  0.6157 -0.7106 -1.7485
12105TIP3    H257731   6.292   2.666   1.795  0.9629  0.1293  0.2669
12106TIP3   OH257732   4.245   1.128  11.315 -0.3646  0.8292 -0.4135
12106TIP3    H157733   4.282   1.134  11.227  0.7472  1.7470  0.1110
12106TIP3    H257734   4.174   1.193  11.316 -0.0167  1.2085 -0.4501
12107TIP3   OH257735   2.211   0.445   2.174  0.0234  0.1743 -0.0047
12107TIP3    H157736   2.302   0.473   2.163  0.2128 -1.6102 -3.5082
12107TIP3    H257737   2.162   0.497   2.110 -1.4076  0.9411  1.6796
12108TIP3   OH257738   4.338   1.725   1.111  0.4649 -0.2834  0.1137
12108TIP3    H157739   4.423   1.769   1.108  0.6876 -0.5590  1.9503
12108TIP3    H257740   4.359   1.633   1.094  0.5633 -0.3872  0.7949
12109TIP3   OH257741   5.372   1.552   4.009 -0.2647 -0.4987  0.2585
12109TIP3    H157742   5.396   1.605   4.085 -0.4093 -0.6963  0.4459
12109TIP3    H257743   5.296   1.501   4.038 -0.2241 -0.6912  0.0326
12110TIP3   OH257744   5.200   1.963   2.515 -0.2683 -0.8817 -0.0247
12110TIP3    H157745   5.218   1.958   2.609 -2.4465 -0.3208  0.4611
12110TIP3    H257746   5.141   1.889   2.498  0.5900 -1.3276 -1.0650
12111TIP3   OH257747   3.918   6.087   3.645  0.3282  0.9844  0.0291
12111TIP3    H157748   3.909   6.144   3.568 -0.8308  1.9061  0.8288
12111TIP3    H257749   3.996   6.034   3.626  0.4109  1.6133 -1.5081
12112TIP3   OH257750   1.100   3.365   2.322  0.2005  0.0486  0.0187
12112TIP3    H157751   1.153   3.286   2.313 -1.3177 -0.9265 -0.5598
12112TIP3    H257752   1.028   3.353   2.260  0.4947  2.3431 -0.7949
12113TIP3   OH257753   4.846   1.003   0.064 -0.1259 -0.3067  0.0988
12113TIP3    H157754   4.835   0.939   0.134  0.1552  2.0410  2.3599
12113TIP3    H257755   4.757   1.031   0.043 -0.1424 -0.3016  0.1790
12114TIP3   OH257756   0.740   0.144   1.177  0.2965  0.4820  0.2929
12114TIP3    H157757   0.662   0.111   1.133  1.2695 -1.6705  0.1282
12114TIP3    H257758   0.706   0.194   1.251 -1.2361 -0.4353  0.2323
12115TIP3   OH257759   1.578   3.675   3.139 -0.5592  0.0825 -0.1738
12115TIP3    H157760   1.525   3.632   3.072 -1.9910  0.4529  0.6803
12115TIP3    H257761   1.588   3.610   3.208  0.2539 -0.0443 -0.4084
12116TIP3   OH257762   5.532   2.078  16.122 -0.0625 -0.1696  0.1393
12116TIP3    H157763   5.461   2.117  16.172  1.2333 -1.0297  2.7779
12116TIP3    H257764   5.612   2.106  16.167  1.2524  0.0807 -2.2309
12117TIP3   OH257765   1.162   6.222   3.517  0.6724 -0.0411  0.1656
12117TIP3    H157766   1.145   6.292   3.579  0.8602 -1.0546  1.3698
12117TIP3    H257767   1.088   6.162   3.528 -0.6322  0.9825 -2.3667
12118TIP3   OH257768   5.753   6.248  14.241 -0.0070  0.0012 -0.2468
12118TIP3    H157769   5.836   6.272  14.283 -0.2087  0.7759 -0.2862
12118TIP3    H257770   5.743   6.311  14.171 -0.0114 -0.8783 -1.0509
12119TIP3   OH257771   5.821   5.350  13.011  0.1912  0.4605 -0.0938
12119TIP3    H157772   5.823   5.445  13.025 -1.7051  0.4587  0.3812
12119TIP3    H257773   5.825   5.313  13.099  0.5694  0.1075 -0.2579
12120TIP3   OH257774   5.987   1.266  11.345  0.6910  0.1958 -0.2456
12120TIP3    H157775   5.974   1.177  11.312  0.6804 -0.5136  1.6013
12120TIP3    H257776   6.082   1.280  11.341  0.8991 -0.6278  1.1861
12121TIP3   OH257777   4.730   2.170  13.953  0.4607 -0.4485 -0.4640
12121TIP3    H157778   4.689   2.124  13.880  0.0335  0.1336 -0.5869
12121TIP3    H257779   4.734   2.261  13.926  0.9973 -0.3499 -0.0719
12122TIP3   OH257780   3.930   2.723   2.725  0.3603 -0.4606  0.0294
12122TIP3    H157781   3.848   2.755   2.688 -0.3326 -0.4186  1.5750
12122TIP3    H257782   3.944   2.638   2.683 -0.7304 -0.6874  0.1163
12123TIP3   OH257783   6.671   6.568   6.604 -0.4131 -0.2511 -0.7696
12123TIP3    H157784   6.696   6.643   6.659  1.5582 -1.4346  0.0082
12123TIP3    H257785   6.728   6.497   6.633 -0.0193 -1.2031 -3.6866
12124TIP3   OH257786   6.499   2.783  17.145 -0.0334  0.2516  0.7235
12124TIP3    H157787   6.500   2.832  17.227 -2.6393  3.6672 -1.1317
12124TIP3    H257788   6.584   2.800  17.105 -0.0420  1.4067  1.1749
12125TIP3   OH257789   4.946   3.983  13.317 -0.2505  0.3127  0.2042
12125TIP3    H157790   5.024   3.943  13.355 -0.4221 -1.2769 -1.0406
12125TIP3    H257791   4.976   4.064  13.277  0.3704  0.7519  1.5322
12126TIP3   OH257792   0.967   3.152  14.539 -0.0261 -0.1387  0.0512
12126TIP3    H157793   0.911   3.154  14.616  0.3887  1.4377  0.3273
12126TIP3    H257794   1.048   3.110  14.568 -0.8831 -2.0849 -0.2564
12127TIP3   OH257795   3.314   0.831   5.828 -0.0758  0.3913 -0.0308
12127TIP3    H157796   3.244   0.866   5.773 -0.4127  0.1768  0.2611
12127TIP3    H257797   3.281   0.746   5.856  0.4696  0.1125 -0.2207
12128TIP3   OH257798   0.233   2.070  10.987 -0.5740  0.0030 -0.2096
12128TIP3    H157799   0.152   2.019  10.978 -0.0196 -0.6399 -1.7132
12128TIP3    H257800   0.204   2.161  10.982 -1.4020 -0.1652  1.0700
12129TIP3   OH257801   0.186   3.854  11.266  0.1612 -0.3034  0.2416
12129TIP3    H157802   0.207   3.765  11.295 -0.0898 -0.5332 -0.2640
12129TIP3    H257803   0.270   3.889  11.236  0.8924  0.7829  3.3862
12130TIP3   OH257804   2.306   3.821  11.371  0.6084  0.2614 -1.1667
12130TIP3    H157805   2.262   3.871  11.439 -0.4204 -0.3920 -1.3459
12130TIP3    H257806   2.397   3.853  11.372  0.3674  0.9167 -0.1430
12131TIP3   OH257807   0.506   6.108   3.607  0.7600  0.6980  0.1539
12131TIP3    H157808   0.488   6.080   3.517  0.4439  1.1224  0.0808
12131TIP3    H257809   0.601   6.108   3.614  0.7702  0.0974 -0.0017
12132TIP3   OH257810   3.237   2.497  13.116  0.5501 -0.1772  0.4372
12132TIP3    H157811   3.291   2.471  13.190 -0.4461 -1.1288  0.8538
12132TIP3    H257812   3.264   2.587  13.096  1.7572 -0.3841  1.0873
12133TIP3   OH257813   3.656   0.070  16.209  0.6207 -0.0666  0.3114
12133TIP3    H157814   3.749   0.066  16.231  1.0473 -1.0028 -1.4945
12133TIP3    H257815   3.652   0.037  16.119 -1.1137  2.6496 -0.6483
12134TIP3   OH257816   1.144   6.648  14.091 -0.5713 -0.1203 -0.0421
12134TIP3    H157817   1.173   6.725  14.139 -0.5002  0.2853 -0.7380
12134TIP3    H257818   1.110   6.589  14.158 -1.9342  1.0999  0.3402
12135TIP3   OH257819   2.482   0.391   3.198 -0.3734  0.2081  0.0265
12135TIP3    H157820   2.549   0.426   3.140 -1.4233 -0.3629 -1.5780
12135TIP3    H257821   2.482   0.297   3.180 -0.0776 -0.1203  1.6435
12136TIP3   OH257822   3.519   2.732  11.568  0.3431 -0.0361  0.0865
12136TIP3    H157823   3.465   2.755  11.643  0.8067 -0.5163  0.5729
12136TIP3    H257824   3.608   2.759  11.592  0.4068  0.2848 -0.4967
12137TIP3   OH257825   0.894   4.308  15.007  0.0672 -0.0899  0.4575
12137TIP3    H157826   0.928   4.369  15.072  0.1695 -0.6699  0.9556
12137TIP3    H257827   0.956   4.313  14.934 -1.0785  1.9677 -0.4110
12138TIP3   OH257828   6.715   6.434  12.607  0.2417  0.1636 -0.2298
12138TIP3    H157829   6.698   6.343  12.581 -1.6449 -0.0127  1.5231
12138TIP3    H257830   6.709   6.433  12.702  2.9359  1.6088  0.0065
12139TIP3   OH257831   1.315   1.458   3.836  0.5387  0.6209 -0.3172
12139TIP3    H157832   1.345   1.438   3.925 -2.9590  2.8240  1.4583
12139TIP3    H257833   1.235   1.406   3.825  2.7465 -2.2992 -3.5563
12140TIP3   OH257834   5.886   0.081   1.647  0.1417 -0.2298  0.0420
12140TIP3    H157835   5.956   0.033   1.602 -2.1029 -1.2203 -2.5263
12140TIP3    H257836   5.855   0.144   1.582 -2.9593 -1.4593  0.2344
12141TIP3   OH257837   3.673   2.940   3.390  0.5485  0.3814  0.0423
12141TIP3    H157838   3.624   2.868   3.428  0.0365  0.4717 -0.4428
12141TIP3    H257839   3.609   2.990   3.340  1.0756  0.6536 -0.3753
12142TIP3   OH257840   3.035   3.838   3.236 -0.6874  0.0564 -0.5314
12142TIP3    H157841   3.077   3.809   3.317 -4.6251  0.3866  1.7845
12142TIP3    H257842   3.007   3.757   3.193  0.4478 -0.0759 -1.0328
12143TIP3   OH257843   1.659   5.577  15.567  0.1573 -0.5836  0.0850
12143TIP3    H157844   1.618   5.652  15.524  1.7469  0.2068 -0.0784
12143TIP3    H257845   1.670   5.513  15.497 -0.6888 -0.7490  0.1036
12144TIP3   OH257846   0.867   0.400   1.915 -0.2192 -0.4213  0.1260
12144TIP3    H157847   0.936   0.435   1.973  0.6855  0.8661 -1.6816
12144TIP3    H257848   0.816   0.477   1.890 -0.7931 -1.0179 -0.5489
12145TIP3   OH257849   5.207   1.963   5.211  0.0217  0.0627  0.1572
12145TIP3    H157850   5.231   1.895   5.275  0.4712 -2.4388 -2.5554
12145TIP3    H257851   5.164   2.031   5.263  1.5780 -1.2520  3.3020
12146TIP3   OH257852   2.497   5.689  16.174  0.5051  0.0751 -0.9635
12146TIP3    H157853   2.527   5.600  16.191 -2.0367 -1.3547 -3.3611
12146TIP3    H257854   2.523   5.706  16.083 -1.4678  0.6551 -1.4469
12147TIP3   OH257855   4.689   1.611   4.529 -0.4866 -0.1867 -0.0545
12147TIP3    H157856   4.699   1.595   4.623 -0.7017  2.3336  0.4424
12147TIP3    H257857   4.671   1.705   4.523 -0.3543 -0.2977 -2.6332
12148TIP3   OH257858   4.291   2.257  16.442 -0.6310  0.1748 -0.1095
12148TIP3    H157859   4.304   2.318  16.515 -0.0525 -0.9975  0.7799
12148TIP3    H257860   4.208   2.284  16.403  0.4781  2.6649 -0.8477
12149TIP3   OH257861   2.258   1.799   4.225  0.2255 -0.1100  0.3274
12149TIP3    H157862   2.166   1.796   4.252 -0.0569 -0.0750 -0.6156
12149TIP3    H257863   2.301   1.734   4.282 -0.7002 -1.3921 -0.3912
12150TIP3   OH257864   4.055   5.964  12.454 -0.2810  0.0268  0.1283
12150TIP3    H157865   4.014   6.045  12.422 -1.0774  0.1764  1.5175
12150TIP3    H257866   4.006   5.894  12.413  1.0016  0.2235 -1.8301
12151TIP3   OH257867   3.317   6.083  12.200 -0.0693 -0.3160 -0.5204
12151TIP3    H157868   3.334   6.177  12.186 -0.1363 -0.4102 -1.2567
12151TIP3    H257869   3.257   6.059  12.129 -0.5946 -0.7633  0.0753
12152TIP3   OH257870   3.626   1.284  11.366 -0.0938  0.1817 -0.2311
12152TIP3    H157871   3.538   1.296  11.402 -0.4877  0.2257 -1.1902
12152TIP3    H257872   3.684   1.322  11.432 -0.4068 -3.9943  2.7093
12153TIP3   OH257873   2.168   4.979   4.611 -0.1006 -0.6348 -0.1419
12153TIP3    H157874   2.201   5.029   4.686 -1.5844 -2.1635  1.5784
12153TIP3    H257875   2.232   4.995   4.541  0.7920  1.5950  1.1305
12154TIP3   OH257876   2.046   0.540   6.135  0.0994 -0.4921  0.8788
12154TIP3    H157877   2.066   0.449   6.159  0.0640 -0.5427  0.7157
12154TIP3    H257878   2.130   0.576   6.107  0.0477 -0.5715  0.6257
12155TIP3   OH257879   1.572   0.562  12.879  0.3595  0.2919  0.1443
12155TIP3    H157880   1.521   0.533  12.955  2.1214  1.0658  1.6878
12155TIP3    H257881   1.507   0.597  12.818 -1.0637  0.0002  1.4612
12156TIP3   OH257882   1.939   1.188   3.003 -0.4377 -0.1439  0.2946
12156TIP3    H157883   1.897   1.226   3.080  0.2470  0.5463  0.3251
12156TIP3    H257884   1.886   1.218   2.930 -0.0959  0.5919  0.3484
12157TIP3   OH257885   1.722   3.042  13.787 -0.2212  0.1739  0.1262
12157TIP3    H157886   1.795   3.007  13.736 -0.3331  0.7631 -0.4492
12157TIP3    H257887   1.759   3.118  13.833 -0.1020 -0.3973  0.9840
12158TIP3   OH257888   2.277   3.789   6.092  0.0576  0.0699  0.1677
12158TIP3    H157889   2.333   3.758   6.164 -0.8043 -1.7080  0.0874
12158TIP3    H257890   2.191   3.802   6.133 -0.1916  0.0128 -0.3427
12159TIP3   OH257891   3.637   4.025  15.084 -0.0125 -0.0214 -0.2884
12159TIP3    H157892   3.698   4.042  15.155 -1.9815 -0.5863  1.5751
12159TIP3    H257893   3.648   3.931  15.065 -0.9564 -0.3292  0.6763
12160TIP3   OH257894   4.659   1.916   1.387  0.0447 -0.2865  0.3007
12160TIP3    H157895   4.709   1.960   1.456  0.4891 -0.7752  0.2922
12160TIP3    H257896   4.588   1.977   1.367 -0.1639 -0.1951  1.2826
12161TIP3   OH257897   5.002   5.337  14.832 -0.4677 -0.1907 -0.2509
12161TIP3    H157898   5.014   5.420  14.877 -0.5124 -0.1400 -0.3326
12161TIP3    H257899   4.913   5.341  14.796  0.3659  0.6941 -2.2747
12162TIP3   OH257900   4.139   4.127  14.909 -0.3049  0.2981 -0.1975
12162TIP3    H157901   4.232   4.107  14.895 -0.2012  0.4923  0.2223
12162TIP3    H257902   4.135   4.164  14.997 -1.1476 -2.2722  0.9238
12163TIP3   OH257903   6.608   5.802  12.526  0.4717 -0.4345 -0.8848
12163TIP3    H157904   6.517   5.792  12.556  1.3766 -1.7300  1.5626
12163TIP3    H257905   6.658   5.816  12.606  2.3210  1.4691 -2.3161
12164TIP3   OH257906   0.797   3.807   6.574 -0.3192  0.7735 -0.0399
12164TIP3    H157907   0.758   3.881   6.620 -0.4707  0.3000  0.6127
12164TIP3    H257908   0.722   3.758   6.540 -0.2137  1.0144 -0.6256
12165TIP3   OH257909   2.667   1.927  16.903  0.4943 -0.5541  0.4717
12165TIP3    H157910   2.679   1.951  16.995 -1.0358 -1.1664  0.8462
12165TIP3    H257911   2.582   1.882  16.900  0.3698 -0.2577 -1.2916
12166TIP3   OH257912   5.120   5.843   5.441  0.4009 -0.4559  0.1359
12166TIP3    H157913   5.052   5.891   5.489  0.6175  1.2123 -1.1670
12166TIP3    H257914   5.171   5.799   5.509  0.0005  0.9354  1.3640
12167TIP3   OH257915   1.510   0.173  13.284 -0.1235 -0.2038  0.4810
12167TIP3    H157916   1.569   0.236  13.244  1.6026 -2.3010 -0.3995
12167TIP3    H257917   1.423   0.200  13.256  0.6749  1.0682 -0.8623
12168TIP3   OH257918   1.896   1.378  16.897  0.4154 -0.0835 -0.0495
12168TIP3    H157919   1.858   1.311  16.954  1.9219 -1.6342 -0.8186
12168TIP3    H257920   1.847   1.457  16.918 -1.7941 -1.5365  0.4764
12169TIP3   OH257921   3.768   2.642   2.116 -0.6268  0.1782 -0.4131
12169TIP3    H157922   3.739   2.615   2.028 -0.0780 -1.4465 -0.1155
12169TIP3    H257923   3.763   2.562   2.168  0.7891  0.7231  0.5840
12170TIP3   OH257924   5.382   1.084   6.053 -0.6626  0.3748 -0.3446
12170TIP3    H157925   5.314   1.048   6.111 -0.3610  0.2111 -0.0942
12170TIP3    H257926   5.361   1.048   5.967 -1.5524  1.2115 -0.4830
12171TIP3   OH257927   1.463   1.469   5.357 -0.0122 -0.3022 -0.1732
12171TIP3    H157928   1.551   1.464   5.394 -0.3292  1.0213  0.7644
12171TIP3    H257929   1.478   1.476   5.263  0.9596  1.9581  0.1143
12172TIP3   OH257930   3.106   4.601  16.889 -0.5597 -0.2966 -0.1562
12172TIP3    H157931   3.063   4.525  16.850  0.1862 -0.3979 -0.7816
12172TIP3    H257932   3.158   4.639  16.819  0.1289  0.0155  0.5133
12173TIP3   OH257933   2.157   0.751   3.426  0.0892  0.6595  0.3714
12173TIP3    H157934   2.152   0.660   3.456  0.5106  0.3441 -0.4907
12173TIP3    H257935   2.213   0.748   3.348 -1.3045  1.3911 -0.6949
12174TIP3   OH257936   5.276   5.085  17.139  0.1308 -0.3646 -0.7720
12174TIP3    H157937   5.196   5.052  17.179  0.2056  0.5800  0.1701
12174TIP3    H257938   5.340   5.015  17.153  0.0929 -0.1450  0.5404
12175TIP3   OH257939   2.438   6.214   5.053 -0.3567  0.4177 -0.6519
12175TIP3    H157940   2.444   6.138   5.111 -0.8001  2.0207  1.5725
12175TIP3    H257941   2.358   6.199   5.003  0.2943 -1.2289 -1.2440
12176TIP3   OH257942   6.414   0.264  15.952  0.0988 -0.2199  0.1263
12176TIP3    H157943   6.490   0.207  15.963 -0.4685 -1.1298 -0.6774
12176TIP3    H257944   6.382   0.277  16.041  0.8935 -0.2331  0.4258
12177TIP3   OH257945   4.621   5.620  12.424  0.2240  0.0782  0.4339
12177TIP3    H157946   4.566   5.587  12.494  0.0862  1.5723  1.0520
12177TIP3    H257947   4.560   5.655  12.359  0.3148 -2.2185 -0.9286
12178TIP3   OH257948   3.690   2.525  14.956 -0.5132 -0.0758 -0.1269
12178TIP3    H157949   3.748   2.568  14.892  0.1695 -0.4734  0.2188
12178TIP3    H257950   3.701   2.431  14.939 -0.5003 -0.1759  0.4289
12179TIP3   OH257951   0.582   1.099   5.757 -0.0336 -0.0474  0.1156
12179TIP3    H157952   0.623   1.075   5.840  1.7327 -0.3557 -0.8307
12179TIP3    H257953   0.549   1.016   5.722  3.3818 -0.7223 -1.6992
12180TIP3   OH257954   6.725   1.972  16.774  0.0206 -0.6999 -0.4010
12180TIP3    H157955   6.631   1.957  16.761 -0.1016  1.1169 -1.9297
12180TIP3    H257956   6.759   1.985  16.685  1.4876 -0.0857  0.2364
12181TIP3   OH257957   4.957   6.232  12.939 -0.1855 -0.0346  0.0800
12181TIP3    H157958   5.036   6.215  12.887  0.1914  2.2792 -0.1424
12181TIP3    H257959   4.986   6.292  13.008 -1.2681 -0.9669  1.3710
12182TIP3   OH257960   4.141   6.114   4.042 -0.1188  0.4312  0.1775
12182TIP3    H157961   4.060   6.165   4.042 -0.8942 -0.7633 -0.8140
12182TIP3    H257962   4.149   6.082   4.132  0.2525  2.0752  0.7469
12183TIP3   OH257963   2.970   0.004   2.733 -0.4788 -0.3006 -0.3056
12183TIP3    H157964   2.938   0.095   2.735  0.3187 -0.0375  0.7507
12183TIP3    H257965   3.058   0.011   2.696  0.2066 -0.4434  1.2615
12184TIP3   OH257966   3.559   3.092   5.037 -0.4212  0.2250  0.3516
12184TIP3    H157967   3.508   3.013   5.021  0.3083 -0.3338  0.7555
12184TIP3    H257968   3.614   3.071   5.113  1.9803  0.0266 -1.3794
12185TIP3   OH257969   4.615   1.847  11.612  0.2619 -0.4968  0.0942
12185TIP3    H157970   4.551   1.878  11.676  2.2934  0.4641  1.6807
12185TIP3    H257971   4.680   1.799  11.663  2.4132  1.0806 -1.1144
12186TIP3   OH257972   3.782   5.171  12.141 -0.0333  0.1212 -0.2407
12186TIP3    H157973   3.742   5.178  12.055  1.3990  2.2624 -0.7747
12186TIP3    H257974   3.754   5.250  12.188 -0.6950 -0.9553  1.2242
12187TIP3   OH257975   5.189   1.780  16.027 -0.3383 -0.0966  0.0183
12187TIP3    H157976   5.160   1.713  15.966 -0.7549  0.4044 -0.3414
12187TIP3    H257977   5.251   1.735  16.085  0.0559 -0.5794 -0.7654
12188TIP3   OH257978   0.961   1.627   4.525 -0.0205  0.0702  0.2432
12188TIP3    H157979   1.036   1.598   4.473 -0.3393  0.8678 -0.6810
12188TIP3    H257980   0.995   1.693   4.584  0.0491  0.2729 -0.0234
12189TIP3   OH257981   0.246   0.219  16.867 -0.1667  0.8047 -0.2806
12189TIP3    H157982   0.245   0.154  16.798  0.8398  1.2271 -0.7081
12189TIP3    H257983   0.248   0.303  16.821 -1.8645  1.1536  0.2650
12190TIP3   OH257984   0.122   5.660   1.854 -0.1290 -0.4210  0.3404
12190TIP3    H157985   0.035   5.689   1.825  0.7952  1.2824 -0.8484
12190TIP3    H257986   0.175   5.662   1.774  0.5587 -3.2281  0.6945
12191TIP3   OH257987   1.659   3.202   0.157 -0.5249 -0.1907 -1.0035
12191TIP3    H157988   1.728   3.260   0.126  0.6080 -0.3949  1.0608
12191TIP3    H257989   1.704   3.134   0.206 -2.1509 -0.6163 -0.0527
12192TIP3   OH257990   1.994   1.537   0.542  0.2235  0.0849 -0.7494
12192TIP3    H157991   1.943   1.464   0.576  0.6245  0.6828  1.2152
12192TIP3    H257992   2.084   1.516   0.564  0.3254  1.2319 -0.0032
12193TIP3   OH257993   2.698   4.464   2.188  0.0686  0.1180  0.2919
12193TIP3    H157994   2.736   4.383   2.154 -0.0939  0.3148 -0.3832
12193TIP3    H257995   2.607   4.462   2.158  0.5197  1.3588 -1.2345
12194TIP3   OH257996   4.804   2.355  12.348  0.2948  0.8968  0.2716
12194TIP3    H157997   4.778   2.304  12.425  0.2167 -2.0453 -1.6169
12194TIP3    H257998   4.898   2.370  12.359  0.6997 -1.2431  0.0365
12195TIP3   OH257999   1.971   1.846   5.780 -0.4143  0.7384  0.2405
12195TIP3    H158000   2.007   1.798   5.854  0.0076  2.2905  1.0712
12195TIP3    H258001   1.934   1.926   5.819 -1.2919  0.9960 -1.0695
12196TIP3   OH258002   4.584   2.134   2.448 -0.2286 -0.1386  0.1545
12196TIP3    H158003   4.550   2.204   2.393  2.1909  0.5976 -0.4563
12196TIP3    H258004   4.520   2.063   2.439 -2.2084  1.6236  0.0296
12197TIP3   OH258005   6.697   3.460  16.679  0.2315 -0.9539  0.6532
12197TIP3    H158006   6.745   3.451  16.762  1.9267 -2.2570 -0.4223
12197TIP3    H258007   6.766   3.462  16.612 -1.0105  1.7910 -0.6327
12198TIP3   OH258008   6.233   3.934  13.438  0.2293  0.5691 -0.5108
12198TIP3    H158009   6.290   3.895  13.371 -0.1033 -0.6318 -0.1019
12198TIP3    H258010   6.279   4.013  13.466  1.7998 -0.4946 -0.0388
12199TIP3   OH258011   1.015   3.438   3.348  0.2574 -0.5979 -0.0110
12199TIP3    H158012   1.092   3.383   3.335  0.7733  0.3580 -0.9921
12199TIP3    H258013   1.029   3.480   3.432  1.5874  0.8348 -0.9374
12200TIP3   OH258014   6.530   1.504   2.611  0.2263 -0.1131  0.0196
12200TIP3    H158015   6.601   1.442   2.628  0.4829  0.9008  2.8471
12200TIP3    H258016   6.565   1.589   2.639 -1.6321  0.6138  0.1892
12201TIP3   OH258017   1.948   3.621  15.783 -0.1958  0.5443  0.1499
12201TIP3    H158018   2.032   3.611  15.829 -0.1692 -0.4029 -0.1017
12201TIP3    H258019   1.890   3.558  15.825  0.2383 -1.3918 -2.0778
12202TIP3   OH258020   6.235   6.055  11.795 -0.0698  0.1585  0.2381
12202TIP3    H158021   6.179   6.089  11.865  0.3180  2.2630 -0.4310
12202TIP3    H258022   6.178   5.998  11.743 -1.3068  1.3968  0.2080
12203TIP3   OH258023   2.162   0.907  11.694 -0.5856 -0.1604 -0.7191
12203TIP3    H158024   2.256   0.890  11.699 -0.6919 -0.2354  1.5941
12203TIP3    H258025   2.127   0.834  11.641  0.4804 -0.8715 -0.4586
12204TIP3   OH258026   3.244   3.362  12.594 -0.6105 -0.1137 -0.4618
12204TIP3    H158027   3.166   3.390  12.642 -0.1563  0.8535 -0.2705
12204TIP3    H258028   3.280   3.443  12.559  0.0502 -0.6147 -0.9407
12205TIP3   OH258029   6.586   1.222   3.114  0.0889  0.0412 -0.4029
12205TIP3    H158030   6.543   1.192   3.194 -0.3926  1.4466 -0.1296
12205TIP3    H258031   6.674   1.248   3.142 -0.1029  0.5972 -0.3129
12206TIP3   OH258032   4.807   4.306  14.740  0.4834 -0.3998  0.4565
12206TIP3    H158033   4.767   4.257  14.812  0.8060  0.3527  1.1650
12206TIP3    H258034   4.891   4.263  14.725 -0.1360 -1.3391 -0.3277
12207TIP3   OH258035   1.819   0.944   6.074  0.5315 -0.1459  0.2440
12207TIP3    H158036   1.893   1.005   6.075  1.0251 -0.7340 -0.0818
12207TIP3    H258037   1.834   0.887   6.149 -0.6429  0.9590  1.3537
12208TIP3   OH258038   0.817   5.894  12.264  0.5957  0.0233 -0.4779
12208TIP3    H158039   0.766   5.870  12.187  1.8478 -1.0544 -1.0053
12208TIP3    H258040   0.907   5.871  12.241  1.2670  1.4944  0.5747
12209TIP3   OH258041   0.345   1.812   2.128  0.5517 -0.1110  0.8751
12209TIP3    H158042   0.310   1.774   2.209 -0.4754  2.3374  1.6259
12209TIP3    H258043   0.277   1.796   2.063  1.4660 -2.2669  0.3945
12210TIP3   OH258044   5.708   2.781  10.739  0.5826  0.0472 -0.0869
12210TIP3    H158045   5.674   2.698  10.706  2.2973 -0.2134 -1.2911
12210TIP3    H258046   5.804   2.771  10.733  0.8646  1.1910  2.0260
12211TIP3   OH258047   3.145   2.705   3.708  0.2483  0.2186 -0.1724
12211TIP3    H158048   3.064   2.754   3.718  1.0184  1.4533  0.0599
12211TIP3    H258049   3.179   2.731   3.623  0.1867 -0.6414 -0.4723
12212TIP3   OH258050   3.040   1.587   2.966  0.3245 -0.0287  0.2370
12212TIP3    H158051   3.088   1.668   2.984 -0.4492  0.8626 -1.6499
12212TIP3    H258052   2.987   1.573   3.044 -0.6214  2.0715  0.0020
12213TIP3   OH258053   5.675   1.087   4.155  0.3541  0.3082 -0.1958
12213TIP3    H158054   5.617   1.045   4.219 -1.2085  0.8275 -1.2516
12213TIP3    H258055   5.634   1.171   4.137  0.8375  0.2174 -1.8024
12214TIP3   OH258056   4.104   5.064   6.330  0.0875 -0.0904 -0.1240
12214TIP3    H158057   4.190   5.031   6.354 -0.3282  0.0949  1.6763
12214TIP3    H258058   4.061   4.990   6.287  0.7843 -0.4950 -0.1262
12215TIP3   OH258059   0.599   1.959  13.929 -0.9308  0.5178  0.6132
12215TIP3    H158060   0.643   1.892  13.876 -0.9517 -0.4495  1.7942
12215TIP3    H258061   0.606   2.039  13.877  0.4835 -0.0623 -0.1236
12216TIP3   OH258062   3.385   1.411  13.783 -0.5499 -0.2674  0.1733
12216TIP3    H158063   3.461   1.357  13.760 -1.4658 -1.4351 -0.1109
12216TIP3    H258064   3.423   1.488  13.827  0.8372 -0.5587 -0.4864
12217TIP3   OH258065   2.741   6.532  12.024 -0.3535  0.0980 -0.6695
12217TIP3    H158066   2.776   6.452  12.062 -0.6105  0.7308  0.9614
12217TIP3    H258067   2.807   6.560  11.961  1.5024  0.5716  1.4245
12218TIP3   OH258068   3.507   4.054   5.355 -0.2744  0.6726 -0.4194
12218TIP3    H158069   3.525   4.127   5.415  1.1906  0.3150 -0.4147
12218TIP3    H258070   3.493   3.978   5.412 -0.3081  0.6265 -0.4890
12219TIP3   OH258071   1.178   3.740   3.678 -0.2645 -0.0460  0.2701
12219TIP3    H158072   1.227   3.774   3.603  1.0942 -0.7720  0.8109
12219TIP3    H258073   1.243   3.690   3.728 -1.4125 -0.4676  1.3523
12220TIP3   OH258074   2.667   0.495   6.226  0.2738  0.0605 -0.2394
12220TIP3    H158075   2.623   0.573   6.260  0.0799  0.0193 -0.3917
12220TIP3    H258076   2.718   0.526   6.152 -1.4332 -0.2907 -1.6018
12221TIP3   OH258077   4.977   1.760  15.653  0.5295 -0.1878 -0.1850
12221TIP3    H158078   4.940   1.847  15.668 -0.8547 -0.8064  0.1075
12221TIP3    H258079   4.900   1.704  15.640  1.4369 -1.1501 -1.5144
12222TIP3   OH258080   1.147   6.329  12.460  0.3542  0.0864 -0.3615
12222TIP3    H158081   1.111   6.317  12.548 -1.1143  1.0960 -0.8063
12222TIP3    H258082   1.218   6.265  12.454  1.3271  0.8948  2.0188
12223TIP3   OH258083   4.470   0.639  14.953  0.2425  0.0790  0.0925
12223TIP3    H158084   4.506   0.554  14.927  1.2159 -0.1062  1.9634
12223TIP3    H258085   4.525   0.667  15.026 -0.0856  2.3107 -0.4698
12224TIP3   OH258086   3.225   2.705  15.917  0.1060  0.2295  0.0462
12224TIP3    H158087   3.196   2.634  15.860  0.5029 -0.9538  1.2688
12224TIP3    H258088   3.221   2.784  15.863 -3.1527 -0.2539 -0.4981
12225TIP3   OH258089   1.187   4.210   0.006  0.0606 -0.1564 -0.3293
12225TIP3    H158090   1.098   4.216   0.040 -1.5937 -0.4396 -4.3175
12225TIP3    H258091   1.220   4.299   0.012 -0.3395 -0.1156  1.5186
12226TIP3   OH258092   5.244   4.449  13.306 -0.0019  0.9882  0.4520
12226TIP3    H158093   5.201   4.473  13.388  0.9250  1.6732  0.7461
12226TIP3    H258094   5.266   4.532  13.264 -1.6606  0.6607 -1.1455
12227TIP3   OH258095   6.119   2.475   3.025  0.0493 -0.1250  0.6285
12227TIP3    H158096   6.132   2.563   3.062  0.0722 -0.0450  0.4262
12227TIP3    H258097   6.025   2.470   3.010 -0.1803 -0.7146  2.1224
12228TIP3   OH258098   1.309   3.683  11.878  0.8768  0.4765 -0.0270
12228TIP3    H158099   1.225   3.726  11.892  1.2854  2.0997 -2.3069
12228TIP3    H258100   1.374   3.747  11.908  1.4055  0.4047 -1.0291
12229TIP3   OH258101   6.400   0.100   4.457  0.7609  0.4585  0.0081
12229TIP3    H158102   6.337   0.089   4.528 -0.0551 -0.8432 -0.9025
12229TIP3    H258103   6.364   0.172   4.404  0.5177  0.3421  0.0142
12230TIP3   OH258104   6.030   3.232   6.386 -0.8488  0.0413 -0.3635
12230TIP3    H158105   5.986   3.149   6.406 -0.9680  0.5316  1.4766
12230TIP3    H258106   6.117   3.223   6.423 -0.8870  0.7675 -0.0851
12231TIP3   OH258107   3.307   6.142  16.343 -0.0226 -0.5274  0.0635
12231TIP3    H158108   3.301   6.114  16.252 -0.5199  0.9127 -0.3722
12231TIP3    H258109   3.230   6.197  16.356  0.9034  0.6261  0.8561
12232TIP3   OH258110   3.998   0.410   3.268 -0.5668  0.4301  0.6952
12232TIP3    H158111   4.050   0.489   3.283 -0.5068  0.5761 -0.2525
12232TIP3    H258112   4.056   0.352   3.220 -1.3877  0.7468 -0.7071
12233TIP3   OH258113   4.951   1.663   5.393  0.2177  0.1514  0.8559
12233TIP3    H158114   4.936   1.631   5.482  0.1769  0.4619  0.9612
12233TIP3    H258115   4.998   1.591   5.350  1.8131  0.6991  1.6423
12234TIP3   OH258116   4.025   4.772  16.731  0.0064  0.0129 -0.1087
12234TIP3    H158117   4.060   4.861  16.723 -1.2035  0.6901  1.8573
12234TIP3    H258118   4.100   4.719  16.759  0.2924  0.7663  0.5674
12235TIP3   OH258119   5.083   1.846   3.222  0.0127  0.1101 -0.0749
12235TIP3    H158120   5.061   1.939   3.223 -1.2768 -0.1740 -1.4084
12235TIP3    H258121   5.063   1.817   3.133  1.0386 -1.2960  0.1383
12236TIP3   OH258122   1.304   3.864  14.807 -0.3114  0.1391  0.6899
12236TIP3    H158123   1.226   3.861  14.863 -0.9891 -1.8995 -0.3206
12236TIP3    H258124   1.294   3.790  14.748  1.4776  0.9870 -0.7162
12237TIP3   OH258125   1.211   0.866   4.172  1.2880  0.1930  0.2799
12237TIP3    H158126   1.185   0.835   4.259 -1.1800 -0.1563 -0.5442
12237TIP3    H258127   1.255   0.949   4.188 -0.7687  1.0276  1.7347
12238TIP3   OH258128   1.143   6.608  12.446 -0.1599 -0.0148 -0.6029
12238TIP3    H158129   1.170   6.522  12.415  0.3722 -0.0350 -0.1058
12238TIP3    H258130   1.122   6.657  12.367  0.8929 -0.1594 -0.9876
12239TIP3   OH258131   2.562   5.750  14.220 -0.7226 -0.3967  0.6171
12239TIP3    H158132   2.588   5.807  14.293  0.5855 -1.1168  0.7231
12239TIP3    H258133   2.560   5.808  14.144  2.9882 -0.6297  0.2437
12240TIP3   OH258134   1.982   0.787  11.282  0.5723 -0.1949 -0.3403
12240TIP3    H158135   1.923   0.851  11.242  2.1709 -0.1628 -2.8010
12240TIP3    H258136   1.943   0.703  11.262  0.6486 -0.1211 -0.8184
12241TIP3   OH258137   3.684   5.163   0.758 -0.9643 -0.6526  0.0970
12241TIP3    H158138   3.697   5.092   0.821 -1.3793 -2.5146 -1.8545
12241TIP3    H258139   3.738   5.139   0.683 -1.1405  1.0818 -0.6194
12242TIP3   OH258140   2.816   1.724  16.704 -0.7654 -0.1146 -0.2695
12242TIP3    H158141   2.883   1.682  16.649 -0.1022 -1.7517  1.7104
12242TIP3    H258142   2.733   1.702  16.661 -0.1041  1.0738 -2.1917
12243TIP3   OH258143   0.143   6.657  12.109  0.1580  0.2402 -0.2386
12243TIP3    H158144   0.059   6.663  12.156 -0.1409  0.0111 -0.7394
12243TIP3    H258145   0.118   6.646  12.017  0.6904  3.7975 -0.8917
12244TIP3   OH258146   1.450   3.916  13.598 -0.4204 -0.6015  0.5785
12244TIP3    H158147   1.378   3.861  13.567  0.0887 -0.6745 -0.4929
12244TIP3    H258148   1.408   4.000  13.619 -0.9773 -0.9594  0.9077
12245TIP3   OH258149   3.385   1.746  14.794 -0.0954 -0.1212 -0.4769
12245TIP3    H158150   3.422   1.816  14.741  0.9183  1.3758  2.0879
12245TIP3    H258151   3.460   1.711  14.844 -1.0886 -1.1283  0.3434
12246TIP3   OH258152   5.029   0.684  14.011  0.0172 -0.6308  0.5584
12246TIP3    H158153   5.069   0.745  13.950  1.4089  0.0731  2.1346
12246TIP3    H258154   5.065   0.599  13.987  1.5191 -0.1818  1.1422
12247TIP3   OH258155   3.544   5.215   5.519 -0.4495 -0.2027 -0.0236
12247TIP3    H158156   3.563   5.176   5.433 -0.0437  0.7274 -0.3583
12247TIP3    H258157   3.504   5.300   5.499  1.1626  0.7534  0.6992
12248TIP3   OH258158   4.892   0.420  11.967 -0.2436  0.1856 -0.4635
12248TIP3    H158159   4.834   0.436  12.041 -0.2322  0.6803 -0.5604
12248TIP3    H258160   4.872   0.491  11.905 -0.9708 -0.8054 -1.3788
12249TIP3   OH258161   4.712   5.512   6.087 -0.2418 -0.1655  1.0265
12249TIP3    H158162   4.617   5.514   6.094 -0.3407  0.5987 -0.2984
12249TIP3    H258163   4.738   5.604   6.086  0.3339 -0.3218 -0.6030
12250TIP3   OH258164   0.510   6.204  13.133  0.4253  1.0824 -0.1189
12250TIP3    H158165   0.576   6.199  13.203  0.7276  2.9417 -0.2253
12250TIP3    H258166   0.452   6.130  13.148  1.5650  0.4005  1.0011
12251TIP3   OH258167   1.160   3.088  12.621 -0.3355 -0.2020 -0.2850
12251TIP3    H158168   1.076   3.081  12.667 -0.2903 -0.5369 -0.2530
12251TIP3    H258169   1.220   3.034  12.672 -0.4461 -1.0984 -1.0935
12252TIP3   OH258170   0.522   6.701  11.671  0.3489 -0.3372  0.6824
12252TIP3    H158171   0.532   6.611  11.641  0.1439 -0.5366  1.2110
12252TIP3    H258172   0.610   6.726  11.700 -0.1719 -1.3165  3.1701
12253TIP3   OH258173   1.590   5.692  14.108 -0.2155  0.2139  0.0104
12253TIP3    H158174   1.595   5.702  14.013 -1.3858  0.8320  0.0067
12253TIP3    H258175   1.647   5.618  14.127 -0.9486 -0.7157 -1.3086
12254TIP3   OH258176   1.426   4.769  11.314 -0.2665 -0.1363 -0.4153
12254TIP3    H158177   1.474   4.848  11.340  1.2708 -0.5000 -2.0951
12254TIP3    H258178   1.363   4.799  11.249 -0.9190 -0.0168  0.2590
12255TIP3   OH258179   1.076   1.148  14.576 -0.0537 -0.1015 -0.3148
12255TIP3    H158180   1.117   1.114  14.496  0.0706 -1.9613  0.5033
12255TIP3    H258181   1.138   1.125  14.645 -0.7186  0.4467  0.4640
12256TIP3   OH258182   2.769   4.531   4.769  0.4963 -0.1122 -0.3234
12256TIP3    H158183   2.742   4.622   4.766 -1.0134 -0.5472 -0.4370
12256TIP3    H258184   2.846   4.526   4.713 -0.2191  0.8271 -1.3933
12257TIP3   OH258185   3.504   6.021   1.338  0.1410  0.5373 -0.1333
12257TIP3    H158186   3.490   6.075   1.261  1.2924  0.7550 -0.1953
12257TIP3    H258187   3.478   6.076   1.411 -0.5575  0.4768 -0.3291
12258TIP3   OH258188   2.782   3.678   3.233 -0.3915 -0.7044 -0.2869
12258TIP3    H158189   2.855   3.617   3.225  0.5087  0.4060 -0.7742
12258TIP3    H258190   2.765   3.707   3.143  0.7651  1.5292  0.1697
12259TIP3   OH258191   6.194   2.810  13.318 -0.0453  0.1951 -0.4379
12259TIP3    H158192   6.101   2.814  13.342  0.1033 -0.4322  0.2744
12259TIP3    H258193   6.201   2.730  13.266  0.1073  0.1911 -0.4097
12260TIP3   OH258194   5.693   6.142   5.191  0.2964  0.0710  0.4120
12260TIP3    H158195   5.705   6.131   5.097  0.3916 -0.5494  0.4965
12260TIP3    H258196   5.779   6.127   5.229  0.3460  0.7104  0.5705
12261TIP3   OH258197   5.044   5.484  14.232 -0.2184  0.1852 -0.4977
12261TIP3    H158198   5.055   5.389  14.240  1.6594  0.3175 -1.3304
12261TIP3    H258199   4.951   5.498  14.248 -0.6036 -1.8465 -0.7950
12262TIP3   OH258200   1.313   2.296  16.360 -0.3615 -0.3505 -0.2514
12262TIP3    H158201   1.361   2.378  16.375 -0.2710 -0.0370 -2.2250
12262TIP3    H258202   1.223   2.317  16.385 -0.4792  0.5684 -1.4188
12263TIP3   OH258203   0.920   6.364   0.396  0.9332  0.1568 -0.5459
12263TIP3    H158204   0.899   6.445   0.443 -1.7018 -0.0315 -1.3085
12263TIP3    H258205   0.852   6.302   0.423  1.2188 -0.9043 -2.1753
12264TIP3   OH258206   0.583   0.634   1.462  0.0694  0.1678 -0.3382
12264TIP3    H158207   0.540   0.719   1.455 -1.1078 -0.5511 -2.3765
12264TIP3    H258208   0.660   0.641   1.406  1.3875  0.6958  1.4979
12265TIP3   OH258209   0.409   2.100   0.783 -0.2767 -0.1902  0.1363
12265TIP3    H158210   0.463   2.068   0.711 -0.7925 -0.8072  0.0202
12265TIP3    H258211   0.425   2.195   0.784 -1.9280  0.1666 -2.1966
12266TIP3   OH258212   1.888   4.428  12.419  0.0471  0.4564 -0.1822
12266TIP3    H158213   1.912   4.501  12.476 -2.6431  0.8946  0.4455
12266TIP3    H258214   1.792   4.434  12.412  0.0946 -1.2113 -2.5577
12267TIP3   OH258215   5.662   3.512   0.258 -0.2592 -0.0308 -0.2355
12267TIP3    H158216   5.751   3.512   0.223 -0.9671 -0.2078 -2.0963
12267TIP3    H258217   5.606   3.524   0.181 -1.8417  0.1589  0.9178
12268TIP3   OH258218   2.969   2.507  10.881  0.1624  0.0772 -0.1877
12268TIP3    H158219   2.911   2.569  10.836  0.6646  0.5150 -0.2336
12268TIP3    H258220   2.912   2.464  10.945 -0.2005  0.5533 -0.1837
12269TIP3   OH258221   3.043   5.509  12.374  0.1452 -0.0835  0.0382
12269TIP3    H158222   3.112   5.547  12.319 -0.0209 -0.7902 -0.6726
12269TIP3    H258223   3.085   5.436  12.417  0.1814  0.2639  0.5924
12270TIP3   OH258224   3.971   3.869  16.803 -0.4138 -0.0607  0.0857
12270TIP3    H158225   3.925   3.901  16.725 -1.0087 -0.1690  0.3881
12270TIP3    H258226   3.901   3.840  16.862  0.0284  0.1592  0.7221
12271TIP3   OH258227   2.225   2.381   4.156  0.6099 -0.0938 -0.2110
12271TIP3    H158228   2.245   2.287   4.153  1.1188  0.0174 -0.4073
12271TIP3    H258229   2.308   2.423   4.134  0.6684  0.4302  0.9967
12272TIP3   OH258230   2.892   1.681  16.159 -0.6366  1.0235 -0.2162
12272TIP3    H158231   2.932   1.737  16.225 -0.5818  0.3268  0.3506
12272TIP3    H258232   2.966   1.645  16.110 -0.5179 -0.4953  1.0194
12273TIP3   OH258233   0.434   6.242  10.958  0.1848  0.6157  0.1635
12273TIP3    H158234   0.368   6.291  11.007 -0.0447  0.5135 -0.0442
12273TIP3    H258235   0.488   6.202  11.026 -0.7159 -0.3137  0.3575
12274TIP3   OH258236   1.588   3.665  14.873  0.0868 -0.6232 -0.3148
12274TIP3    H158237   1.674   3.636  14.842 -0.0883 -1.1679 -0.3038
12274TIP3    H258238   1.579   3.754  14.839  0.0069 -1.1115 -1.6164
12275TIP3   OH258239   2.668   0.898   2.167 -0.2359  0.3336 -0.5888
12275TIP3    H158240   2.712   0.983   2.160  1.7788 -0.7141 -0.8400
12275TIP3    H258241   2.674   0.876   2.260  1.5258 -0.7042 -0.9254
12276TIP3   OH258242   4.665   6.243  11.561  0.0308 -0.1819  0.7164
12276TIP3    H158243   4.742   6.194  11.533 -0.0506 -0.0820  0.3195
12276TIP3    H258244   4.627   6.278  11.480 -0.2280  0.0689  0.9425
12277TIP3   OH258245   3.042   0.748   1.348 -0.1450 -0.1598 -0.5433
12277TIP3    H158246   3.055   0.653   1.346 -2.0424 -0.4512  0.0975
12277TIP3    H258247   3.131   0.784   1.353  0.6727 -1.8420 -2.2734
12278TIP3   OH258248   5.243   4.059   2.742 -0.4824 -0.2527 -0.1607
12278TIP3    H158249   5.235   3.990   2.676 -1.9918  0.2205 -0.4837
12278TIP3    H258250   5.197   4.024   2.819 -0.5311  0.0450 -0.0529
12279TIP3   OH258251   1.862   4.577  15.057 -0.4723 -0.2203  0.5944
12279TIP3    H158252   1.859   4.482  15.052 -0.4261 -0.2367  0.8678
12279TIP3    H258253   1.954   4.598  15.073 -0.3117 -0.0790 -0.4626
12280TIP3   OH258254   0.526   6.005  12.550 -0.2828 -0.0732  0.1704
12280TIP3    H158255   0.459   6.073  12.540  0.3598  0.6728  0.8750
12280TIP3    H258256   0.523   5.982  12.643  1.8280  1.4306  0.6373
12281TIP3   OH258257   5.331   5.843   3.427  0.2499 -0.4043  0.6688
12281TIP3    H158258   5.332   5.747   3.429  0.3656 -0.4039  0.6339
12281TIP3    H258259   5.260   5.864   3.366  0.5022 -0.4701  0.3523
12282TIP3   OH258260   0.863   3.780   2.843 -0.8641 -0.4389  0.3160
12282TIP3    H158261   0.856   3.835   2.921 -0.5475  1.4090 -0.9370
12282TIP3    H258262   0.949   3.739   2.850  0.8293  2.7486 -0.9663
12283TIP3   OH258263   6.480   2.451  13.342  0.3037  0.3028 -0.2713
12283TIP3    H158264   6.510   2.489  13.259  0.2056 -0.5465 -0.7131
12283TIP3    H258265   6.388   2.479  13.349  1.3134  3.4099  1.3860
12284TIP3   OH258266   2.057   2.191  11.573 -0.0484 -0.4472 -0.2065
12284TIP3    H158267   2.116   2.138  11.520 -0.7587 -1.7249  0.2670
12284TIP3    H258268   2.101   2.276  11.580  1.8014 -1.4237  0.2746
12285TIP3   OH258269   1.161   3.455  11.819 -0.1562  0.1764  0.2090
12285TIP3    H158270   1.177   3.405  11.739  0.0934 -0.1441  0.4597
12285TIP3    H258271   1.206   3.538  11.805  1.5114 -0.6118  0.8003
12286TIP3   OH258272   4.251   4.162   0.399 -0.0529 -0.0696  0.3329
12286TIP3    H158273   4.265   4.189   0.489  0.9248 -0.7177  0.3827
12286TIP3    H258274   4.156   4.166   0.387  0.0137  2.7601  0.5049
12287TIP3   OH258275   0.851   2.803  14.863  0.3825  0.0014 -0.4780
12287TIP3    H158276   0.788   2.811  14.935  1.2565  1.9273  0.0919
12287TIP3    H258277   0.927   2.759  14.902  1.4303  2.3278  0.1870
12288TIP3   OH258278   4.065   1.257   0.174 -0.0910 -0.4554 -0.3258
12288TIP3    H158279   3.997   1.239   0.238 -0.5670 -1.3327 -1.0725
12288TIP3    H258280   4.049   1.348   0.148 -0.3539 -0.3354  0.2477
12289TIP3   OH258281   2.480   4.386  10.574  0.9254  0.8923 -0.4785
12289TIP3    H158282   2.414   4.432  10.522 -0.9793 -0.5406  0.6024
12289TIP3    H258283   2.513   4.318  10.515 -1.4636 -0.9399  0.1940
12290TIP3   OH258284   3.123   2.959  16.924  0.0304 -0.7538  0.1527
12290TIP3    H158285   3.072   3.016  16.867 -2.4527  0.5204  3.4453
12290TIP3    H258286   3.211   2.995  16.921 -0.2749 -0.0996 -2.0236
12291TIP3   OH258287   1.583   5.164  12.073 -0.7414 -0.0891 -0.4244
12291TIP3    H158288   1.651   5.175  12.006  0.2237  0.1675  0.5731
12291TIP3    H258289   1.512   5.118  12.028 -0.1418  0.1324 -1.6360
12292TIP3   OH258290   3.850   4.156  10.838  0.1995  0.2350  0.4168
12292TIP3    H158291   3.880   4.204  10.761  0.4061  0.4978  0.6578
12292TIP3    H258292   3.860   4.064  10.815  0.2732  0.3137  0.1353
12293TIP3   OH258293   4.350   5.224  15.736 -0.4426  0.0187  0.2903
12293TIP3    H158294   4.418   5.187  15.792 -0.8575 -0.3875  0.5215
12293TIP3    H258295   4.275   5.166  15.747 -0.5953  0.0537 -0.5254
12294TIP3   OH258296   4.335   4.694   1.809  0.9392 -0.7993 -0.6810
12294TIP3    H158297   4.360   4.783   1.786 -2.4169  0.3366 -0.3192
12294TIP3    H258298   4.288   4.704   1.892  1.6786 -3.0850  0.0366
12295TIP3   OH258299   3.859   1.237   1.164  0.2537  0.2331  0.5674
12295TIP3    H158300   3.779   1.187   1.180  1.3872 -1.6127  0.6123
12295TIP3    H258301   3.930   1.173   1.169  1.8418  1.9757  1.4346
12296TIP3   OH258302   4.642   2.490  13.381  0.3760 -0.1634 -0.3434
12296TIP3    H158303   4.558   2.511  13.421  0.5751  0.0782 -0.0423
12296TIP3    H258304   4.637   2.396  13.361  0.8503 -0.6676  1.7309
12297TIP3   OH258305   4.189   3.271  15.637 -0.0736  0.4837  0.4812
12297TIP3    H158306   4.178   3.361  15.605  0.2049 -0.3527 -2.0136
12297TIP3    H258307   4.116   3.223  15.600  0.1855 -0.4918  1.2198
12298TIP3   OH258308   6.367   5.232   1.892 -0.5110  0.4123 -0.3981
12298TIP3    H158309   6.299   5.242   1.958  1.0504  0.9097  1.1873
12298TIP3    H258310   6.404   5.320   1.882  1.4920 -0.2764  0.5679
12299TIP3   OH258311   2.559   3.012  14.318 -0.4058 -0.5023  0.6782
12299TIP3    H158312   2.585   3.072  14.388 -1.7058  0.3936  0.4191
12299TIP3    H258313   2.633   2.953  14.308 -0.1642 -0.5723  2.7422
12300TIP3   OH258314   3.165   0.417   0.796 -0.3208  0.0773  0.2313
12300TIP3    H158315   3.259   0.414   0.777 -0.5048 -0.5097 -0.6193
12300TIP3    H258316   3.123   0.396   0.712 -1.2000 -0.8636  0.8939
12301TIP3   OH258317   0.618   0.033  14.195  0.1301 -0.3476  0.1171
12301TIP3    H158318   0.602   0.125  14.177 -1.4391 -1.2016 -3.2195
12301TIP3    H258319   0.713   0.027  14.208  0.3730  1.5625 -0.6901
12302TIP3   OH258320   6.117   5.161   1.480  0.0130  0.4139  0.6087
12302TIP3    H158321   6.212   5.152   1.474  0.0619  0.3118  1.4068
12302TIP3    H258322   6.083   5.103   1.412  0.5357  1.0809 -0.2346
12303TIP3   OH258323   1.529   1.356   3.438 -0.6747 -0.2049  0.4806
12303TIP3    H158324   1.601   1.367   3.500  0.6718 -0.3498 -1.0290
12303TIP3    H258325   1.517   1.262   3.431  1.1168 -0.3385 -1.6003
12304TIP3   OH258326   6.618   1.659   3.999 -1.1863 -0.4528 -0.2019
12304TIP3    H158327   6.547   1.627   4.056 -1.8696  1.0835 -0.1495
12304TIP3    H258328   6.630   1.750   4.026  0.0352 -0.3721 -0.9992
12305TIP3   OH258329   3.765   2.355   2.221  0.6344 -0.6432  0.1520
12305TIP3    H158330   3.748   2.282   2.161 -0.4365  0.7936 -1.3208
12305TIP3    H258331   3.860   2.356   2.232  0.8390 -0.9193 -1.5097
12306TIP3   OH258332   2.043   0.933   2.136  0.0476 -0.3498 -0.1726
12306TIP3    H158333   2.102   0.900   2.203 -0.8019 -1.5252  0.0081
12306TIP3    H258334   2.007   0.855   2.094 -1.8177  0.3369  0.1051
12307TIP3   OH258335   1.384   3.135   0.025  0.0435 -0.0257 -0.7951
12307TIP3    H158336   1.367   3.044  -0.000 -0.2729 -0.5652  1.2264
12307TIP3    H258337   1.460   3.130   0.083  0.2046  1.0331 -0.9094
12308TIP3   OH258338   1.666   0.784   3.254 -0.3623 -0.7646  0.1581
12308TIP3    H158339   1.667   0.866   3.205  0.7901 -1.4595 -1.0097
12308TIP3    H258340   1.757   0.769   3.278 -0.9785 -0.1571  3.0310
12309TIP3   OH258341   5.586   1.639   3.361 -0.2064  0.3766 -0.4439
12309TIP3    H158342   5.497   1.613   3.337  0.4664 -1.7379 -0.7741
12309TIP3    H258343   5.575   1.706   3.428 -2.0492  0.2787 -0.6326
12310TIP3   OH258344   1.319   5.552  13.961 -0.4388  0.5143 -0.3566
12310TIP3    H158345   1.333   5.591  13.875 -0.6415  0.0320 -0.6119
12310TIP3    H258346   1.326   5.458  13.947  2.5037  0.5221  0.7195
12311TIP3   OH258347   3.869   3.617   6.029  0.3551  0.1386  0.0975
12311TIP3    H158348   3.803   3.686   6.034 -1.1951 -1.0951 -2.3566
12311TIP3    H258349   3.911   3.630   5.944 -1.1401 -2.8953 -1.2034
12312TIP3   OH258350   2.873   0.030   2.359  0.4143  0.5257  0.2966
12312TIP3    H158351   2.857   0.029   2.264 -0.7105  0.0571  0.4787
12312TIP3    H258352   2.876   0.123   2.382  1.2723  0.6474 -0.2858
12313TIP3   OH258353   1.457   5.572  13.325 -0.2929  0.1560 -0.3477
12313TIP3    H158354   1.479   5.656  13.285 -0.1465  0.3712  0.1816
12313TIP3    H258355   1.494   5.578  13.414 -1.6615  0.1491  0.2268
12314TIP3   OH258356   5.005   1.797   5.085 -0.0941 -0.2226  0.2961
12314TIP3    H158357   5.061   1.798   5.007 -1.9837  0.7575 -1.0994
12314TIP3    H258358   5.065   1.814   5.158  1.5813 -0.3142 -1.0310
12315TIP3   OH258359   6.460   0.778  15.420 -0.4455 -0.0369 -0.7301
12315TIP3    H158360   6.508   0.779  15.337  0.3405 -2.3700 -0.3305
12315TIP3    H258361   6.491   0.857  15.465  3.4862 -1.6991 -0.2787
12316TIP3   OH258362   6.374   4.283   5.835 -0.1573 -0.0478  0.6546
12316TIP3    H158363   6.378   4.375   5.860 -0.8542  0.0203  0.5185
12316TIP3    H258364   6.281   4.260   5.843 -1.1874  1.0823 -5.8203
12317TIP3   OH258365   6.527   0.095   0.486 -0.2650 -0.3567  0.3572
12317TIP3    H158366   6.444   0.141   0.494 -0.4676 -0.6024 -0.2934
12317TIP3    H258367   6.503   0.003   0.481 -0.0013 -0.3827 -0.5324
12318TIP3   OH258368   1.716   1.488   5.967  0.1025 -0.1280  0.2719
12318TIP3    H158369   1.746   1.403   6.002 -1.6160 -0.4776  0.9541
12318TIP3    H258370   1.700   1.541   6.045 -0.1259  0.3744 -0.1169
12319TIP3   OH258371   0.547   6.132  13.428 -0.4780  0.3173  0.3769
12319TIP3    H158372   0.577   6.061  13.371 -1.2614  0.2216  0.0797
12319TIP3    H258373   0.611   6.135  13.498  1.3289  1.3886 -1.2606
12320TIP3   OH258374   3.409   0.584  15.175 -0.1130  0.5680 -0.8784
12320TIP3    H158375   3.316   0.565  15.183  0.4008 -1.7388  0.0705
12320TIP3    H258376   3.423   0.602  15.082 -1.2472 -0.5057 -1.2538
12321TIP3   OH258377   1.406   4.409  13.259 -0.2593 -0.0765 -0.4251
12321TIP3    H158378   1.450   4.469  13.319 -0.5842  1.3947 -1.6232
12321TIP3    H258379   1.381   4.464  13.184  0.6815 -1.9712 -2.1907
12322TIP3   OH258380   2.195   4.509  16.199 -0.1793 -0.3200  0.0610
12322TIP3    H158381   2.148   4.457  16.133 -0.3999 -0.9703  0.7266
12322TIP3    H258382   2.150   4.593  16.200  1.0374  0.4064 -2.0278
12323TIP3   OH258383   2.231   6.743   5.444  0.2255  0.9564 -0.0182
12323TIP3    H158384   2.181   6.810   5.397 -0.5142  1.4997  1.5327
12323TIP3    H258385   2.316   6.740   5.399 -0.7246  0.9462 -1.8501
12324TIP3   OH258386   6.011   5.086   0.225  0.5353  0.3584 -0.0417
12324TIP3    H158387   6.079   5.151   0.241  0.3300  0.3824  0.7330
12324TIP3    H258388   5.934   5.120   0.269  0.3705 -0.3021  0.1805
12325TIP3   OH258389   5.662   3.182  11.915  0.3048 -0.2179  0.0028
12325TIP3    H158390   5.622   3.156  11.832 -0.5761  0.6565  0.1463
12325TIP3    H258391   5.713   3.106  11.943  1.4351 -0.1719 -1.8457
12326TIP3   OH258392   5.354   1.291   5.767  0.4186 -0.3440 -0.2184
12326TIP3    H158393   5.342   1.337   5.683 -1.5969  1.8839  1.2367
12326TIP3    H258394   5.448   1.298   5.784  0.7840 -0.4491 -2.0960
12327TIP3   OH258395   1.591   0.647  16.045  0.4032 -0.1388  0.0845
12327TIP3    H158396   1.551   0.562  16.025 -0.1992  0.1350  0.1078
12327TIP3    H258397   1.600   0.690  15.961 -1.4845  0.7294  0.3079
12328TIP3   OH258398   3.985   3.750  12.167 -0.4498  0.0957  0.1610
12328TIP3    H158399   3.995   3.760  12.262 -0.1263 -1.0426  0.2574
12328TIP3    H258400   4.044   3.678  12.144  0.2058  0.9989 -1.0621
12329TIP3   OH258401   1.413   3.279  13.625  0.0295  0.2187  0.1329
12329TIP3    H158402   1.361   3.268  13.545 -1.5378 -1.1257  1.2686
12329TIP3    H258403   1.496   3.235  13.607 -0.1407  0.3332 -0.9174
12330TIP3   OH258404   2.913   6.052   2.030 -0.5124 -0.6974 -0.5701
12330TIP3    H158405   2.913   6.065   1.935  1.0876  2.6368 -0.1864
12330TIP3    H258406   2.964   5.971   2.043 -0.9878 -1.3405 -2.5344
12331TIP3   OH258407   6.780   3.132  15.055  0.0061  0.1906  0.3581
12331TIP3    H158408   6.834   3.053  15.059 -0.4953 -0.0736  3.7720
12331TIP3    H258409   6.707   3.114  15.115 -2.2279  1.7467 -1.7681
12332TIP3   OH258410   0.524   6.397   0.489  0.1829  0.4372  0.0323
12332TIP3    H158411   0.552   6.486   0.470  0.1862  0.2961 -0.6161
12332TIP3    H258412   0.602   6.356   0.528  1.1140 -0.1532 -2.3889
12333TIP3   OH258413   1.549   1.056  16.719  0.1530  0.2270 -1.1497
12333TIP3    H158414   1.545   1.118  16.791  1.2608  0.2393 -1.0977
12333TIP3    H258415   1.505   1.101  16.646  0.5399  0.8852 -0.9810
12334TIP3   OH258416   2.042   1.670   2.500 -0.3670 -0.6270  0.1949
12334TIP3    H158417   1.984   1.631   2.566 -1.0406 -0.0656 -0.0590
12334TIP3    H258418   2.034   1.612   2.424 -1.9666  0.3939 -0.4529
12335TIP3   OH258419   4.329   3.058   3.100  0.1293  0.1541 -0.5280
12335TIP3    H158420   4.355   3.150   3.107  1.0046 -0.0586 -0.8864
12335TIP3    H258421   4.244   3.060   3.058  0.4945  0.7626 -1.2448
12336TIP3   OH258422   0.139   3.399  17.214 -0.1856 -0.2367 -0.1995
12336TIP3    H158423   0.175   3.472  17.162 -3.2667  1.0709 -0.5811
12336TIP3    H258424   0.191   3.400  17.294  0.8461  1.4117 -0.8497
12337TIP3   OH258425   2.955   2.021   2.729  0.0384 -0.5705  0.0904
12337TIP3    H158426   2.961   1.939   2.679  0.6548 -0.0381 -0.7213
12337TIP3    H258427   2.906   2.079   2.671 -0.3079 -0.3306  0.6262
12338TIP3   OH258428   5.705   2.760   1.832  0.8222  0.0858  0.1022
12338TIP3    H158429   5.701   2.854   1.852  2.4350 -0.0631  1.2652
12338TIP3    H258430   5.749   2.756   1.747 -1.3241  0.4743 -1.0595
12339TIP3   OH258431   1.155   1.187   5.285  0.1622  0.4464  0.2089
12339TIP3    H158432   1.199   1.235   5.355 -0.5314 -0.5197  1.3085
12339TIP3    H258433   1.206   1.107   5.275  1.3421  1.3940 -1.6544
12340TIP3   OH258434   6.447   1.785   5.938 -0.4212  0.0581 -0.4957
12340TIP3    H158435   6.451   1.706   5.992 -0.3633 -0.5317 -1.3383
12340TIP3    H258436   6.538   1.814   5.933 -0.4920  0.3837  0.1138
12341TIP3   OH258437   4.030   4.517   1.964  0.0145 -0.0518  0.4717
12341TIP3    H158438   4.071   4.501   1.879 -0.6329 -0.0662  0.1573
12341TIP3    H258439   4.079   4.463   2.025 -1.7932 -2.8294 -0.4706
12342TIP3   OH258440   4.830   6.163   0.376  0.0521  0.3119 -0.1198
12342TIP3    H158441   4.915   6.168   0.332 -0.3408  0.9496 -0.8182
12342TIP3    H258442   4.806   6.070   0.372 -0.0329  0.3699 -1.3834
12343TIP3   OH258443   1.769   0.344   5.632  0.3939 -0.2871 -0.3991
12343TIP3    H158444   1.700   0.409   5.620  0.2094 -0.4704 -0.3264
12343TIP3    H258445   1.841   0.393   5.672 -0.3309 -0.4830  1.1620
12344TIP3   OH258446   5.723   6.123  13.076  0.0180 -0.4805 -0.0305
12344TIP3    H158447   5.792   6.178  13.039  0.7012  0.5814  2.6890
12344TIP3    H258448   5.645   6.177  13.073 -0.0989 -0.6761 -0.5896
12345TIP3   OH258449   4.121   3.397   4.456  0.8082 -0.6138  0.4658
12345TIP3    H158450   4.162   3.428   4.375  1.4316  0.1037  1.0468
12345TIP3    H258451   4.032   3.372   4.431 -0.0927  2.7179  0.1720
12346TIP3   OH258452   1.147   4.765   4.059  0.4779  0.1569 -0.4699
12346TIP3    H158453   1.181   4.680   4.087  0.5379 -0.0745 -1.2340
12346TIP3    H258454   1.074   4.783   4.118  1.3490  0.2410  0.6056
12347TIP3   OH258455   1.994   2.429   0.214 -0.2550  0.1753  0.0702
12347TIP3    H158456   1.982   2.471   0.129 -0.3120  0.0813  0.0313
12347TIP3    H258457   2.080   2.388   0.209 -0.7209 -0.7804 -0.3525
12348TIP3   OH258458   4.168   6.075  13.197  0.1121  0.3449 -0.0146
12348TIP3    H158459   4.189   6.123  13.277  2.1147  0.1752 -0.4208
12348TIP3    H258460   4.131   5.992  13.227  1.1194  0.1690  0.7383
12349TIP3   OH258461   3.881   0.184  13.311 -0.1946 -0.7777 -0.5860
12349TIP3    H158462   3.843   0.271  13.308 -2.1092 -1.5693 -0.1804
12349TIP3    H258463   3.861   0.147  13.225  1.0820 -0.6275 -0.9517
12350TIP3   OH258464   1.020   4.003   0.217  0.3848  0.2972 -0.0941
12350TIP3    H158465   0.995   4.087   0.254  1.6483  0.3526  0.6624
12350TIP3    H258466   1.107   4.018   0.179 -0.3016 -0.1204 -1.8473
12351TIP3   OH258467   5.793   0.696   2.643 -0.2095 -0.3874  0.1653
12351TIP3    H158468   5.851   0.771   2.656 -1.3461  0.6436 -0.6483
12351TIP3    H258469   5.718   0.731   2.596 -1.6363 -1.6539  1.4584
12352TIP3   OH258470   3.343   4.513   1.418 -0.2104  0.1935 -0.0587
12352TIP3    H158471   3.283   4.584   1.437 -1.8417 -1.0769 -0.3356
12352TIP3    H258472   3.288   4.435   1.415  1.3452 -0.9025 -1.0227
12353TIP3   OH258473   2.159   2.917  14.737  0.0551 -0.4304 -0.1931
12353TIP3    H158474   2.110   2.955  14.809  0.6117 -0.4109  0.1763
12353TIP3    H258475   2.156   2.823  14.753 -1.3454 -0.5603 -1.1186
12354TIP3   OH258476   1.662   6.279  13.984  0.0483 -0.3491 -0.3332
12354TIP3    H158477   1.632   6.221  13.914  1.4211  0.8338 -1.9402
12354TIP3    H258478   1.757   6.272  13.981  0.1190 -0.2078  1.3758
12355TIP3   OH258479   4.294   3.782   3.158 -0.2475 -0.2697 -0.0373
12355TIP3    H158480   4.328   3.743   3.239 -2.5733 -2.0789  0.1431
12355TIP3    H258481   4.240   3.855   3.188 -0.5692 -0.5291  0.0268
12356TIP3   OH258482   1.578   6.768  16.403 -0.1521  0.4611  0.3011
12356TIP3    H158483   1.594   6.804  16.316 -1.2828  1.6395  0.5597
12356TIP3    H258484   1.499   6.715  16.393  0.7965 -0.9420  0.1971
12357TIP3   OH258485   5.873   5.773   2.143  0.2597 -0.0722  0.3234
12357TIP3    H158486   5.938   5.709   2.172  0.5625  0.0876  0.0067
12357TIP3    H258487   5.788   5.734   2.165  0.3843 -1.3019 -1.3547
12358TIP3   OH258488   3.325   2.707   4.001 -0.3772  0.0633 -0.3428
12358TIP3    H158489   3.348   2.620   3.967 -0.3626  0.0478 -0.2934
12358TIP3    H258490   3.231   2.702   4.019 -0.8438  0.7435 -2.4114
12359TIP3   OH258491   3.688   6.237   0.759 -0.4732  0.9521  0.9240
12359TIP3    H158492   3.650   6.304   0.817 -1.3271  1.6671 -0.4370
12359TIP3    H258493   3.721   6.170   0.819 -2.5744  1.0032  2.2123
12360TIP3   OH258494   5.013   3.362   0.150  0.6238 -0.0492 -0.2977
12360TIP3    H158495   4.925   3.401   0.151  1.4152  1.8266 -2.0651
12360TIP3    H258496   5.047   3.379   0.238 -0.8717 -1.0766  0.5154
12361TIP3   OH258497   4.631   2.247  12.163 -0.3867 -0.2352 -0.3599
12361TIP3    H158498   4.703   2.274  12.221  0.1576 -0.7643 -0.7776
12361TIP3    H258499   4.555   2.295  12.195 -0.4154 -1.5733  1.6606
12362TIP3   OH258500   6.362   4.135  15.109  0.0594  0.1298 -0.6044
12362TIP3    H158501   6.382   4.228  15.116  0.9326 -0.0496 -0.6224
12362TIP3    H258502   6.268   4.129  15.124  0.1539  0.9075  0.3188
12363TIP3   OH258503   3.285   3.642   1.629 -0.0794  0.5689 -0.5648
12363TIP3    H158504   3.260   3.619   1.539  0.1031  0.2815 -0.5421
12363TIP3    H258505   3.354   3.708   1.619 -0.3429  0.8379 -0.6315
12364TIP3   OH258506   4.318   4.714  12.127 -0.5180 -0.3630 -0.7208
12364TIP3    H158507   4.388   4.775  12.103 -1.4755  0.4556 -1.4658
12364TIP3    H258508   4.254   4.768  12.174  0.4945 -1.5998  2.2035
12365TIP3   OH258509   4.978   5.080   0.022  0.1119 -0.2716 -0.7556
12365TIP3    H158510   4.886   5.066   0.046  0.2968 -0.1595  0.0265
12365TIP3    H258511   5.023   5.001   0.051  0.5866  0.4876  0.6450
12366TIP3   OH258512   5.195   4.355   4.835  0.4533  0.5430  0.3578
12366TIP3    H158513   5.182   4.394   4.922 -0.5198 -0.1553  0.5291
12366TIP3    H258514   5.183   4.428   4.775 -1.9247  0.4364  0.6515
12367TIP3   OH258515   2.060   5.114   5.647  0.3707 -0.2820  0.2509
12367TIP3    H158516   1.987   5.053   5.634 -0.5154  0.6823  0.6572
12367TIP3    H258517   2.082   5.145   5.560 -0.5772  0.4165  0.2478
12368TIP3   OH258518   3.612   3.930  12.341 -0.2136 -0.3280  0.2400
12368TIP3    H158519   3.537   3.917  12.398 -0.1281  1.0104  0.6911
12368TIP3    H258520   3.580   3.909  12.253 -1.2773  0.7687  0.3552
12369TIP3   OH258521   0.679   0.260  14.607  0.0565  0.4894 -0.2537
12369TIP3    H158522   0.681   0.356  14.615  0.0365  0.5834 -1.2985
12369TIP3    H258523   0.655   0.229  14.694 -2.7988  1.5498 -0.6318
12370TIP3   OH258524   5.216   0.326  11.187  0.0902 -0.0749 -1.4030
12370TIP3    H158525   5.162   0.331  11.108  0.9059 -1.8281 -2.1037
12370TIP3    H258526   5.261   0.241  11.180  0.3436 -0.1517  0.8447
12371TIP3   OH258527   1.363   0.671   0.617  0.2706  0.4468 -0.4641
12371TIP3    H158528   1.294   0.690   0.554 -1.4808 -0.7794  1.0114
12371TIP3    H258529   1.382   0.578   0.605  0.2138  0.2972  0.5264
12372TIP3   OH258530   2.684   0.500  15.057 -0.5016  0.0954  0.1906
12372TIP3    H158531   2.729   0.484  14.974 -0.5939  0.7331  0.0130
12372TIP3    H258532   2.665   0.594  15.056 -0.3943  0.1277  0.9896
12373TIP3   OH258533   0.539   0.182  16.930 -0.4452 -0.5043  0.9666
12373TIP3    H158534   0.449   0.211  16.913  0.3638  0.4365 -2.1496
12373TIP3    H258535   0.533   0.086  16.929 -0.7512 -0.5622 -3.9416
12374TIP3   OH258536   1.759   3.160   1.364  0.5285  0.8619 -0.0925
12374TIP3    H158537   1.850   3.134   1.376  1.3228  3.7834  0.7582
12374TIP3    H258538   1.715   3.133   1.445  0.8650  0.4158 -0.0562
12375TIP3   OH258539   3.890   5.169  16.749  0.3226 -0.2305 -0.5496
12375TIP3    H158540   3.883   5.243  16.810 -0.5978 -1.5106  0.9599
12375TIP3    H258541   3.957   5.113  16.788 -0.2951 -1.0739 -0.7023
12376TIP3   OH258542   0.101   6.502  13.211 -0.3619  0.4645 -0.6654
12376TIP3    H158543   0.089   6.429  13.151  1.9326 -0.4897 -0.0426
12376TIP3    H258544   0.171   6.472  13.270 -2.1757  1.5651  2.1327
12377TIP3   OH258545   1.688   2.631  13.994  0.1396 -0.3102 -0.4006
12377TIP3    H158546   1.687   2.650  13.900 -0.1887 -0.6858 -0.4708
12377TIP3    H258547   1.692   2.536  14.000  0.7442 -0.2661 -0.0333
12378TIP3   OH258548   0.542   5.996  14.364  0.3947  0.3485 -0.3224
12378TIP3    H158549   0.550   6.050  14.443 -0.4653  2.0230 -1.3634
12378TIP3    H258550   0.517   5.910  14.397 -3.8437  1.9724  1.0493
12379TIP3   OH258551   0.680   3.075   2.219  0.3835 -0.2732 -0.1250
12379TIP3    H158552   0.697   3.148   2.279  1.1458 -0.8106  0.3130
12379TIP3    H258553   0.751   3.079   2.155  1.1118 -1.3933  0.6238
12380TIP3   OH258554   6.326   1.275  14.550 -0.1967 -0.5565 -0.2965
12380TIP3    H158555   6.402   1.231  14.513  0.2441  0.6091 -0.8007
12380TIP3    H258556   6.340   1.368  14.531 -0.3032  0.0133  2.1773
12381TIP3   OH258557   4.593   0.458  16.407 -0.0669  0.6454 -0.3075
12381TIP3    H158558   4.579   0.519  16.479 -3.5706 -1.0087  0.5403
12381TIP3    H258559   4.538   0.383  16.429 -1.6405  0.3097 -4.9738
12382TIP3   OH258560   2.302   5.487   0.859  0.0349  0.0361 -0.2226
12382TIP3    H158561   2.263   5.462   0.943 -2.6135  1.5690 -0.9134
12382TIP3    H258562   2.392   5.511   0.880 -0.3735 -0.3246  2.0725
12383TIP3   OH258563   4.178   1.407   6.225  0.1850  0.3051  0.0932
12383TIP3    H158564   4.240   1.478   6.211  0.6273 -0.3066 -1.1975
12383TIP3    H258565   4.231   1.328   6.220 -0.7889 -0.2648 -1.8625
12384TIP3   OH258566   3.838   1.555   5.297 -0.0260  0.4307 -0.3799
12384TIP3    H158567   3.885   1.493   5.242  0.4355 -0.0081  0.4918
12384TIP3    H258568   3.887   1.556   5.379 -1.3176  0.2448  0.4113
12385TIP3   OH258569   3.375   6.720   3.998  0.5791 -0.7548  0.2945
12385TIP3    H158570   3.405   6.649   4.054  1.2944 -0.2355  0.5673
12385TIP3    H258571   3.296   6.752   4.041 -0.8634 -2.6341 -0.8358
12386TIP3   OH258572   0.329   2.694  11.351 -0.5905  0.2053  0.1798
12386TIP3    H158573   0.296   2.631  11.288 -0.6797  0.0083  0.4205
12386TIP3    H258574   0.360   2.767  11.299 -2.2090  0.7778 -0.0072
12387TIP3   OH258575   2.566   2.585  14.282 -0.1829  0.1363  0.1858
12387TIP3    H158576   2.488   2.641  14.285  0.8794  1.5900  2.1430
12387TIP3    H258577   2.639   2.645  14.295  1.0402 -1.6271  1.7208
12388TIP3   OH258578   5.899   1.527   0.263  0.0275 -0.4761 -0.2775
12388TIP3    H158579   5.982   1.490   0.295  0.0483  0.6840  1.0719
12388TIP3    H258580   5.914   1.546   0.171  2.1808  2.2376  0.5739
12389TIP3   OH258581   1.274   1.001  13.860  0.1636  0.4425  0.5386
12389TIP3    H158582   1.253   1.049  13.780  0.7819  0.6658  0.5006
12389TIP3    H258583   1.368   1.018  13.874  0.1781 -0.0086  1.0277
12390TIP3   OH258584   5.189   4.837  14.387  0.5276  0.0986  0.6052
12390TIP3    H158585   5.242   4.758  14.398  0.8656 -0.0384 -1.8948
12390TIP3    H258586   5.253   4.908  14.376  0.2170  0.1486 -0.9460
12391TIP3   OH258587   4.019   4.160  12.933 -0.0125 -0.0154  0.7149
12391TIP3    H158588   4.013   4.124  13.021  2.2971  0.1059  0.9363
12391TIP3    H258589   3.995   4.087  12.876  1.7015 -1.0707  1.3087
12392TIP3   OH258590   5.424   2.690   6.627 -0.0742 -0.6678  0.4871
12392TIP3    H158591   5.508   2.716   6.666  0.2613 -0.7114 -0.2046
12392TIP3    H258592   5.364   2.761   6.651  0.3237 -0.3088  0.4292
12393TIP3   OH258593   3.897   6.719  15.797 -0.0218 -0.0849  0.2112
12393TIP3    H158594   3.894   6.696  15.704 -0.2842 -1.1138  0.4573
12393TIP3    H258595   3.845   6.650  15.839 -0.2844  0.6352  1.0646
12394TIP3   OH258596   4.513   0.465   4.851  0.5273  0.5197  0.3462
12394TIP3    H158597   4.582   0.438   4.789  0.9610 -0.5924  1.2947
12394TIP3    H258598   4.432   0.429   4.814  0.7231  0.2384  0.1907
12395TIP3   OH258599   0.721   0.211  16.702  0.0302  0.0604 -0.0636
12395TIP3    H158600   0.794   0.249  16.750  0.7922 -1.8406  0.3361
12395TIP3    H258601   0.646   0.220  16.761  0.1938  0.9380  0.0137
12396TIP3   OH258602   5.638   3.942   0.698  0.0877 -0.4174 -0.8119
12396TIP3    H158603   5.582   3.954   0.622 -1.4501 -0.7364  0.2331
12396TIP3    H258604   5.727   3.944   0.664 -0.5803 -0.4082 -2.5782
12397TIP3   OH258605   1.593   2.959   2.694 -0.5318  0.4413 -0.1498
12397TIP3    H158606   1.611   2.994   2.781  2.4858 -0.3505 -0.4053
12397TIP3    H258607   1.515   3.006   2.665  0.1897  2.9210  1.7721
12398TIP3   OH258608   6.669   1.360   4.062 -0.0641 -0.6707  0.7721
12398TIP3    H158609   6.686   1.374   3.969 -3.7252  1.0099  0.2813
12398TIP3    H258610   6.753   1.374   4.104  1.2758  0.2950 -2.1032
12399TIP3   OH258611   3.384   4.430   2.297 -0.2029  0.0761  0.2640
12399TIP3    H158612   3.328   4.502   2.326  1.3416  1.5262 -0.2444
12399TIP3    H258613   3.437   4.408   2.374  1.1583  1.2895 -0.2892
12400TIP3   OH258614   5.930   5.135  10.642  0.2709 -0.5076  0.0760
12400TIP3    H158615   5.837   5.114  10.646  0.3957 -1.1657 -0.5087
12400TIP3    H258616   5.932   5.229  10.625 -0.2792 -0.3519  0.8242
12401TIP3   OH258617   0.594   5.826   4.529  0.3745  0.0570 -0.0353
12401TIP3    H158618   0.544   5.796   4.453  0.9289 -0.0132 -0.3736
12401TIP3    H258619   0.531   5.876   4.581 -0.5169 -1.5156  0.4496
12402TIP3   OH258620   2.277   0.631  14.711  0.1522 -0.1563  0.0194
12402TIP3    H158621   2.299   0.596  14.625 -2.0887 -1.0886 -0.2188
12402TIP3    H258622   2.219   0.705  14.693 -1.1635 -0.9892  0.7199
12403TIP3   OH258623   3.191   6.083   5.167  0.3061  0.4318 -0.3793
12403TIP3    H158624   3.245   6.155   5.201 -0.3005 -0.2901  2.2078
12403TIP3    H258625   3.254   6.017   5.139  0.8244  0.6727  0.2077
12404TIP3   OH258626   2.408   3.638   4.916 -0.0460  0.5668  0.1821
12404TIP3    H158627   2.332   3.604   4.963  0.5777  0.2467  0.9681
12404TIP3    H258628   2.444   3.561   4.870  1.1777  0.2098  1.7030
12405TIP3   OH258629   5.179   6.160  13.623  0.1706 -0.4175 -0.2158
12405TIP3    H158630   5.221   6.125  13.702  1.9399 -1.2266 -1.4962
12405TIP3    H258631   5.117   6.225  13.656  1.8674  0.2464  1.7802
12406TIP3   OH258632   4.717   0.442   3.768  0.8133  0.5288  0.1640
12406TIP3    H158633   4.682   0.428   3.856  1.1193 -0.1069  0.1864
12406TIP3    H258634   4.802   0.398   3.769 -0.0167 -1.1468 -1.0452
12407TIP3   OH258635   0.554   3.207   3.309  0.1096  0.3400  0.3221
12407TIP3    H158636   0.584   3.122   3.340  1.9458 -0.0093 -2.2366
12407TIP3    H258637   0.625   3.238   3.252 -2.0546  1.9912 -1.5883
12408TIP3   OH258638   5.049   6.372  17.068 -0.0156 -0.1646  0.6453
12408TIP3    H158639   4.955   6.381  17.085 -0.1602  0.6111 -0.5167
12408TIP3    H258640   5.066   6.279  17.081 -1.0183 -0.3773  0.5206
12409TIP3   OH258641   0.402   1.024   5.979  0.4900  0.6570  0.2412
12409TIP3    H158642   0.399   1.063   5.892 -0.5669  0.0507 -0.0023
12409TIP3    H258643   0.365   1.091   6.037 -3.0052 -0.5866 -0.4252
12410TIP3   OH258644   2.346   2.772  13.456 -0.5766  0.1798 -0.0757
12410TIP3    H158645   2.316   2.820  13.533  0.8979  0.5757  0.2630
12410TIP3    H258646   2.425   2.818  13.427 -0.2055 -0.9141 -0.8678
12411TIP3   OH258647   2.097   5.367   2.176 -0.6129 -0.5091  0.3362
12411TIP3    H158648   2.084   5.458   2.204  0.7385  0.1504 -1.0952
12411TIP3    H258649   2.186   5.346   2.205  1.3277  0.6048 -4.3633
12412TIP3   OH258650   3.756   4.199  15.395  0.3038  0.1990 -0.2310
12412TIP3    H158651   3.739   4.252  15.317  2.0307  0.7077 -0.2814
12412TIP3    H258652   3.717   4.249  15.467 -1.8944 -0.5979 -0.8193
12413TIP3   OH258653   5.115   3.518  12.335 -1.0556 -0.2661 -0.7647
12413TIP3    H158654   5.172   3.576  12.384  0.3510 -1.4469 -0.9718
12413TIP3    H258655   5.065   3.470  12.401  0.7477 -1.7664 -0.4501
12414TIP3   OH258656   5.830   3.302   2.963  0.4379 -0.2717  0.8110
12414TIP3    H158657   5.857   3.227   2.910  1.1959 -0.0451  0.8652
12414TIP3    H258658   5.848   3.378   2.907 -1.2189 -0.1634  0.3777
12415TIP3   OH258659   5.380   5.711   5.910  0.1142  0.1587 -0.2737
12415TIP3    H158660   5.422   5.714   5.997 -0.3113  0.8576 -0.0819
12415TIP3    H258661   5.402   5.796   5.871  0.8827 -0.4263 -1.1319
12416TIP3   OH258662   0.992   4.708   4.726  0.0982 -0.2815 -0.2914
12416TIP3    H158663   1.000   4.803   4.716  1.0222 -0.3180  0.0366
12416TIP3    H258664   0.934   4.697   4.802  0.6871  0.0261  0.2056
12417TIP3   OH258665   5.232   2.557  16.333  0.0361 -0.2091 -0.4157
12417TIP3    H158666   5.320   2.597  16.332 -0.4137  0.8218  0.2305
12417TIP3    H258667   5.195   2.578  16.248  0.8601 -1.6885 -1.1664
12418TIP3   OH258668   4.942   2.651  16.413  0.1580  0.1753 -0.5053
12418TIP3    H158669   4.863   2.605  16.384 -0.7416  1.6685 -0.4609
12418TIP3    H258670   4.982   2.684  16.332  0.1847  0.3042 -0.4401
12419TIP3   OH258671   5.935   5.481   5.500  0.4313 -0.3226  0.0844
12419TIP3    H158672   5.884   5.470   5.580  1.0941 -3.5164  0.1232
12419TIP3    H258673   5.877   5.449   5.430 -0.0868  2.2872 -0.7451
12420TIP3   OH258674   5.258   2.207   2.228 -0.4116  0.0831 -0.4283
12420TIP3    H158675   5.277   2.279   2.168 -0.7763  0.7462  0.2436
12420TIP3    H258676   5.343   2.165   2.242  0.1290  1.4422  0.5267
12421TIP3   OH258677   6.043   2.867  10.980 -0.1411  0.5405  0.2977
12421TIP3    H158678   6.065   2.952  11.019  0.8533  0.1151  0.6813
12421TIP3    H258679   6.028   2.887  10.888  0.6289  1.0634  0.2742
12422TIP3   OH258680   3.406   4.207  12.481  0.0498  0.3749 -0.0060
12422TIP3    H158681   3.458   4.276  12.523 -1.4389  1.7299 -0.3197
12422TIP3    H258682   3.382   4.244  12.396 -2.3792  0.2629  0.6012
12423TIP3   OH258683   2.767   3.711  14.461 -0.5606 -0.2393 -1.2012
12423TIP3    H158684   2.676   3.690  14.443 -1.2689  0.6134  1.2237
12423TIP3    H258685   2.781   3.795  14.417 -1.0473 -0.1673 -1.2184
12424TIP3   OH258686   2.709   6.195   2.182  0.3279  0.4280  0.0111
12424TIP3    H158687   2.681   6.252   2.110  0.0096  0.3334  0.0603
12424TIP3    H258688   2.786   6.149   2.147 -0.1102  0.0345 -0.4376
12425TIP3   OH258689   0.231   2.218  15.978 -0.0909  0.0018  0.3148
12425TIP3    H158690   0.166   2.161  16.020 -2.1176  1.9055 -0.1575
12425TIP3    H258691   0.191   2.243  15.895  1.4636  0.7954 -0.2070
12426TIP3   OH258692   2.431   0.023   2.685 -0.3772  0.4354 -0.1789
12426TIP3    H158693   2.377   0.089   2.729  0.9767  1.4344  0.0092
12426TIP3    H258694   2.443   0.058   2.597  0.5899  0.5814  0.0122
12427TIP3   OH258695   1.948   0.954  14.970 -0.2592 -0.3275 -0.5969
12427TIP3    H158696   1.926   0.862  14.952  1.1581 -0.9563  0.7623
12427TIP3    H258697   2.007   0.979  14.898 -0.0136 -0.7311 -0.5388
12428TIP3   OH258698   1.752   0.559   4.309  0.6694 -0.1482 -0.0907
12428TIP3    H158699   1.776   0.605   4.229  0.6185 -1.8169 -1.0868
12428TIP3    H258700   1.670   0.601   4.337  1.6007  1.6090  0.0862
12429TIP3   OH258701   5.303   2.944  14.754 -0.3094  0.3243 -0.1039
12429TIP3    H158702   5.275   2.861  14.717 -2.3419  1.1553 -0.4836
12429TIP3    H258703   5.285   2.936  14.848 -0.4144  0.3094 -0.1261
12430TIP3   OH258704   3.713   3.860  11.331 -0.6750  0.5953  0.4780
12430TIP3    H158705   3.641   3.799  11.311 -0.3467  0.5958 -0.7332
12430TIP3    H258706   3.782   3.837  11.270  0.2553  0.8115  1.4300
12431TIP3   OH258707   5.623   6.420   4.880 -0.2578 -1.0692  0.6584
12431TIP3    H158708   5.718   6.430   4.873 -0.7492  3.0938 -2.1413
12431TIP3    H258709   5.599   6.364   4.807 -0.3284  1.6003 -1.4425
12432TIP3   OH258710   2.015   4.778  11.414 -0.3672 -0.1330 -0.1166
12432TIP3    H158711   2.054   4.692  11.398  3.1972  1.5906 -1.1078
12432TIP3    H258712   1.933   4.776  11.365  0.4208 -2.4015 -1.4272
12433TIP3   OH258713   1.128   3.112  14.194  0.4521  0.1737 -0.1797
12433TIP3    H158714   1.171   3.027  14.183 -0.1707 -0.1029 -0.5019
12433TIP3    H258715   1.073   3.121  14.116  2.0201  1.7675 -1.1250
12434TIP3   OH258716   2.206   5.025   6.597  0.0016 -0.3057  0.3216
12434TIP3    H158717   2.277   5.079   6.632 -1.1364  0.9824  0.7074
12434TIP3    H258718   2.238   4.936   6.603  1.7747  0.2913  0.0563
12435TIP3   OH258719   3.461   5.126   4.224  0.3834 -0.4771 -0.2545
12435TIP3    H158720   3.432   5.124   4.132  4.5900  0.4277 -1.6849
12435TIP3    H258721   3.524   5.054   4.231 -0.6891 -1.2321  2.2850
12436TIP3   OH258722   6.723   3.256   0.078  0.2056  0.1976 -0.1112
12436TIP3    H158723   6.797   3.303   0.039 -0.8718  0.9843 -1.2097
12436TIP3    H258724   6.704   3.304   0.158  0.8884 -0.0239  0.1929
12437TIP3   OH258725   4.068   1.349  15.192  0.1296  0.0306 -0.2398
12437TIP3    H158726   4.142   1.288  15.195  1.3992  1.5686  0.9553
12437TIP3    H258727   4.100   1.423  15.141 -1.2982 -0.1526 -1.4378
12438TIP3   OH258728   6.006   6.393  14.098  0.1981 -0.2494  0.3764
12438TIP3    H158729   6.022   6.383  14.192  2.4839  0.6093  0.1025
12438TIP3    H258730   6.092   6.385  14.058 -0.5323  1.0033 -1.5127
12439TIP3   OH258731   6.520   1.189   5.937  0.0443  0.0541 -0.5649
12439TIP3    H158732   6.493   1.272   5.975  2.2774  0.4276  0.3188
12439TIP3    H258733   6.553   1.138   6.011 -0.9111 -1.4702 -1.1593
12440TIP3   OH258734   3.756   6.379   0.245  0.0371 -0.3296 -0.2388
12440TIP3    H158735   3.688   6.438   0.212 -0.9713 -0.8190  0.9435
12440TIP3    H258736   3.710   6.321   0.306  1.7359  0.1568  1.5437
12441TIP3   OH258737   3.833   2.935  12.446  0.0141  0.0759 -0.3354
12441TIP3    H158738   3.917   2.950  12.403 -0.6459  0.6227 -1.4654
12441TIP3    H258739   3.853   2.880  12.521  1.4113  0.3857 -0.4831
12442TIP3   OH258740   4.716   4.877  15.266 -0.1069 -0.2712 -0.1474
12442TIP3    H158741   4.693   4.970  15.256 -0.1420 -0.5169 -2.4705
12442TIP3    H258742   4.744   4.870  15.357  1.8961  2.4722 -0.4863
12443TIP3   OH258743   6.227   4.331  15.321  0.4368 -0.5764 -0.2590
12443TIP3    H158744   6.138   4.330  15.355  0.8397 -1.4300  0.8193
12443TIP3    H258745   6.251   4.238  15.313  1.0446 -0.3644 -1.0395
12444TIP3   OH258746   4.047   1.240  15.487  0.5593 -0.1385  0.1265
12444TIP3    H158747   3.972   1.214  15.540  0.7597 -1.0099 -0.0127
12444TIP3    H258748   4.033   1.198  15.402  0.4443  0.9214 -0.3942
12445TIP3   OH258749   6.311   2.767   3.598 -0.1157 -0.0008  0.3166
12445TIP3    H158750   6.389   2.748   3.547 -0.3904  0.3364 -0.2274
12445TIP3    H258751   6.271   2.842   3.555 -2.3135 -1.9294 -1.1584
12446TIP3   OH258752   3.676   6.019  16.717 -0.4284 -0.6151  0.2533
12446TIP3    H158753   3.621   6.065  16.654 -1.1343 -0.9565  0.6064
12446TIP3    H258754   3.749   5.985  16.666 -1.2272 -1.2820 -0.4686
12447TIP3   OH258755   4.603   3.420  11.441 -0.1663  0.2282 -0.0822
12447TIP3    H158756   4.663   3.399  11.512 -2.4537 -2.1393  1.2305
12447TIP3    H258757   4.537   3.478  11.481 -0.1518  0.8049 -0.8794
12448TIP3   OH258758   0.888   3.546  13.273  0.1798  0.7258 -0.3408
12448TIP3    H158759   0.856   3.477  13.331  0.0120  2.2321  1.4025
12448TIP3    H258760   0.845   3.529  13.189 -0.8260 -0.5456  0.4113
12449TIP3   OH258761   0.067   1.551   3.928  0.1969  0.4450  0.1050
12449TIP3    H158762  -0.017   1.593   3.948 -0.1104 -0.1759  0.1554
12449TIP3    H258763   0.133   1.606   3.970 -0.1755  1.0294 -0.0773
12450TIP3   OH258764   3.660   2.097  14.103  0.8669 -0.2737 -0.0011
12450TIP3    H158765   3.673   2.178  14.153  0.8898 -0.1297 -0.2411
12450TIP3    H258766   3.614   2.125  14.024  0.2492 -0.5983  0.2428
12451TIP3   OH258767   1.858   2.072   0.853  0.2173 -0.5867  0.1749
12451TIP3    H158768   1.946   2.082   0.818  0.6620  0.9707  1.6509
12451TIP3    H258769   1.833   2.160   0.880 -0.5835 -1.5004  2.5854
12452TIP3   OH258770   6.503   1.429  12.368  0.0511 -0.5393 -0.1165
12452TIP3    H158771   6.539   1.487  12.300 -0.4754  0.2609  0.2774
12452TIP3    H258772   6.409   1.441  12.363  0.0855  1.2044  2.1689
12453TIP3   OH258773   5.695   5.052  13.083 -0.0410  0.0450 -0.4937
12453TIP3    H158774   5.728   4.962  13.078 -0.6319 -0.4248  2.5697
12453TIP3    H258775   5.734   5.086  13.164 -3.9121  0.7383  1.2053
12454TIP3   OH258776   3.335   2.178   3.280  0.2437 -0.4470  0.2423
12454TIP3    H158777   3.273   2.220   3.220  0.3631 -1.7474 -0.8211
12454TIP3    H258778   3.416   2.226   3.268  0.5570 -1.3465 -1.4494
12455TIP3   OH258779   1.156   3.669  11.574  0.2461  0.2753 -0.0774
12455TIP3    H158780   1.083   3.627  11.529  0.7975  0.7467 -1.4420
12455TIP3    H258781   1.116   3.742  11.621 -0.5813 -1.1967  1.5759
12456TIP3   OH258782   3.719   5.134   6.736  0.3400 -0.2113  0.3505
12456TIP3    H158783   3.794   5.108   6.683 -0.8789 -1.9223 -0.5766
12456TIP3    H258784   3.753   5.202   6.794  3.0345 -2.2486  1.2360
12457TIP3   OH258785   0.677   0.730   5.934  1.1684 -0.2447 -0.0723
12457TIP3    H158786   0.760   0.777   5.941  1.4910 -1.1908  3.1733
12457TIP3    H258787   0.701   0.643   5.900  1.3198 -0.0607 -0.4375
12458TIP3   OH258788   1.221   2.197   3.256  0.0171  0.0164 -0.1339
12458TIP3    H158789   1.182   2.227   3.174  0.8585 -0.2912 -0.6572
12458TIP3    H258790   1.148   2.162   3.306 -0.7905  1.8501 -0.0036
12459TIP3   OH258791   6.131   3.353   6.637  0.7320 -0.1072  0.6242
12459TIP3    H158792   6.170   3.307   6.562  0.6930  0.7668  0.0562
12459TIP3    H258793   6.073   3.289   6.677  0.2829 -0.3970 -0.4654
12460TIP3   OH258794   2.488   6.285   4.064  0.0607 -0.3839 -0.5584
12460TIP3    H158795   2.534   6.368   4.052  0.4832 -0.6097 -0.5158
12460TIP3    H258796   2.489   6.245   3.977  0.5345 -0.6910 -0.4124
12461TIP3   OH258797   3.787   2.228  16.967  0.4936  0.4243 -0.4995
12461TIP3    H158798   3.849   2.184  16.909 -0.2951 -1.2564 -0.0994
12461TIP3    H258799   3.720   2.263  16.908  0.7770  0.5327 -0.7609
12462TIP3   OH258800   1.174   5.754  11.232  0.5180 -0.0806 -0.2081
12462TIP3    H158801   1.217   5.812  11.170  0.3855  1.1060  0.7953
12462TIP3    H258802   1.236   5.683  11.246  1.0863  0.3168 -0.7120
12463TIP3   OH258803   6.208   4.463  14.737 -0.2500 -0.0171  0.1290
12463TIP3    H158804   6.243   4.393  14.683 -0.9031 -0.7163  0.5995
12463TIP3    H258805   6.269   4.470  14.811 -0.0289  0.1087 -0.0656
12464TIP3   OH258806   5.200   5.942  11.578 -0.1549  0.0476 -0.0752
12464TIP3    H158807   5.134   6.000  11.614 -1.0367 -0.4244 -0.9056
12464TIP3    H258808   5.205   5.869  11.639 -2.7882 -1.5364 -1.6614
12465TIP3   OH258809   4.384   4.084  13.595  0.4569 -0.4302 -0.3184
12465TIP3    H158810   4.292   4.086  13.621  0.4060 -0.7772 -0.4723
12465TIP3    H258811   4.433   4.087  13.677  0.3120  0.0570 -0.2511
12466TIP3   OH258812   3.875   0.103  12.777  0.1848  0.0286  0.4337
12466TIP3    H158813   3.781   0.103  12.797  0.3917  0.8208  1.4179
12466TIP3    H258814   3.904   0.191  12.798  0.9278  0.1371 -0.9712
12467TIP3   OH258815   2.722   3.459  13.622 -0.1871 -0.0377  0.1274
12467TIP3    H158816   2.739   3.526  13.555  1.8627 -0.5349  0.1062
12467TIP3    H258817   2.627   3.448  13.622 -0.1753 -0.4817 -3.1405
12468TIP3   OH258818   0.430   6.275   3.835 -0.0569 -0.5134  0.0210
12468TIP3    H158819   0.427   6.221   3.757 -1.0443 -0.3573 -0.0552
12468TIP3    H258820   0.365   6.237   3.893  2.7138 -2.4817  1.9957
12469TIP3   OH258821   5.651   4.315  14.693  0.1498  0.5270  0.0024
12469TIP3    H158822   5.707   4.340  14.767  0.1201  0.3857  0.0719
12469TIP3    H258823   5.651   4.219  14.694 -1.9908  0.5087  1.4226
12470TIP3   OH258824   1.073   2.868  15.460 -0.0258 -0.2914  0.5100
12470TIP3    H158825   1.047   2.887  15.550 -0.9784  0.4734  0.0786
12470TIP3    H258826   1.133   2.793  15.467 -1.3449 -1.2491  1.6172
12471TIP3   OH258827   0.962   4.481   1.855  0.4316 -0.2413 -0.0281
12471TIP3    H158828   1.057   4.475   1.859  0.4117 -0.4092  0.1904
12471TIP3    H258829   0.942   4.568   1.892  0.5655  0.2236 -1.0398
12472TIP3   OH258830   0.214   2.665  12.927  0.5495  0.8439  0.2153
12472TIP3    H158831   0.194   2.589  12.982  1.7484 -0.8076 -1.5884
12472TIP3    H258832   0.281   2.712  12.975  1.9533 -0.8555 -0.0331
12473TIP3   OH258833   1.094   6.289  14.831 -0.0933 -0.0992 -0.8380
12473TIP3    H158834   1.187   6.299  14.811  0.2325  1.4834  1.3280
12473TIP3    H258835   1.093   6.233  14.909 -0.8811  0.9056 -0.1243
12474TIP3   OH258836   0.060   2.412   2.491  0.0149  0.1235  0.1074
12474TIP3    H158837   0.068   2.381   2.401  0.9151  1.5988 -0.3293
12474TIP3    H258838  -0.024   2.457   2.494  0.2747  0.6197 -0.1520
12475TIP3   OH258839   2.257   0.570  13.490 -0.0710 -0.0232 -0.5862
12475TIP3    H158840   2.270   0.660  13.518 -0.2940 -0.2750  0.3255
12475TIP3    H258841   2.292   0.517  13.561 -2.3034 -0.6863  0.0652
12476TIP3   OH258842   1.892   4.646   5.279  0.5845  0.1668  0.3239
12476TIP3    H158843   1.848   4.693   5.208  1.0717  0.1040 -0.0184
12476TIP3    H258844   1.823   4.595   5.320  0.2922  0.2423 -0.0703
12477TIP3   OH258845   1.418   2.580   1.183 -0.6242  0.1165  0.3042
12477TIP3    H158846   1.466   2.638   1.123 -0.8497 -0.1342 -0.1250
12477TIP3    H258847   1.485   2.525   1.222 -0.4425  0.4678  0.4873
12478TIP3   OH258848   2.548   3.348  13.358  0.0808  0.1800  0.6435
12478TIP3    H158849   2.574   3.379  13.271 -1.2902  1.4007  0.6536
12478TIP3    H258850   2.517   3.259  13.343 -1.0594  0.7191 -0.2957
12479TIP3   OH258851   4.049   4.853   3.601  0.3030  0.1126  0.1544
12479TIP3    H158852   4.026   4.945   3.591  1.2232  0.1401 -1.9746
12479TIP3    H258853   4.131   4.853   3.650  0.0898  0.4063  0.5071
12480TIP3   OH258854   6.376   5.057  15.863  0.3918  0.1708  0.0457
12480TIP3    H158855   6.358   5.117  15.936  1.5156  1.9823 -1.1289
12480TIP3    H258856   6.336   4.974  15.889 -0.2236  1.1266  2.2014
12481TIP3   OH258857   0.574   2.746  13.551 -0.0240  0.4752  0.2470
12481TIP3    H158858   0.517   2.710  13.619  0.4172 -0.4654  0.1309
12481TIP3    H258859   0.630   2.809  13.597  0.7044 -0.6214  0.8787
12482TIP3   OH258860   4.649   6.302   2.131  0.5041 -0.0795  0.1365
12482TIP3    H158861   4.666   6.396   2.138  1.4979 -0.4067  2.4526
12482TIP3    H258862   4.643   6.286   2.036  2.6914  1.8928 -0.3801
12483TIP3   OH258863   3.694   4.060   5.064  0.8719  0.3212  0.5999
12483TIP3    H158864   3.687   3.968   5.040 -1.7409  0.4011  0.9134
12483TIP3    H258865   3.710   4.058   5.159 -2.4858  0.1874  1.2235
12484TIP3   OH258866   5.320   2.609   2.178  0.0075  0.0073  0.6279
12484TIP3    H158867   5.410   2.607   2.145  0.3720 -0.4867  1.6230
12484TIP3    H258868   5.330   2.604   2.273 -1.0259  1.2181  0.8063
12485TIP3   OH258869   5.242   3.906   2.510 -0.2554 -0.6883  0.1195
12485TIP3    H158870   5.154   3.902   2.471 -0.9790  0.2814  1.6201
12485TIP3    H258871   5.283   3.981   2.467 -1.1438  0.5398  1.3700
12486TIP3   OH258872   4.264   4.004   2.056  0.1292  0.0092 -0.5355
12486TIP3    H158873   4.177   4.040   2.073  0.0834 -0.7400  0.8461
12486TIP3    H258874   4.289   4.042   1.971 -0.6099  1.9826  0.0976
12487TIP3   OH258875   6.680   5.146   3.150  0.0355  0.1735 -0.0664
12487TIP3    H158876   6.715   5.082   3.211 -1.1461  1.0300  1.5507
12487TIP3    H258877   6.609   5.100   3.105  0.3916 -0.2149 -0.2300
12488TIP3   OH258878   2.577   2.510   5.668  0.1741  0.5739  0.4980
12488TIP3    H158879   2.583   2.526   5.763 -1.6624  0.7156  0.6114
12488TIP3    H258880   2.585   2.597   5.629  2.2897  0.3733  0.4242
12489TIP3   OH258881   5.436   1.414   1.486 -0.6118 -0.1316  0.0627
12489TIP3    H158882   5.422   1.484   1.424 -0.6375 -0.0537  0.1565
12489TIP3    H258883   5.349   1.393   1.519 -1.0690 -2.5435 -2.4926
12490TIP3   OH258884   1.123   5.455   2.477 -0.4235  0.0933 -0.2255
12490TIP3    H158885   1.175   5.395   2.530  2.7945  2.5152 -0.4332
12490TIP3    H258886   1.049   5.478   2.532  0.3589 -1.0727  1.3506
12491TIP3   OH258887   6.197   6.277   3.901  0.5375  0.5999 -0.1265
12491TIP3    H158888   6.252   6.333   3.955 -0.7438  2.3203 -0.5592
12491TIP3    H258889   6.109   6.316   3.907 -1.1995 -3.3405  2.3462
12492TIP3   OH258890   1.751   4.392  13.378  0.0604 -0.2447 -0.0703
12492TIP3    H158891   1.739   4.354  13.465 -0.8666  0.8393  0.3003
12492TIP3    H258892   1.806   4.469  13.393  0.6136 -0.5417 -0.5731
12493TIP3   OH258893   3.691   2.887   0.829  0.3797 -0.0011  0.5450
12493TIP3    H158894   3.724   2.927   0.749 -2.1964 -0.5470 -0.8611
12493TIP3    H258895   3.622   2.947   0.858  0.5125 -0.4052  1.7241
12494TIP3   OH258896   3.067   4.109   6.583  0.8340  0.2719 -0.3105
12494TIP3    H158897   3.142   4.139   6.634  0.6439 -0.1491  0.2179
12494TIP3    H258898   3.094   4.022   6.550  1.0379  0.6279 -1.1005
12495TIP3   OH258899   3.112   3.933   1.143  0.1905 -0.0410  0.3291
12495TIP3    H158900   3.156   4.009   1.183 -1.5335  0.6025  1.0373
12495TIP3    H258901   3.045   3.972   1.087  0.5252 -1.0234 -0.7634
12496TIP3   OH258902   2.826   0.617   1.598  0.1653 -0.1932 -0.6973
12496TIP3    H158903   2.784   0.572   1.525 -1.1538  0.6486 -0.4818
12496TIP3    H258904   2.916   0.584   1.599 -0.8155 -3.0342 -0.3725
12497TIP3   OH258905   4.710   1.590  13.442 -0.0514 -0.0086  0.1218
12497TIP3    H158906   4.640   1.614  13.502  0.7487 -0.1373  1.1282
12497TIP3    H258907   4.714   1.494  13.446  0.4413  0.0188  0.3781
12498TIP3   OH258908   3.721   4.403  11.655  0.7444 -0.1013 -0.1336
12498TIP3    H158909   3.788   4.401  11.724 -0.6215  0.1435  1.2294
12498TIP3    H258910   3.717   4.495  11.629  0.3922  0.0120  0.3236
12499TIP3   OH258911   4.672   0.275  10.900 -0.0056 -0.0716  0.2640
12499TIP3    H158912   4.746   0.217  10.882  0.7920  1.0332 -0.0461
12499TIP3    H258913   4.624   0.279  10.818 -1.0052 -1.5957  0.7401
12500TIP3   OH258914   2.309   5.030   1.104 -0.4579  0.3159  0.2082
12500TIP3    H158915   2.214   5.040   1.112 -0.5170 -0.5385  0.6571
12500TIP3    H258916   2.323   4.936   1.101  0.5222  0.3761  1.9649
12501TIP3   OH258917   5.099   1.136   5.501  0.6572 -0.3578  0.2619
12501TIP3    H158918   5.175   1.134   5.560 -0.9604  1.7786  2.5373
12501TIP3    H258919   5.035   1.078   5.541  0.2866 -0.4715 -0.4866
12502TIP3   OH258920   2.771   5.049   3.314  0.0469  0.4674 -0.2781
12502TIP3    H158921   2.852   5.040   3.263  0.0647 -1.1740  0.0094
12502TIP3    H258922   2.703   5.017   3.255 -0.0940 -0.2824  0.2873
12503TIP3   OH258923   1.507   2.802  15.677  0.0381  0.3153 -0.2466
12503TIP3    H158924   1.554   2.848  15.747 -1.5698 -1.1837  1.8892
12503TIP3    H258925   1.549   2.716  15.671  0.0255  0.3542 -0.9886
12504TIP3   OH258926   0.520   1.208  15.925  0.4971  0.2071 -0.5787
12504TIP3    H158927   0.591   1.212  15.989 -0.5018 -1.5214  0.7047
12504TIP3    H258928   0.479   1.123  15.942 -0.4867  0.2325 -2.7832
12505TIP3   OH258929   0.118   3.771  15.151  0.0376  0.2525  0.1652
12505TIP3    H158930   0.174   3.781  15.228 -1.0809 -0.5708  1.1067
12505TIP3    H258931   0.162   3.705  15.097 -1.8027 -3.1299  2.6262
12506TIP3   OH258932   6.063   4.065   4.335  0.2343 -0.2186 -0.4708
12506TIP3    H158933   6.023   4.123   4.270 -2.1861 -0.7634  0.5027
12506TIP3    H258934   6.054   3.977   4.299 -1.6929 -0.5865  0.8689
12507TIP3   OH258935   5.599   2.411   2.811 -0.2166 -0.1733  0.9096
12507TIP3    H158936   5.503   2.416   2.818 -0.4996 -1.3912 -1.4515
12507TIP3    H258937   5.619   2.319   2.829  0.0806 -0.8038 -2.2820
12508TIP3   OH258938   0.582   1.947   3.029  0.5640  0.1003  0.2782
12508TIP3    H158939   0.666   1.969   2.989  0.3511  0.8040  0.1990
12508TIP3    H258940   0.603   1.924   3.119  0.9949 -1.0667 -0.1222
12509TIP3   OH258941   0.262   5.979  16.024  0.4974  0.1196 -0.3666
12509TIP3    H158942   0.353   6.005  16.037  1.5024 -2.9425 -0.9198
12509TIP3    H258943   0.254   5.969  15.929 -0.7273  1.3791 -0.4082
12510TIP3   OH258944   6.197   1.804   4.187  0.6514 -0.2215  0.1134
12510TIP3    H158945   6.132   1.755   4.136  1.3835 -1.7562  0.6577
12510TIP3    H258946   6.164   1.802   4.277  0.6006  0.4528  0.1189
12511TIP3   OH258947   6.459   4.713  12.305  0.1223  0.2719  0.7507
12511TIP3    H158948   6.417   4.796  12.285  1.7638  0.7970 -0.6489
12511TIP3    H258949   6.417   4.650  12.247 -1.3977  0.0151  2.0855
12512TIP3   OH258950   3.374   0.838  13.840  0.3902 -0.1317 -0.6871
12512TIP3    H158951   3.443   0.838  13.774  2.3436  0.9967  1.2863
12512TIP3    H258952   3.410   0.788  13.913 -0.9422  0.3196  0.3185
12513TIP3   OH258953   4.259   4.937   0.839  0.7535  0.3307 -0.2551
12513TIP3    H158954   4.221   4.984   0.765 -1.1112 -0.4475  0.1866
12513TIP3    H258955   4.241   4.992   0.915 -1.9580 -1.3034  0.3529
12514TIP3   OH258956   3.409   4.984   5.523 -0.3547 -0.5565  0.8965
12514TIP3    H158957   3.441   5.074   5.517  0.5018 -0.9008  0.0761
12514TIP3    H258958   3.351   4.984   5.599 -0.0387  0.5876  1.1511
12515TIP3   OH258959   3.192   2.743   0.851 -0.0257 -0.2132 -0.1164
12515TIP3    H158960   3.141   2.705   0.922 -0.3848 -1.0177 -0.7967
12515TIP3    H258961   3.232   2.668   0.806  2.0694  0.4110  0.6265
12516TIP3   OH258962   6.423   2.732   1.457  0.0648  0.1247 -0.5127
12516TIP3    H158963   6.491   2.799   1.470 -0.7794  0.4473  2.7657
12516TIP3    H258964   6.342   2.782   1.450 -0.2366 -0.4153 -0.8481
12517TIP3   OH258965   4.351   0.980   4.382 -0.0048  1.1260 -0.0078
12517TIP3    H158966   4.402   0.946   4.309  0.2831 -1.0311  1.1403
12517TIP3    H258967   4.286   1.038   4.342 -0.0823 -0.3134 -2.0103
12518TIP3   OH258968   0.550   5.345   2.590  0.0976  0.1447 -0.2513
12518TIP3    H158969   0.463   5.349   2.628  1.8228 -1.2516  4.1312
12518TIP3    H258970   0.585   5.434   2.598 -0.4330  0.4128 -0.8769
12519TIP3   OH258971   0.975   1.550   1.678  0.7593 -0.3918 -0.1258
12519TIP3    H158972   0.996   1.581   1.590 -1.0240 -2.2613 -1.2683
12519TIP3    H258973   0.881   1.532   1.675  0.7418 -0.8145  2.0701
12520TIP3   OH258974   0.875   2.229   5.268 -0.4516  0.3711  0.4749
12520TIP3    H158975   0.834   2.169   5.330  0.4031 -0.6388  0.0838
12520TIP3    H258976   0.941   2.176   5.223 -1.1327  1.0520 -1.3907
12521TIP3   OH258977   4.446   3.912  17.212 -0.3507  0.3096  0.1047
12521TIP3    H158978   4.384   3.939  17.279  0.8184  0.4174  1.1673
12521TIP3    H258979   4.492   3.993  17.188 -1.1149  0.3697 -1.2084
12522TIP3   OH258980   2.352   0.518  14.462  0.6830 -0.3160  0.1396
12522TIP3    H158981   2.390   0.562  14.386 -0.2909  1.3085  0.5818
12522TIP3    H258982   2.289   0.456  14.426 -0.7473  1.3889 -0.3442
12523TIP3   OH258983   2.483   4.582  11.066 -0.0560  0.2385  0.2667
12523TIP3    H158984   2.449   4.633  10.993  0.1983  1.7010  1.1605
12523TIP3    H258985   2.556   4.532  11.028 -0.1638  0.7028 -0.5650
12524TIP3   OH258986   2.803   5.935  16.741 -0.0691 -0.4152  0.1499
12524TIP3    H158987   2.841   5.850  16.766  0.1583 -0.5710 -0.6873
12524TIP3    H258988   2.709   5.922  16.746 -0.0737 -1.2387 -1.5772
12525TIP3   OH258989   5.607   0.524   6.296  0.1895 -0.0080 -0.3854
12525TIP3    H158990   5.643   0.603   6.255  2.2945 -0.5783  0.2595
12525TIP3    H258991   5.671   0.502   6.364 -1.5040 -1.0137  0.9085
12526TIP3   OH258992   5.027   1.495   2.407 -0.6963 -0.0469 -0.6054
12526TIP3    H158993   5.035   1.547   2.327 -2.0738  0.6540 -0.3051
12526TIP3    H258994   4.952   1.437   2.391 -0.2840 -0.6808 -0.2469
12527TIP3   OH258995   1.592   4.231   5.182 -0.0533 -0.8403  0.3324
12527TIP3    H158996   1.572   4.217   5.274  3.4781 -0.0840  1.2880
12527TIP3    H258997   1.640   4.153   5.155  3.4737  1.1158  0.6352
12528TIP3   OH258998   1.853   6.544  15.781  0.4514  0.2301 -0.2257
12528TIP3    H158999   1.846   6.538  15.876 -1.3160 -0.9227 -0.3956
12528TIP3    H259000   1.772   6.503  15.749  0.5458  1.5404 -2.1989
12529TIP3   OH259001   1.814   2.916  12.166  0.6456 -0.0964 -0.5029
12529TIP3    H159002   1.834   3.002  12.129  1.7564  0.0611  0.4641
12529TIP3    H259003   1.890   2.862  12.145  0.7290 -0.3549  0.4381
12530TIP3   OH259004   5.098   4.401  12.429 -0.0224 -0.1524 -0.0908
12530TIP3    H159005   5.136   4.451  12.502  0.0431 -0.6314  0.2005
12530TIP3    H259006   5.114   4.456  12.352 -2.3134  1.5460  0.5959
12531TIP3   OH259007   2.082   3.876  16.083  0.3774 -0.2557  0.0838
12531TIP3    H159008   2.039   3.816  16.144  0.0797  0.1798  0.2985
12531TIP3    H259009   2.024   3.951  16.078  0.9040  0.1504  0.0468
12532TIP3   OH259010   0.070   5.198   1.547  0.0584 -0.0379  0.1826
12532TIP3    H159011   0.012   5.187   1.623 -1.7022  0.5821 -1.0346
12532TIP3    H259012   0.128   5.270   1.570 -0.4976  0.1718  0.9377
12533TIP3   OH259013   3.404   5.479   5.353 -0.7405  0.3562  0.2467
12533TIP3    H159014   3.416   5.549   5.418  0.9347  1.3274 -1.0620
12533TIP3    H259015   3.454   5.509   5.277 -0.4817 -2.0152 -0.5396
12534TIP3   OH259016   4.720   3.500  15.616 -0.1097 -0.5686  0.1809
12534TIP3    H159017   4.771   3.569  15.660 -3.5268  1.3171  1.4442
12534TIP3    H259018   4.726   3.521  15.523 -0.8570  1.3370  0.5284
12535TIP3   OH259019   3.220   3.167  14.091 -0.4205  0.3211  0.5158
12535TIP3    H159020   3.267   3.176  14.174 -0.6297  1.6608  0.4953
12535TIP3    H259021   3.276   3.110  14.039 -0.2648 -0.4934  1.5585
12536TIP3   OH259022   3.141   0.613   2.682  0.1723  0.6412  0.3329
12536TIP3    H159023   3.143   0.687   2.742 -0.9217  0.9412  0.0154
12536TIP3    H259024   3.058   0.569   2.701  1.1020 -0.8839  0.9667
12537TIP3   OH259025   2.112   1.862  13.867  0.4752 -0.1476  0.3385
12537TIP3    H159026   2.192   1.906  13.895  1.6957 -1.5940 -0.7845
12537TIP3    H259027   2.114   1.868  13.771 -1.2022  0.5483  0.3215
12538TIP3   OH259028   3.571   4.342  13.661  0.1007  0.1792  0.1401
12538TIP3    H159029   3.621   4.375  13.587  0.1600  0.3592  0.2562
12538TIP3    H259030   3.487   4.315  13.624 -0.2858  1.3070  0.1738
12539TIP3   OH259031   5.721   6.079   6.368 -0.7718 -0.0815  0.3052
12539TIP3    H159032   5.633   6.041   6.367 -0.9074  0.2411  0.0506
12539TIP3    H259033   5.779   6.004   6.354 -0.9607 -0.4213  1.2649
12540TIP3   OH259034   1.834   6.634   1.340 -0.7855  0.0135 -0.3227
12540TIP3    H159035   1.814   6.571   1.271  1.1340 -0.0878 -0.8164
12540TIP3    H259036   1.922   6.611   1.369 -1.2259  0.5961  1.5721
12541TIP3   OH259037   2.978   1.472   4.409  0.1354  0.6335 -0.0955
12541TIP3    H159038   2.893   1.444   4.374  0.9953 -0.1393 -1.6409
12541TIP3    H259039   3.003   1.401   4.468 -0.1703  0.7363  0.1613
12542TIP3   OH259040   4.300   2.467   0.980 -0.0002  0.0604  0.1522
12542TIP3    H159041   4.225   2.514   1.018 -0.9115 -0.6286 -0.7475
12542TIP3    H259042   4.291   2.377   1.012  0.7691  0.1021  0.4939
12543TIP3   OH259043   4.951   4.745   3.958  0.1973 -0.0558  0.8186
12543TIP3    H159044   4.938   4.837   3.981 -0.9704  0.0488 -0.2251
12543TIP3    H259045   4.895   4.697   4.018 -1.0368  0.0747 -0.2024
12544TIP3   OH259046   0.708   4.205  14.719  0.7924  0.3495  0.5655
12544TIP3    H159047   0.691   4.133  14.780  1.1622 -0.7664 -0.6318
12544TIP3    H259048   0.799   4.231  14.736  1.0457 -0.2757  0.1631
12545TIP3   OH259049   0.630   5.375   4.785  0.1231  0.2083 -0.2743
12545TIP3    H159050   0.560   5.412   4.838  0.0681  0.4876 -0.5404
12545TIP3    H259051   0.638   5.435   4.710  1.4239  0.8452  0.3358
12546TIP3   OH259052   5.960   2.903   1.777 -0.1917  0.2978 -0.0693
12546TIP3    H159053   5.899   2.953   1.722  1.0254  1.3191 -0.5123
12546TIP3    H259054   6.021   2.864   1.715  0.6534  0.7203  0.4867
12547TIP3   OH259055   6.299   5.036  15.607 -0.2145 -0.0454  0.7216
12547TIP3    H159056   6.334   5.037  15.696  1.1309  0.6670  0.1915
12547TIP3    H259057   6.374   5.055  15.551 -1.3928  1.3408 -0.4406
12548TIP3   OH259058   1.156   1.889   0.737  0.1896  0.1157 -0.0404
12548TIP3    H159059   1.186   1.954   0.801 -2.9657  0.1490  1.4696
12548TIP3    H259060   1.067   1.917   0.715  0.7526 -0.6525 -3.4984
12549TIP3   OH259061   6.313   3.061  13.346 -0.2837  0.3750 -0.1745
12549TIP3    H159062   6.403   3.061  13.313  0.1555 -0.3520  0.9634
12549TIP3    H259063   6.278   2.976  13.320 -0.6648  0.6909 -0.6863
12550TIP3   OH259064   1.231   0.302  16.898  0.2933  0.8318 -0.3549
12550TIP3    H159065   1.241   0.344  16.813 -0.7375 -0.0946 -0.9500
12550TIP3    H259066   1.317   0.263  16.916  0.5113  1.0363 -0.9713
12551TIP3   OH259067   0.739   5.779   3.903 -0.6216  0.1296 -0.2438
12551TIP3    H159068   0.805   5.710   3.906  0.1428  0.8739  0.5151
12551TIP3    H259069   0.718   5.796   3.995 -1.4354  0.3102 -0.4583
12552TIP3   OH259070   0.093   2.060  13.043  0.4686 -0.6072 -0.0385
12552TIP3    H159071   0.063   1.969  13.040 -0.0420 -0.4298 -0.3052
12552TIP3    H259072   0.174   2.060  12.991  0.7664 -1.0174  0.4118
12553TIP3   OH259073   0.273   2.989   3.394 -0.0612  0.0739  0.3635
12553TIP3    H159074   0.300   2.996   3.485  1.8836 -1.0419 -0.0788
12553TIP3    H259075   0.234   2.902   3.387  2.6624 -1.1612 -0.4921
12554TIP3   OH259076   4.117   3.412   3.021 -0.4795  0.5237  0.0831
12554TIP3    H159077   4.098   3.332   3.070  0.6358  0.9837  1.2904
12554TIP3    H259078   4.199   3.394   2.976  0.7281  1.6150  1.8047
12555TIP3   OH259079   0.967   1.250   0.867  0.2296 -0.1301  0.2146
12555TIP3    H159080   0.968   1.202   0.950  0.5119 -1.1516 -0.3697
12555TIP3    H259081   1.054   1.235   0.829 -0.2111 -0.4463 -0.6941
12556TIP3   OH259082   2.982   0.410  16.976 -0.0386  0.2349  0.9465
12556TIP3    H159083   2.944   0.348  17.038 -1.6454 -0.0016 -0.2180
12556TIP3    H259084   2.907   0.462  16.946  0.7120  0.4151 -0.6808
12557TIP3   OH259085   5.886   0.626   5.512 -0.4837 -0.4411 -0.3974
12557TIP3    H159086   5.876   0.676   5.431 -1.2743 -0.2495 -0.1822
12557TIP3    H259087   5.840   0.543   5.496 -2.5166  0.4539  0.5984
12558TIP3   OH259088   4.278   6.117   5.894  0.2232 -0.5674  0.2095
12558TIP3    H159089   4.247   6.053   5.831 -0.6617 -0.5254  0.6004
12558TIP3    H259090   4.337   6.067   5.951 -0.5789 -1.0672  0.6017
12559TIP3   OH259091   0.819   0.952   3.503 -0.0887  0.0838 -0.2319
12559TIP3    H159092   0.843   0.915   3.418 -0.4342  0.0037 -0.2960
12559TIP3    H259093   0.897   0.939   3.558  0.0383 -0.1041 -0.4559
12560TIP3   OH259094   0.151   1.268   0.221 -0.1634  0.1778 -0.4615
12560TIP3    H159095   0.237   1.276   0.180  0.5368 -0.1755  0.9097
12560TIP3    H259096   0.144   1.175   0.243  0.3712  0.7178  2.1153
12561TIP3   OH259097   3.301   6.034  16.088  0.6519  0.4169 -0.0465
12561TIP3    H159098   3.362   6.031  16.014 -1.1928 -1.4261 -1.5472
12561TIP3    H259099   3.222   6.076  16.052 -0.2834 -0.5411  0.8608
12562TIP3   OH259100   1.310   0.313  17.195  0.1847  0.1230  0.4526
12562TIP3    H159101   1.286   0.342  17.107  1.4929 -1.9164 -0.5988
12562TIP3    H259102   1.232   0.269  17.228  0.3646 -0.9212 -0.4959
12563TIP3   OH259103   4.264   5.726   6.290 -0.2252 -0.6002  0.0228
12563TIP3    H159104   4.290   5.818   6.293  0.9343 -0.9340  0.9150
12563TIP3    H259105   4.178   5.725   6.331  0.5875 -0.1531  1.8321
12564TIP3   OH259106   2.639   1.080  14.047  0.4736 -0.0197 -0.3303
12564TIP3    H159107   2.712   1.022  14.069  0.4556 -0.1948 -0.7437
12564TIP3    H259108   2.574   1.023  14.007  0.8064  0.4346 -1.5216
12565TIP3   OH259109   5.381   5.264   4.376  0.3975  0.8110  0.3104
12565TIP3    H159110   5.391   5.324   4.450  1.2214  1.2316 -0.1268
12565TIP3    H259111   5.392   5.177   4.415 -0.7061  0.9351  0.9311
12566TIP3   OH259112   5.752   6.666  15.889 -0.3978  0.7623 -0.1570
12566TIP3    H159113   5.720   6.719  15.817 -0.1545  0.0596 -0.7864
12566TIP3    H259114   5.672   6.631  15.930 -0.4897 -1.1101 -1.8168
12567TIP3   OH259115   4.765   5.555  16.438 -0.2405 -0.2573  0.3544
12567TIP3    H159116   4.690   5.498  16.457 -0.4603  0.0982  0.5538
12567TIP3    H259117   4.837   5.495  16.419 -0.7418 -0.6029 -0.4763
12568TIP3   OH259118   2.416   2.983  17.157  1.4360  0.9818 -0.7397
12568TIP3    H159119   2.501   2.957  17.121  1.1501 -1.7711  0.4360
12568TIP3    H259120   2.372   2.900  17.175 -0.5217  2.3625  0.9781
12569TIP3   OH259121   1.223   1.393   5.833  0.8481  0.5291  0.3713
12569TIP3    H159122   1.215   1.315   5.888  1.8329 -0.9929 -1.5595
12569TIP3    H259123   1.317   1.409   5.827  0.8445 -0.0752 -1.8104
12570TIP3   OH259124   4.837   2.758   2.682  0.2249  0.0308 -0.2889
12570TIP3    H159125   4.888   2.805   2.616 -0.0698 -0.6224 -0.9829
12570TIP3    H259126   4.835   2.818   2.757  0.3933  0.8660 -0.9384
12571TIP3   OH259127   6.754   0.760  13.890 -0.5032  0.3187 -0.0927
12571TIP3    H159128   6.750   0.821  13.816 -0.8401  1.2341  0.6682
12571TIP3    H259129   6.822   0.697  13.866 -0.6595  0.5672 -1.2096
12572TIP3   OH259130   1.968   0.463   0.768 -0.3665 -0.4357 -0.3594
12572TIP3    H159131   2.045   0.408   0.753  0.4743  0.8300 -0.8227
12572TIP3    H259132   1.973   0.529   0.699 -1.3744  0.1896  0.1613
12573TIP3   OH259133   0.582   5.166   4.009  0.6083  0.5104  0.5302
12573TIP3    H159134   0.621   5.098   4.064  0.3957  0.2745  0.3948
12573TIP3    H259135   0.489   5.143   4.005  0.7191  0.1700 -0.4119
12574TIP3   OH259136   0.052   4.252  13.745 -0.1895 -0.3011 -0.2569
12574TIP3    H159137  -0.017   4.186  13.738  0.3422 -0.9368  0.5114
12574TIP3    H259138   0.117   4.226  13.680  1.0500 -1.7855  1.5289
12575TIP3   OH259139   1.648   4.241  16.811 -0.7236 -0.4421 -0.2461
12575TIP3    H159140   1.724   4.190  16.840  0.5800  0.8969 -1.2018
12575TIP3    H259141   1.576   4.210  16.866  0.2527 -2.5743 -0.1186
12576TIP3   OH259142   6.594   4.330  15.555 -0.4920 -0.3487  0.1138
12576TIP3    H159143   6.672   4.378  15.582 -0.1183  0.4422 -2.1983
12576TIP3    H259144   6.521   4.388  15.577 -0.0347  1.4227 -2.7448
12577TIP3   OH259145   2.740   2.691   1.056  0.2656 -0.4523  0.3036
12577TIP3    H159146   2.655   2.703   1.097  0.7896 -0.8316  1.4987
12577TIP3    H259147   2.723   2.634   0.980 -0.6155 -0.1087  0.2474
12578TIP3   OH259148   6.168   5.652   3.304 -0.2477 -0.2351  0.0386
12578TIP3    H159149   6.221   5.590   3.254 -0.6355 -0.7644  0.2798
12578TIP3    H259150   6.182   5.736   3.260  1.7278 -0.1403  0.8255
12579TIP3   OH259151   2.358   1.015  17.132  0.0822  0.5851 -0.3967
12579TIP3    H159152   2.432   1.065  17.098  1.4053 -1.3710 -0.4884
12579TIP3    H259153   2.318   0.976  17.054  1.0203 -1.0840 -0.0700
12580TIP3   OH259154   4.213   1.447  15.458 -0.4854  0.2898 -0.1215
12580TIP3    H159155   4.153   1.374  15.469  1.0489 -0.7270  1.8079
12580TIP3    H259156   4.281   1.414  15.399 -0.3249  0.4725 -0.0419
12581TIP3   OH259157   0.067   5.837  15.555  0.5569 -0.5018  0.4157
12581TIP3    H159158   0.021   5.768  15.508  2.0943 -2.3839  1.6219
12581TIP3    H259159  -0.001   5.903  15.573 -0.4473 -0.5968 -2.7159
12582TIP3   OH259160   0.867   3.038  16.809 -0.2186 -0.5291  0.2835
12582TIP3    H159161   0.888   3.103  16.742 -2.6165 -0.2301 -0.2034
12582TIP3    H259162   0.948   2.987  16.818  1.0774  1.2937 -0.6903
12583TIP3   OH259163   2.421   0.927   4.502 -0.1576 -0.0422  0.4715
12583TIP3    H159164   2.383   0.998   4.554  1.8407  0.4511  1.2900
12583TIP3    H259165   2.389   0.847   4.544  0.5939  0.3638  1.8487
12584TIP3   OH259166   2.377   5.644  14.666 -0.0569  0.5659 -0.4733
12584TIP3    H159167   2.392   5.685  14.581 -1.8968  0.5845 -0.8162
12584TIP3    H259168   2.420   5.559  14.660 -0.6281  0.3434 -1.6304
12585TIP3   OH259169   3.066   5.279   4.625 -0.0611  0.2968 -0.4051
12585TIP3    H159170   3.039   5.192   4.653  1.8158  0.0303  0.6467
12585TIP3    H259171   3.123   5.263   4.549 -1.2371  0.7264 -1.3837
12586TIP3   OH259172   4.568   6.250  15.840  0.5154  0.4263  0.4946
12586TIP3    H159173   4.499   6.315  15.854  1.2043  0.8339  2.1174
12586TIP3    H259174   4.563   6.229  15.747 -0.5023  1.9244  0.2009
12587TIP3   OH259175   6.588   6.701  11.485 -0.0308  0.1746 -0.1453
12587TIP3    H159176   6.558   6.669  11.570 -2.3006  0.4287 -0.7900
12587TIP3    H259177   6.623   6.624  11.441  2.5220  0.3147  1.5302
12588TIP3   OH259178   3.747   3.915   1.578 -0.3767 -0.2982 -0.0510
12588TIP3    H159179   3.834   3.903   1.616  0.4403 -1.3429 -2.2127
12588TIP3    H259180   3.743   4.008   1.555 -0.8721  0.3573  2.4619
12589TIP3   OH259181   2.940   1.154  16.181  0.3218 -0.1840  0.1439
12589TIP3    H159182   2.883   1.231  16.181  0.8341  0.2370 -2.1548
12589TIP3    H259183   3.012   1.177  16.123  1.8158 -1.4714  1.4203
12590TIP3   OH259184   3.376   0.673  11.480  0.0804 -0.1128 -0.0726
12590TIP3    H159185   3.327   0.755  11.484 -0.3710 -0.2904 -1.6414
12590TIP3    H259186   3.449   0.691  11.420 -0.7322 -1.1945 -1.4299
12591TIP3   OH259187   6.435   2.857   4.794  0.0894  0.6237 -0.0045
12591TIP3    H159188   6.487   2.795   4.845 -0.2859  0.5824  0.3293
12591TIP3    H259189   6.463   2.843   4.703 -0.8093 -0.8557 -0.0773
12592TIP3   OH259190   4.309   2.434  11.289  0.0159 -0.0139  0.1091
12592TIP3    H159191   4.241   2.424  11.355 -0.4663 -0.3889 -0.4377
12592TIP3    H259192   4.333   2.344  11.265  1.1324  0.1152  0.7352
12593TIP3   OH259193   0.213   1.280   0.511  0.6678  0.3168  0.1364
12593TIP3    H159194   0.174   1.291   0.424  2.5913  1.0697 -0.6492
12593TIP3    H259195   0.144   1.307   0.571 -0.8080 -0.5305 -1.1317
12594TIP3   OH259196   1.354   2.154  12.563  0.2293 -0.2630 -0.0560
12594TIP3    H159197   1.422   2.184  12.623 -0.0586 -2.2447  1.2858
12594TIP3    H259198   1.313   2.080  12.607 -2.4724  0.5530 -1.0697
12595TIP3   OH259199   4.706   2.502  12.002  0.4005 -0.4472  0.3173
12595TIP3    H159200   4.799   2.486  11.988  0.5912 -0.0209  1.1017
12595TIP3    H259201   4.672   2.418  12.034  0.9727  0.0406  2.2720
12596TIP3   OH259202   1.109   1.914  16.786  0.1650 -0.2734 -0.3253
12596TIP3    H159203   1.045   1.848  16.761 -0.7594 -0.3868  2.2202
12596TIP3    H259204   1.191   1.865  16.795  0.3404 -0.3657 -2.2429
12597TIP3   OH259205   2.175   5.603  14.422 -0.2039  0.1482 -0.1812
12597TIP3    H159206   2.127   5.609  14.505 -0.5686 -0.2430 -0.3569
12597TIP3    H259207   2.252   5.658  14.434 -1.3849  1.8541 -0.3739
12598TIP3   OH259208   5.179   1.564   6.058  0.3428 -0.2390  0.0411
12598TIP3    H159209   5.249   1.531   6.114 -0.4820  0.3416  1.4473
12598TIP3    H259210   5.100   1.558   6.112 -0.8728 -1.7446 -1.8285
12599TIP3   OH259211   4.603   0.776  11.585 -0.6138  0.1871 -0.4173
12599TIP3    H159212   4.654   0.808  11.659 -1.8209 -0.1337  0.5584
12599TIP3    H259213   4.668   0.761  11.516  0.3981  1.4068  0.2481
12600TIP3   OH259214   1.201   1.267   2.662  0.2925  0.0614 -0.3032
12600TIP3    H159215   1.218   1.290   2.571  1.4647 -0.6642 -0.2718
12600TIP3    H259216   1.246   1.184   2.675  0.5101  0.3862  1.0726
12601TIP3   OH259217   2.339   3.447  11.015  0.5227  0.1081  0.2206
12601TIP3    H159218   2.253   3.426  11.051  1.1509 -3.8318 -0.2948
12601TIP3    H259219   2.322   3.472  10.925 -0.2178  0.8534  0.5605
12602TIP3   OH259220   3.296   4.834   1.948  0.3393 -0.4269  0.7749
12602TIP3    H159221   3.380   4.855   1.908 -0.4627 -0.6072 -1.0473
12602TIP3    H259222   3.315   4.760   2.005  1.5289 -0.0745  0.8541
12603TIP3   OH259223   6.096   2.555   1.750  0.2254 -0.8457 -0.0695
12603TIP3    H159224   6.161   2.515   1.692 -0.6718 -2.5518  0.0638
12603TIP3    H259225   6.021   2.496   1.747 -1.2223  0.9288  0.0263
12604TIP3   OH259226   1.974   1.651  13.147  0.2555  0.2597 -0.3451
12604TIP3    H159227   2.026   1.588  13.098  3.1666  1.8388  0.6022
12604TIP3    H259228   2.001   1.640  13.238 -1.5252  0.7298  0.2802
12605TIP3   OH259229   6.757   1.869   2.085  0.2400 -0.1770 -0.0602
12605TIP3    H159230   6.700   1.944   2.069  1.0162  0.1478 -1.4039
12605TIP3    H259231   6.724   1.831   2.166 -2.9189 -0.9798 -1.6550
12606TIP3   OH259232   1.618   6.149  12.830  0.1244 -0.2789  0.2797
12606TIP3    H159233   1.536   6.100  12.838 -1.2785  1.6025 -2.1045
12606TIP3    H259234   1.612   6.216  12.898 -0.3838 -0.0326 -0.0076
12607TIP3   OH259235   3.775   4.509   2.172  0.3843  0.1469  0.1149
12607TIP3    H159236   3.856   4.554   2.148  0.9518 -0.6684  0.4922
12607TIP3    H259237   3.802   4.421   2.197 -0.3622  0.4825  2.2338
12608TIP3   OH259238   3.754   3.614  11.579 -0.5303  0.2290  0.5056
12608TIP3    H159239   3.715   3.531  11.551 -0.0586  0.0027  0.5063
12608TIP3    H259240   3.844   3.609  11.549 -0.5222  0.7822  0.4357
12609TIP3   OH259241   1.928   3.892   3.954 -0.1365 -0.4968  0.4833
12609TIP3    H159242   1.979   3.848   4.022  0.7046  0.5527  0.5476
12609TIP3    H259243   1.865   3.945   4.003  0.8103  0.6626  0.4760
12610TIP3   OH259244   3.577   1.378   4.247 -0.0195  0.0912  0.0935
12610TIP3    H159245   3.482   1.389   4.255  0.0140  1.0772 -0.6520
12610TIP3    H259246   3.593   1.387   4.153  0.5641 -2.2840 -0.0458
12611TIP3   OH259247   4.693   3.213  11.098 -0.3965 -0.1397  0.2538
12611TIP3    H159248   4.710   3.226  11.004 -1.1526 -0.6792  0.0368
12611TIP3    H259249   4.739   3.131  11.119  0.0827  0.1776  0.4405
12612TIP3   OH259250   3.999   0.171  14.453 -0.6037  0.4451 -0.1617
12612TIP3    H159251   3.995   0.236  14.523  1.3320 -0.2720  0.6489
12612TIP3    H259252   3.958   0.093  14.491 -1.4708  0.6936 -0.5758
12613TIP3   OH259253   0.224   3.353   5.571 -0.3097  0.2388 -0.0123
12613TIP3    H159254   0.200   3.391   5.486 -1.4433  0.0902  0.2350
12613TIP3    H259255   0.241   3.261   5.552 -1.5346 -0.0183  0.0765
12614TIP3   OH259256   6.264   3.783   3.251 -0.2836  0.1628 -0.9305
12614TIP3    H159257   6.199   3.714   3.235  0.3726 -0.5145 -0.6796
12614TIP3    H259258   6.318   3.749   3.322  1.8395 -0.3460 -2.7286
12615TIP3   OH259259   3.077   6.290  11.630  0.1402  0.7730 -0.2894
12615TIP3    H159260   3.067   6.299  11.724  2.1771  0.4274 -0.0240
12615TIP3    H259261   2.989   6.305  11.595 -0.4857  1.6184  1.5955
12616TIP3   OH259262   0.832   3.043   2.001 -0.3304 -0.1271  0.1054
12616TIP3    H159263   0.813   2.949   1.992  0.4081 -0.4680  1.8976
12616TIP3    H259264   0.926   3.048   2.014 -0.3856  0.8450  0.1918
12617TIP3   OH259265   2.368   5.010   4.402 -1.1900  0.2801 -0.2902
12617TIP3    H159266   2.440   5.074   4.408 -2.1230  1.3912 -0.7399
12617TIP3    H259267   2.321   5.035   4.323 -3.2807  0.8497  1.0995
12618TIP3   OH259268   1.414   1.436   6.263  0.0632 -0.6219 -0.6724
12618TIP3    H159269   1.460   1.503   6.313 -0.2970 -0.5836 -0.3913
12618TIP3    H259270   1.480   1.368   6.248  0.0655 -0.8151  0.2060
12619TIP3   OH259271   0.916   1.020  16.315  0.0839  0.0525 -0.5919
12619TIP3    H159272   0.859   0.963  16.367  0.4950  1.8436  1.8432
12619TIP3    H259273   0.973   0.959  16.268 -0.9393 -1.6148  0.2688
12620TIP3   OH259274   0.239   2.545  16.578  0.0180  0.5425  0.0572
12620TIP3    H159275   0.243   2.579  16.667  1.4850  0.0060  0.2064
12620TIP3    H259276   0.162   2.487  16.578  0.1240  0.3950  1.0246
12621TIP3   OH259277   2.505   2.343  16.413 -0.3563  0.1114  0.4335
12621TIP3    H159278   2.569   2.278  16.383  0.4493  0.9719  0.2715
12621TIP3    H259279   2.420   2.308  16.385 -0.1179 -1.7929  1.9566
12622TIP3   OH259280   2.503   3.332  12.083 -0.3500  0.0540 -0.1137
12622TIP3    H159281   2.550   3.377  12.153  0.1594  0.6569 -0.8201
12622TIP3    H259282   2.411   3.342  12.105 -0.2658  1.9396 -0.5312
12623TIP3   OH259283   6.382   3.593   5.672  0.0749  0.7848  0.1866
12623TIP3    H159284   6.306   3.651   5.681 -0.1427  0.3631  1.1860
12623TIP3    H259285   6.351   3.520   5.619  0.7149  2.1936 -2.1897
12624TIP3   OH259286   0.515   1.955  12.516 -0.2629 -0.3046  0.5885
12624TIP3    H159287   0.549   1.878  12.469 -0.1795 -1.3295  2.2945
12624TIP3    H259288   0.593   1.998  12.551 -0.4381 -0.4623  1.1740
12625TIP3   OH259289   2.799   0.863   0.479 -0.1692 -0.2598  0.2731
12625TIP3    H159290   2.872   0.801   0.485  0.7906  0.9949  2.0829
12625TIP3    H259291   2.764   0.850   0.391  0.4705 -2.8447  0.3569
12626TIP3   OH259292   5.608   0.805  10.549  0.2349  0.8225  0.1566
12626TIP3    H159293   5.557   0.871  10.502 -0.5052 -0.8681 -1.4626
12626TIP3    H259294   5.544   0.739  10.576  1.5294 -1.4255 -2.0697
12627TIP3   OH259295   2.030   2.603  16.967 -0.1548  0.3423 -0.0623
12627TIP3    H159296   2.045   2.693  16.995  1.3586 -0.3934  1.6288
12627TIP3    H259297   2.118   2.565  16.963 -0.9134 -1.6271  1.2408
12628TIP3   OH259298   1.842   1.126  17.079 -0.3790  0.0961  0.5255
12628TIP3    H159299   1.916   1.082  17.037  1.9144  2.7807  1.6048
12628TIP3    H259300   1.852   1.105  17.172  0.4106  2.3223  0.9735
12629TIP3   OH259301   3.217   3.122  15.745  0.0456 -0.0341 -0.1464
12629TIP3    H159302   3.201   3.203  15.696  0.7795  1.1673  1.5694
12629TIP3    H259303   3.139   3.070  15.730 -0.4405  0.9830 -1.2785
12630TIP3   OH259304   3.240   1.741  14.333 -0.1308  0.8817 -0.4845
12630TIP3    H159305   3.282   1.814  14.378  2.2369 -0.6559 -0.1012
12630TIP3    H259306   3.267   1.664  14.383 -1.7997 -0.3737 -1.4504
12631TIP3   OH259307   0.669   0.289   1.414  0.2019  0.1738  0.1919
12631TIP3    H159308   0.579   0.322   1.416  0.3016  0.4504  0.0280
12631TIP3    H259309   0.717   0.345   1.474  0.3624  0.3034 -0.0574
12632TIP3   OH259310   6.066   5.387   1.888  0.1385 -0.2881 -0.0821
12632TIP3    H159311   6.065   5.482   1.878  2.1957 -0.4080 -1.8270
12632TIP3    H259312   6.030   5.354   1.805  0.2328 -1.0492  0.1752
12633TIP3   OH259313   5.271   0.986  17.080  0.1606  0.0581  0.1583
12633TIP3    H159314   5.355   0.995  17.035 -0.4540 -1.3042 -1.3381
12633TIP3    H259315   5.235   1.075  17.081  0.8764  0.3691 -0.6989
12634TIP3   OH259316   4.394   5.535  11.634  0.3438  0.8399 -0.2496
12634TIP3    H159317   4.416   5.513  11.543  0.2171  1.2145 -0.3745
12634TIP3    H259318   4.454   5.607  11.656  0.5569  0.5683  0.0517
12635TIP3   OH259319   3.257   0.641   1.759  0.3673 -0.2641 -0.3744
12635TIP3    H159320   3.290   0.591   1.684  0.9666 -0.4791  0.0260
12635TIP3    H259321   3.213   0.717   1.720  0.2600 -0.6242 -0.9563
12636TIP3   OH259322   5.589   3.366  11.039 -0.0438  0.3132 -0.7359
12636TIP3    H159323   5.678   3.382  11.069  0.2040  0.8119 -1.7323
12636TIP3    H259324   5.533   3.400  11.109  0.5494 -0.5861  0.1787
12637TIP3   OH259325   4.218   1.591  11.783 -0.4837 -0.3428 -0.0033
12637TIP3    H159326   4.201   1.676  11.742 -1.2426 -0.6274 -0.2987
12637TIP3    H259327   4.290   1.554  11.733 -0.4524 -0.0640 -0.1644
12638TIP3   OH259328   6.555   2.750  15.408  0.5094 -0.2447  0.1398
12638TIP3    H159329   6.623   2.690  15.437 -0.1064 -1.2116 -0.3814
12638TIP3    H259330   6.517   2.784  15.489  2.9118  1.8595  0.4457
12639TIP3   OH259331   2.623   4.015   4.884 -0.2081  0.4565 -0.1204
12639TIP3    H159332   2.648   4.101   4.851  0.9059  0.3919  0.5296
12639TIP3    H259333   2.556   4.033   4.950 -1.8432  0.6388 -1.8230
12640TIP3   OH259334   4.955   0.959   3.317  0.1416  0.4625 -0.0704
12640TIP3    H159335   5.018   0.939   3.248  0.0061  2.1355 -0.7002
12640TIP3    H259336   4.875   0.982   3.270  0.2342  2.2204  0.6170
12641TIP3   OH259337   6.588   5.751  13.599  0.2661 -0.1459  0.3441
12641TIP3    H159338   6.540   5.748  13.681 -1.2192 -0.1776 -0.5187
12641TIP3    H259339   6.521   5.751  13.531  1.3706  2.3951 -0.8266
12642TIP3   OH259340   2.562   4.265   5.675 -0.8791  0.2626  0.1207
12642TIP3    H159341   2.572   4.359   5.660 -1.2672  0.5832  1.7786
12642TIP3    H259342   2.648   4.228   5.656 -0.6894  0.9635 -0.4045
12643TIP3   OH259343   1.813   4.559  16.828  0.5173  0.0018 -0.0776
12643TIP3    H159344   1.866   4.489  16.867 -0.0874 -0.1359  0.4887
12643TIP3    H259345   1.731   4.558  16.876  1.4909  2.8785  1.7991
12644TIP3   OH259346   2.843   6.583  14.010  0.0701 -0.3774  0.1125
12644TIP3    H159347   2.918   6.546  13.962 -0.2651 -0.1793 -0.5754
12644TIP3    H259348   2.831   6.669  13.970  0.4469  0.2278  1.2728
12645TIP3   OH259349   2.850   1.636   4.724  0.4283 -0.2263 -0.8285
12645TIP3    H159350   2.809   1.716   4.757  0.2083 -0.9123  0.5880
12645TIP3    H259351   2.904   1.665   4.650  2.4796  1.6534  1.3283
12646TIP3   OH259352   2.585   3.519  16.512 -0.4312  0.2762 -0.0734
12646TIP3    H159353   2.663   3.567  16.486 -1.0943  3.0340  2.7524
12646TIP3    H259354   2.530   3.518  16.433  0.9618  1.4016 -1.0780
12647TIP3   OH259355   3.861   5.537   5.416  0.6649  0.0891 -0.6168
12647TIP3    H159356   3.839   5.540   5.510 -1.2214 -2.3349 -0.9413
12647TIP3    H259357   3.933   5.600   5.407  1.1011  0.1535  2.5156
12648TIP3   OH259358   0.957   1.219  12.807 -0.2924 -0.4909  0.3428
12648TIP3    H159359   1.020   1.278  12.766 -0.1505  0.3991  1.8077
12648TIP3    H259360   1.006   1.138  12.822 -0.1049 -0.5249 -0.4575
12649TIP3   OH259361   6.389   3.156  11.825 -0.6626  0.3409 -0.6277
12649TIP3    H159362   6.347   3.094  11.765 -1.1226 -1.7196  1.7390
12649TIP3    H259363   6.318   3.211  11.857 -0.6194  0.6086 -0.9867
12650TIP3   OH259364   5.167   0.797  10.563  0.5465 -0.1664 -0.1248
12650TIP3    H159365   5.172   0.887  10.530  0.1054  0.0166  0.3017
12650TIP3    H259366   5.207   0.744  10.494  0.6693  0.3400 -0.4459
12651TIP3   OH259367   2.049   0.597  14.971  0.2076 -0.8139  0.4106
12651TIP3    H159368   1.958   0.623  14.987  0.3033 -0.3957  0.2903
12651TIP3    H259369   2.042   0.521  14.913 -0.1446 -2.5512  2.6900
12652TIP3   OH259370   3.657   2.300  11.211 -0.5020  0.3843 -0.3735
12652TIP3    H159371   3.700   2.376  11.170  1.6032 -0.1279  0.7792
12652TIP3    H259372   3.657   2.233  11.142  1.6057  0.0382 -0.0931
12653TIP3   OH259373   6.415   5.252   4.752  0.7789 -0.7675 -0.3862
12653TIP3    H159374   6.405   5.313   4.825  0.6656  0.7087 -1.6304
12653TIP3    H259375   6.365   5.175   4.779 -0.0072  0.1163  0.7107
12654TIP3   OH259376   4.984   2.662  12.781 -0.0704  0.3576 -0.4758
12654TIP3    H159377   5.034   2.583  12.767  0.2541  0.7842 -1.7375
12654TIP3    H259378   4.893   2.633  12.786  0.3188 -0.4912  2.4310
12655TIP3   OH259379   1.784   0.616  16.618 -0.3447  0.4557 -0.5404
12655TIP3    H159380   1.725   0.690  16.632  1.4865  1.4211  2.3674
12655TIP3    H259381   1.764   0.556  16.690  1.8304  0.5628  0.1786
12656TIP3   OH259382   6.356   6.712   5.425 -0.3138 -0.1216 -0.0711
12656TIP3    H159383   6.286   6.772   5.401  1.6329  2.0120 -0.5460
12656TIP3    H259384   6.361   6.649   5.353 -0.2272  1.1000 -1.1313
12657TIP3   OH259385   2.220   0.108   1.795  0.1808  0.0105  0.4730
12657TIP3    H159386   2.207   0.044   1.725 -0.5012 -0.0388  0.6474
12657TIP3    H259387   2.194   0.062   1.875  0.0491  0.3826  0.6443
12658TIP3   OH259388   6.269   6.006   0.003  0.0859 -0.0803 -0.3609
12658TIP3    H159389   6.193   6.007  -0.055 -0.0281 -0.2094 -0.2132
12658TIP3    H259390   6.288   6.099   0.018 -0.6789 -0.0353  0.4239
12659TIP3   OH259391   1.746   6.330   5.882  0.9407 -0.0646 -0.1049
12659TIP3    H159392   1.765   6.270   5.955  0.2790 -0.7518 -0.4963
12659TIP3    H259393   1.709   6.274   5.814  1.8319  0.5206 -1.0960
12660TIP3   OH259394   0.430   6.091   2.818 -0.3210  0.2917 -0.2368
12660TIP3    H159395   0.357   6.090   2.756  0.3352  0.9224 -1.0431
12660TIP3    H259396   0.393   6.058   2.900 -1.4615  0.4343 -0.6835
12661TIP3   OH259397   6.152   6.177   3.362  0.4777  0.0111 -0.1005
12661TIP3    H159398   6.169   6.125   3.284  1.1847 -1.1029  0.7728
12661TIP3    H259399   6.219   6.246   3.361 -0.2614  0.7291 -1.0925
12662TIP3   OH259400   3.080   1.334  15.336 -0.2479 -0.0153  0.6809
12662TIP3    H159401   3.105   1.306  15.247  0.2233 -1.6450  1.3045
12662TIP3    H259402   3.159   1.373  15.372  0.3981 -1.8755  1.3527
12663TIP3   OH259403   3.309   4.295  16.342 -0.0326  0.4567 -0.0216
12663TIP3    H159404   3.294   4.200  16.333 -1.5770  0.7688 -0.9668
12663TIP3    H259405   3.383   4.302  16.402 -0.6449 -1.3349  0.9813
12664TIP3   OH259406   6.112   0.951  12.070  0.2266 -0.2563 -0.0249
12664TIP3    H159407   6.153   0.876  12.028 -1.4701 -1.1339 -0.1462
12664TIP3    H259408   6.090   1.010  11.998 -1.2396 -1.0400 -0.2158
12665TIP3   OH259409   1.290   2.853   2.870 -0.0879  0.0345  0.5281
12665TIP3    H159410   1.312   2.761   2.884 -1.4608 -0.2202  1.1107
12665TIP3    H259411   1.225   2.873   2.938  1.7392  2.0270  1.7666
12666TIP3   OH259412   1.386   1.030   2.729  0.0084  0.3299  0.2930
12666TIP3    H159413   1.363   0.985   2.648  0.7788 -0.3376  0.4297
12666TIP3    H259414   1.477   1.003   2.746 -0.3677 -0.1114  1.7362
12667TIP3   OH259415   1.600   2.117   5.091 -0.0936  0.6731  0.3313
12667TIP3    H159416   1.686   2.155   5.111  1.2926 -2.9433  1.5619
12667TIP3    H259417   1.609   2.084   5.002 -0.4792  0.9296  0.1938
12668TIP3   OH259418   4.657   5.616   6.357 -0.2608  0.0570 -0.2402
12668TIP3    H159419   4.710   5.688   6.322 -0.6525 -0.4185 -1.8669
12668TIP3    H259420   4.711   5.577   6.426 -0.2326  2.1855  0.9775
12669TIP3   OH259421   2.241   6.573  16.597 -0.3701 -0.3802  0.1883
12669TIP3    H159422   2.191   6.654  16.606 -0.9471 -0.5347 -1.5637
12669TIP3    H259423   2.187   6.507  16.640 -1.2227 -0.3547 -0.8291
12670TIP3   OH259424   2.454   5.066  16.334  0.1874 -0.6645 -0.4186
12670TIP3    H159425   2.426   5.141  16.281 -0.3262 -0.1785  0.5401
12670TIP3    H259426   2.375   5.040  16.381 -0.0160 -2.7113 -1.8156
12671TIP3   OH259427   5.541   2.668   5.820 -0.3733  0.4291 -0.2173
12671TIP3    H159428   5.595   2.632   5.750  0.4964  0.5145  0.4102
12671TIP3    H259429   5.517   2.592   5.874 -0.2277  0.5023 -0.0487
12672TIP3   OH259430   4.078   3.255   4.696  0.8838  0.0984  0.2657
12672TIP3    H159431   4.066   3.315   4.622 -2.0483 -0.0866  0.5245
12672TIP3    H259432   4.008   3.278   4.756  0.2051 -3.0216  0.7546
12673TIP3   OH259433   1.096   5.006  14.261 -0.2359 -0.1172 -0.4881
12673TIP3    H159434   1.044   4.926  14.262  1.4662 -1.2457  0.4698
12673TIP3    H259435   1.185   4.977  14.282  0.2803  2.1063  0.5574
12674TIP3   OH259436   1.046   0.565   5.805 -0.1360 -0.0670 -0.0163
12674TIP3    H159437   1.051   0.659   5.822  0.5358 -0.0835 -0.1188
12674TIP3    H259438   1.124   0.545   5.754 -0.7801 -0.5061 -0.8523
12675TIP3   OH259439   5.450   2.383   4.327 -0.8202  0.2337 -0.4274
12675TIP3    H159440   5.474   2.376   4.234  0.2011  1.8673 -0.3101
12675TIP3    H259441   5.365   2.426   4.326 -1.1855 -0.4861 -0.6341
12676TIP3   OH259442   4.923   2.092  14.221  0.1434  0.3461 -0.2260
12676TIP3    H159443   4.966   2.006  14.224 -1.1466 -0.3841 -1.5680
12676TIP3    H259444   4.860   2.084  14.149 -1.2795  1.8191  0.8236
12677TIP3   OH259445   6.130   0.704  11.562 -0.1759 -0.0014 -0.0694
12677TIP3    H159446   6.040   0.678  11.580  0.0421 -0.0409  1.0426
12677TIP3    H259447   6.126   0.799  11.553 -0.5551 -0.1440 -1.4990
12678TIP3   OH259448   5.084   6.387   1.138 -0.0350  0.1406  0.7043
12678TIP3    H159449   5.098   6.478   1.165  1.7868 -0.0394  0.4259
12678TIP3    H259450   5.149   6.337   1.188 -0.6830 -0.9404  0.4763
12679TIP3   OH259451   4.067   6.404   6.404  0.5963  0.0163  0.1842
12679TIP3    H159452   4.018   6.394   6.486 -0.2123  1.6323 -0.0944
12679TIP3    H259453   4.131   6.333   6.407  0.4686 -0.0608  2.1411
12680TIP3   OH259454   3.571   6.758   0.519  0.5305 -0.2999 -0.5959
12680TIP3    H159455   3.565   6.765   0.615  0.7931 -0.7117 -0.5440
12680TIP3    H259456   3.582   6.664   0.504  1.8729 -0.0855 -0.9555
12681TIP3   OH259457   2.489   6.601   3.385  0.2298  0.7077 -0.3645
12681TIP3    H159458   2.552   6.671   3.368  2.7562 -1.2183  0.7715
12681TIP3    H259459   2.517   6.529   3.327  0.6545 -1.0685  1.9862
12682TIP3   OH259460   3.862   3.555  12.809  0.2443  0.1994 -0.5650
12682TIP3    H159461   3.826   3.591  12.728 -2.8594 -3.1428 -0.8032
12682TIP3    H259462   3.943   3.511  12.781  0.0191  0.4169 -1.5703
12683TIP3   OH259463   4.270   2.323   5.362 -0.0514 -0.5561 -0.1085
12683TIP3    H159464   4.290   2.378   5.439  1.1169 -1.5863  0.3344
12683TIP3    H259465   4.356   2.305   5.323 -0.7208  0.9107 -2.3466
12684TIP3   OH259466   1.756   2.385  11.681  0.5461 -0.0526  0.2517
12684TIP3    H159467   1.756   2.317  11.614  1.2669 -0.2062  0.4014
12684TIP3    H259468   1.675   2.371  11.730 -1.7219  2.1359 -2.6376
12685TIP3   OH259469   2.524   5.869   4.978 -0.0782  0.6317 -0.0101
12685TIP3    H159470   2.516   5.803   5.047  1.5493 -0.2631 -0.6627
12685TIP3    H259471   2.575   5.939   5.019 -2.3332  1.8348  0.8871
12686TIP3   OH259472   1.058   2.451   5.950 -0.3879  0.5091  0.6638
12686TIP3    H159473   1.006   2.390   5.898 -0.5643  0.5334  0.8106
12686TIP3    H259474   1.056   2.533   5.901  2.5307 -0.4607 -1.1860
12687TIP3   OH259475   0.057   1.188  12.493  0.4410  0.6270 -0.3122
12687TIP3    H159476   0.040   1.226  12.579  2.1913  0.0786  0.3092
12687TIP3    H259477   0.115   1.252  12.450  1.8147 -0.3814 -0.0004
12688TIP3   OH259478   1.443   1.275  14.884 -0.7576 -0.0189  0.5582
12688TIP3    H159479   1.523   1.320  14.857 -0.6076 -1.3895 -1.4102
12688TIP3    H259480   1.441   1.285  14.979  0.5593  1.9646  0.4246
12689TIP3   OH259481   2.819   4.735  15.246  0.2488  0.0735  0.3504
12689TIP3    H159482   2.788   4.813  15.201 -3.5393 -0.7406  1.4360
12689TIP3    H259483   2.789   4.745  15.337  2.3463 -1.2505  1.2495
12690TIP3   OH259484   3.993   4.683   5.317  0.0154  0.3388 -0.1742
12690TIP3    H159485   4.029   4.731   5.391 -1.2542  0.0814  0.6333
12690TIP3    H259486   4.042   4.715   5.241  1.9360 -0.0237  0.8792
12691TIP3   OH259487   3.670   5.683  12.689 -0.5002  0.3082 -0.0463
12691TIP3    H159488   3.728   5.618  12.648 -2.4692  0.0293 -2.4555
12691TIP3    H259489   3.713   5.767  12.674 -0.3980  0.0414 -1.2384
12692TIP3   OH259490   5.156   2.271   0.757 -0.2808 -0.1597  0.0859
12692TIP3    H159491   5.067   2.271   0.721  0.0388 -1.8146 -0.7322
12692TIP3    H259492   5.166   2.184   0.795  1.3743 -0.3406 -0.7477
12693TIP3   OH259493   4.162   5.790  13.001  0.1529  0.3645 -0.7789
12693TIP3    H159494   4.067   5.785  13.012  0.1066  1.4257 -0.6731
12693TIP3    H259495   4.198   5.748  13.079 -0.2127  1.6932  0.1115
12694TIP3   OH259496   3.366   6.125  13.924 -0.0527 -0.3490  0.2512
12694TIP3    H159497   3.287   6.119  13.871  0.1836  0.1930 -0.1680
12694TIP3    H259498   3.404   6.037  13.920  0.5902 -0.0195 -1.4677
12695TIP3   OH259499   4.663   5.315   1.447 -0.3650  0.2035  0.8162
12695TIP3    H159500   4.657   5.224   1.417  1.6914  0.4539 -0.4581
12695TIP3    H259501   4.585   5.327   1.502 -1.0054 -2.1218  0.4920
12696TIP3   OH259502   0.967   3.196   4.816  0.7320  0.0792 -0.3890
12696TIP3    H159503   0.997   3.127   4.875  0.9674 -0.1712 -0.7941
12696TIP3    H259504   0.875   3.208   4.838  1.0909  0.7569  0.7694
12697TIP3   OH259505   1.758   1.858  14.682 -0.1197 -0.3275  0.1348
12697TIP3    H159506   1.824   1.893  14.742 -0.4912  0.2309  0.2109
12697TIP3    H259507   1.675   1.895  14.712 -0.4035 -0.6229 -0.2789
12698TIP3   OH259508   6.700   3.207  15.353 -0.3335  0.1666  0.1036
12698TIP3    H159509   6.628   3.252  15.309 -0.3900  1.7021  1.6684
12698TIP3    H259510   6.747   3.277  15.399 -0.6435 -1.3948  2.9493
12699TIP3   OH259511   3.520   2.464  15.185 -0.4355 -0.4961 -0.3516
12699TIP3    H159512   3.449   2.433  15.129 -0.4157 -1.0287 -0.0786
12699TIP3    H259513   3.583   2.504  15.125 -0.9621 -0.0224 -0.5942
12700TIP3   OH259514   5.702   0.791   1.635 -0.1590  0.1751 -0.2855
12700TIP3    H159515   5.740   0.704   1.645  0.6603  0.6117  0.3941
12700TIP3    H259516   5.644   0.801   1.710  2.2192  1.4910  1.4015
12701TIP3   OH259517   0.766   3.632  16.236  0.4448  0.4398 -0.4578
12701TIP3    H159518   0.685   3.670  16.204  1.5550  2.1255 -1.3339
12701TIP3    H259519   0.797   3.693  16.303  0.5039 -0.7026  0.5936
12702TIP3   OH259520   4.578   1.067   2.660 -0.5903  0.0483  0.0961
12702TIP3    H159521   4.567   1.017   2.740  1.5172  1.2926  1.1970
12702TIP3    H259522   4.526   1.147   2.674 -0.3304  0.2058  0.1624
12703TIP3   OH259523   0.540   3.434   3.116 -0.2884 -0.5314  0.0616
12703TIP3    H159524   0.521   3.487   3.194 -0.5766 -1.9547  0.9716
12703TIP3    H259525   0.627   3.464   3.088 -0.2584  0.1225  0.8218
12704TIP3   OH259526   5.085   5.462  15.283  0.7412 -0.7580  0.0435
12704TIP3    H159527   5.045   5.439  15.199 -0.4329  0.2766  0.3021
12704TIP3    H259528   5.032   5.415  15.348  1.2594 -1.0570  0.2514
12705TIP3   OH259529   5.616   3.044   4.603 -0.3708 -0.1108 -0.5106
12705TIP3    H159530   5.542   3.075   4.553 -1.2073 -1.1617  0.0417
12705TIP3    H259531   5.578   2.986   4.669  0.9441 -0.7783 -0.3107
12706TIP3   OH259532   2.932   2.048  14.521 -0.1142  0.8092  0.1379
12706TIP3    H159533   2.904   2.064  14.431  0.0345  0.7893  0.0872
12706TIP3    H259534   2.854   2.015  14.565 -0.4595  1.8042  0.2773
12707TIP3   OH259535   5.534   2.599  15.679 -0.0981  0.2505 -0.4386
12707TIP3    H159536   5.440   2.616  15.690  0.0506  0.5033  0.4657
12707TIP3    H259537   5.546   2.590  15.585 -1.2666 -1.0868 -0.4773
12708TIP3   OH259538   5.188   2.132  14.130  0.1632 -0.0808 -1.1240
12708TIP3    H159539   5.198   2.083  14.048 -1.1818 -2.1680 -0.0872
12708TIP3    H259540   5.094   2.148  14.136  0.5040  2.0762 -1.0880
12709TIP3   OH259541   6.676   5.168   5.559  0.5296  0.6411 -0.4436
12709TIP3    H159542   6.656   5.130   5.473 -0.1090  1.3813 -0.6196
12709TIP3    H259543   6.729   5.101   5.602 -0.4149 -0.3717 -0.8347
12710TIP3   OH259544   3.220   4.040  13.351  0.1649 -0.2207  0.8006
12710TIP3    H159545   3.236   4.035  13.256  0.4408  0.2665  0.8196
12710TIP3    H259546   3.154   3.973  13.367  1.0420 -1.1667  0.4672
12711TIP3   OH259547   1.536   2.008   0.192 -0.4997  0.3318  0.3644
12711TIP3    H159548   1.583   2.064   0.130 -0.3820  1.6770  1.6525
12711TIP3    H259549   1.603   1.980   0.254 -0.9282  0.2751  0.8022
12712TIP3   OH259550   1.660   6.458  15.396  0.3988 -0.1801  0.1237
12712TIP3    H159551   1.748   6.454  15.434  0.4281  0.8291  0.1841
12712TIP3    H259552   1.644   6.370  15.362  2.0066 -0.0120 -1.1677
12713TIP3   OH259553   1.276   5.577  17.057  0.2887  0.0129 -0.5358
12713TIP3    H159554   1.305   5.603  16.970  1.4010 -1.3202 -0.5764
12713TIP3    H259555   1.196   5.526  17.042 -0.5316  1.3026 -0.6290
12714TIP3   OH259556   0.788   2.212   1.729 -0.5681  0.2958  1.0160
12714TIP3    H159557   0.755   2.256   1.808 -0.2644  0.1434  1.2314
12714TIP3    H259558   0.798   2.282   1.665 -0.1984  0.5266  1.3220
12715TIP3   OH259559   1.695   2.643   4.676  0.3386 -0.1836 -0.0246
12715TIP3    H159560   1.719   2.580   4.743 -0.1628  1.9034  2.2110
12715TIP3    H259561   1.744   2.617   4.599  1.4066 -2.2890  1.3396
12716TIP3   OH259562   1.814   4.153  16.599 -0.2013 -0.2200 -0.6626
12716TIP3    H159563   1.766   4.183  16.676  0.0886 -0.3426 -0.4323
12716TIP3    H259564   1.761   4.083  16.562 -0.0099 -0.6187 -0.1868
12717TIP3   OH259565   2.883   2.547  12.330  0.3274  0.3481  0.3437
12717TIP3    H159566   2.965   2.518  12.368  0.1109 -0.5088  0.1617
12717TIP3    H259567   2.837   2.467  12.305 -0.8396  0.7800  1.0224
12718TIP3   OH259568   3.515   6.141   6.342 -0.5531 -0.6609 -0.1860
12718TIP3    H159569   3.513   6.217   6.400  1.5553 -0.5816 -0.1875
12718TIP3    H259570   3.423   6.121   6.325 -1.1674  0.3152  1.8839
12719TIP3   OH259571   3.147   4.335  14.134  0.2739  0.2762 -0.4346
12719TIP3    H159572   3.177   4.405  14.192 -0.3187  0.1092  0.0731
12719TIP3    H259573   3.227   4.290  14.108  0.5244  0.2178  0.4243
12720TIP3   OH259574   6.214   3.372  11.927  0.2593 -0.0889  0.7294
12720TIP3    H159575   6.128   3.356  11.966 -0.0163  1.3642  0.7641
12720TIP3    H259576   6.196   3.427  11.850  1.1404  0.1812  0.7051
12721TIP3   OH259577   6.115   6.275  13.766 -0.3806  0.5414  0.2184
12721TIP3    H159578   6.099   6.195  13.816 -0.8909  0.0586 -0.7012
12721TIP3    H259579   6.185   6.252  13.706 -1.4224  0.3723 -0.9549
12722TIP3   OH259580   3.606   0.321   1.628  0.1636  0.3372 -0.0836
12722TIP3    H159581   3.679   0.341   1.569  0.2265  1.4011  0.3329
12722TIP3    H259582   3.633   0.358   1.712 -0.1146 -0.7835  0.5091
12723TIP3   OH259583   1.590   3.981   2.623  0.2083 -0.2454 -0.5359
12723TIP3    H159584   1.579   4.060   2.570  0.7945  0.5850  0.5530
12723TIP3    H259585   1.524   3.920   2.589  0.0507  0.5466 -1.6865
12724TIP3   OH259586   2.547   2.842  15.635  0.8072 -0.4475 -1.1644
12724TIP3    H159587   2.553   2.936  15.615 -0.5676 -0.0749  0.0986
12724TIP3    H259588   2.489   2.807  15.567  1.3036 -0.3830 -1.6252
12725TIP3   OH259589   6.099   1.269  16.648  0.1974  0.0056 -0.2641
12725TIP3    H159590   6.097   1.363  16.664 -2.4734  0.1558 -1.4060
12725TIP3    H259591   6.192   1.246  16.656  1.0992  2.9880 -1.6442
12726TIP3   OH259592   1.291   3.686   2.725  0.0115 -0.7734  0.2121
12726TIP3    H159593   1.242   3.613   2.687 -0.9021 -0.8553  1.5147
12726TIP3    H259594   1.238   3.714   2.800  0.8348  0.6058  0.2879
12727TIP3   OH259595   5.681   4.118  11.188 -0.2843  0.1394 -0.1834
12727TIP3    H159596   5.620   4.162  11.248 -0.2967  0.0540 -0.1340
12727TIP3    H259597   5.715   4.189  11.133 -0.9703  0.0794 -0.6825
12728TIP3   OH259598   3.525   2.034  14.964  0.6184  0.4920 -0.2518
12728TIP3    H159599   3.490   2.119  14.991 -1.8660  0.0050 -1.7265
12728TIP3    H259600   3.509   1.977  15.039 -1.2012  0.4564 -0.6379
12729TIP3   OH259601   3.883   5.507   1.041  0.4995  0.1284 -0.1754
12729TIP3    H159602   3.901   5.462   1.124  0.3414 -1.5736 -1.0658
12729TIP3    H259603   3.814   5.570   1.063  0.4438 -0.3276  0.9745
12730TIP3   OH259604   0.425   5.222  11.792 -0.2945 -0.1110  0.1434
12730TIP3    H159605   0.481   5.166  11.845 -0.9546 -0.7645  0.1590
12730TIP3    H259606   0.337   5.210  11.829 -0.7637 -0.5501 -1.0824
12731TIP3   OH259607   0.379   6.754   4.530 -0.4734 -0.0904  0.1563
12731TIP3    H159608   0.312   6.694   4.495 -0.9081  0.4260  0.0958
12731TIP3    H259609   0.374   6.741   4.625 -0.3723 -0.3561  0.1261
12732TIP3   OH259610   5.870   2.173   4.409 -0.3642 -0.0710 -0.0272
12732TIP3    H159611   5.799   2.113   4.432 -0.6953  1.0003  1.8865
12732TIP3    H259612   5.838   2.259   4.436  1.8803  0.3518  1.4010
12733TIP3   OH259613   1.003   1.590  11.087  0.3694 -0.0317 -0.7302
12733TIP3    H159614   0.958   1.565  11.006  0.0534  0.3702 -0.6807
12733TIP3    H259615   1.095   1.573  11.069  0.2587 -0.3336 -1.0297
12734TIP3   OH259616   6.781   0.832  16.503  0.1743  0.2173 -0.9088
12734TIP3    H159617   6.736   0.784  16.572 -0.3425 -0.8786 -1.9877
12734TIP3    H259618   6.874   0.827  16.526  0.1527 -1.5237 -1.1360
12735TIP3   OH259619   1.556   5.843   6.329 -0.1099 -0.0008  0.1941
12735TIP3    H159620   1.557   5.772   6.393 -0.1846 -1.0582 -0.9761
12735TIP3    H259621   1.646   5.874   6.326 -0.5354  1.6548  2.5538
12736TIP3   OH259622   1.886   2.255  16.039  0.1546 -0.4758 -0.2384
12736TIP3    H159623   1.831   2.200  16.095  1.2907 -1.0851  0.2987
12736TIP3    H259624   1.826   2.322  16.005 -1.0924 -1.5920 -0.3063
12737TIP3   OH259625   0.739   6.271  14.927 -0.3636 -0.6322 -0.1598
12737TIP3    H159626   0.786   6.195  14.890 -1.3582 -0.8316 -1.0252
12737TIP3    H259627   0.737   6.254  15.021 -0.3282 -1.5426 -0.3186
12738TIP3   OH259628   6.422   5.059   5.743  0.3191  0.2500  0.2153
12738TIP3    H159629   6.483   5.009   5.689 -0.8595  0.0264 -0.9298
12738TIP3    H259630   6.383   5.122   5.683 -0.3693  0.5868  1.0044
12739TIP3   OH259631   3.437   6.425  16.139 -0.0681 -0.0130  0.2176
12739TIP3    H159632   3.453   6.518  16.125  1.8632 -0.6047 -1.6661
12739TIP3    H259633   3.348   6.411  16.106  0.0993  0.9353 -0.6430
12740TIP3   OH259634   3.771   3.212   3.860  0.3747 -0.6725 -0.9435
12740TIP3    H159635   3.688   3.164   3.861 -0.5483  0.8595 -0.8284
12740TIP3    H259636   3.825   3.169   3.927 -0.6906 -1.0805 -0.3338
12741TIP3   OH259637   5.304   4.221   0.249 -0.0497  0.1984 -0.4331
12741TIP3    H159638   5.332   4.305   0.211 -1.6678  1.1139  0.3598
12741TIP3    H259639   5.209   4.219   0.237 -0.3260 -0.4621  1.6172
12742TIP3   OH259640   6.777   1.573  11.140 -0.3977 -0.1430 -0.5064
12742TIP3    H159641   6.761   1.513  11.068  1.1258 -3.3728  1.7131
12742TIP3    H259642   6.727   1.537  11.213  1.2809  0.7665  1.1251
12743TIP3   OH259643   1.058   2.998  12.889  0.6328 -0.5249 -0.1915
12743TIP3    H159644   1.017   2.917  12.857 -0.0445 -1.0548  1.9585
12743TIP3    H259645   1.116   2.969  12.959 -1.7923  1.1355  2.5624
12744TIP3   OH259646   5.266   2.440   3.710  0.0607 -0.4332  0.3993
12744TIP3    H159647   5.291   2.375   3.775  0.3801 -0.6618  0.0472
12744TIP3    H259648   5.177   2.465   3.735  0.4795  0.0838  1.4042
12745TIP3   OH259649   6.317   4.569   1.027  0.0187 -0.2646  0.3368
12745TIP3    H159650   6.403   4.582   0.986  0.0405 -0.3548  0.3559
12745TIP3    H259651   6.328   4.603   1.116 -0.2179  0.5531  0.0634
12746TIP3   OH259652   2.686   2.923   5.292 -0.4529 -0.5653  0.3229
12746TIP3    H159653   2.605   2.873   5.281 -0.2760 -0.2600 -2.6962
12746TIP3    H259654   2.703   2.961   5.206  1.2582  1.9346  1.6945
12747TIP3   OH259655   4.364   5.149  13.406 -0.2425 -0.0308  0.5936
12747TIP3    H159656   4.373   5.139  13.311 -1.6872  0.2682  0.4166
12747TIP3    H259657   4.428   5.216  13.429  0.0780 -0.0601 -0.1842
12748TIP3   OH259658   2.756   1.806   4.319  0.1194 -0.3201  0.4272
12748TIP3    H159659   2.684   1.744   4.313 -0.2579  0.1040  0.5376
12748TIP3    H259660   2.819   1.764   4.378  1.3257 -2.0143 -1.9878
12749TIP3   OH259661   5.882   0.516  14.509 -0.1214  0.2949  0.8686
12749TIP3    H159662   5.945   0.511  14.581  3.0654 -1.5707 -1.8620
12749TIP3    H259663   5.928   0.567  14.442 -1.5260 -1.0755 -1.1933
12750TIP3   OH259664   6.674   4.431   5.927  0.0273 -0.5442  0.3425
12750TIP3    H159665   6.757   4.463   5.894 -1.0846 -0.5280 -2.6018
12750TIP3    H259666   6.672   4.339   5.903 -1.3610 -0.2263 -0.8841
12751TIP3   OH259667   5.954   3.615   0.461  0.1601 -0.3214  0.3120
12751TIP3    H159668   6.016   3.582   0.527  0.4072  0.6421  0.5685
12751TIP3    H259669   5.868   3.603   0.502  0.3437  0.7377  1.0293
12752TIP3   OH259670   3.580   2.189  10.965 -0.1121 -0.3435  0.0788
12752TIP3    H159671   3.550   2.215  10.878  1.3091  1.7956  0.2126
12752TIP3    H259672   3.504   2.144  11.004 -2.0036  1.9538 -0.8580
12753TIP3   OH259673   1.563   1.588  10.945 -0.3782 -0.6139 -0.3271
12753TIP3    H159674   1.591   1.506  10.985  1.8924 -0.0873 -0.7840
12753TIP3    H259675   1.592   1.656  11.006 -0.7523 -0.0592 -0.7598
12754TIP3   OH259676   0.362   2.878  11.136  0.5553 -0.3497  0.3697
12754TIP3    H159677   0.397   2.882  11.048  0.8160  0.8228  0.5190
12754TIP3    H259678   0.349   2.969  11.161 -3.6041 -0.6937 -0.0868
12755TIP3   OH259679   3.300   1.225   2.358  0.2486  0.4491  0.4494
12755TIP3    H159680   3.218   1.251   2.316 -0.1797  1.3031  1.7600
12755TIP3    H259681   3.359   1.300   2.345 -0.2597  1.2105  2.3063
12756TIP3   OH259682   0.852   1.995   3.612  0.0921  0.2755  0.2310
12756TIP3    H159683   0.885   1.933   3.547 -0.6608 -0.4477  0.5319
12756TIP3    H259684   0.762   1.966   3.629  0.3254  0.3761  1.6911
12757TIP3   OH259685   6.035   2.832   6.182  0.2608  0.2806  0.0482
12757TIP3    H159686   6.109   2.800   6.234 -1.1050 -0.2473  1.7038
12757TIP3    H259687   5.996   2.901   6.236 -0.7292  0.2434 -0.6113
12758TIP3   OH259688   4.608   2.409  16.774  0.0159  0.0332 -0.1960
12758TIP3    H159689   4.647   2.330  16.735  1.0939  1.3282 -1.7987
12758TIP3    H259690   4.656   2.422  16.855 -2.2213 -2.6835  1.6435
12759TIP3   OH259691   3.155   0.934  12.837 -0.2093 -0.0458  0.3500
12759TIP3    H159692   3.150   0.839  12.841 -2.4539  0.0258 -0.0463
12759TIP3    H259693   3.138   0.955  12.745  1.4908  0.6848  0.1910
12760TIP3   OH259694   5.564   2.005  13.032 -0.0752 -0.1402 -0.3735
12760TIP3    H159695   5.531   1.966  13.113  0.4610  0.3018  0.0609
12760TIP3    H259696   5.487   2.045  12.991 -0.3809 -0.5326 -0.1802
12761TIP3   OH259697   5.101   3.161   2.176  0.8372 -0.0615 -0.5114
12761TIP3    H159698   5.169   3.228   2.186  0.1902  0.6298 -0.7078
12761TIP3    H259699   5.070   3.172   2.087  0.7934 -0.6975 -0.5779
12762TIP3   OH259700   6.034   3.420   5.291 -0.1808 -0.1822 -0.1093
12762TIP3    H159701   6.060   3.336   5.327  1.7675  0.0331 -0.9598
12762TIP3    H259702   6.107   3.479   5.310 -1.1217  1.0990 -0.3174
12763TIP3   OH259703   5.747   3.747   1.667  0.2005 -0.3424  0.4869
12763TIP3    H159704   5.760   3.667   1.616  2.3391 -0.5156  1.2896
12763TIP3    H259705   5.697   3.718   1.744  0.8454 -0.8883  0.7063
12764TIP3   OH259706   1.080   4.038   3.060  0.2684 -0.1212 -0.1778
12764TIP3    H159707   1.094   4.086   3.142 -0.7933  0.8956 -0.5694
12764TIP3    H259708   1.143   4.077   2.999  0.1157  0.0701 -0.2143
12765TIP3   OH259709   5.653   1.880   3.538 -0.3927 -0.2390 -0.5125
12765TIP3    H159710   5.741   1.864   3.502  1.4341  0.0988  3.5193
12765TIP3    H259711   5.636   1.972   3.518  2.0144  0.8685  2.2207
12766TIP3   OH259712   6.115   1.241  14.737 -0.1338 -0.3470  0.1246
12766TIP3    H159713   6.201   1.249  14.695  0.4613  0.4103  1.4486
12766TIP3    H259714   6.092   1.330  14.761 -1.2175 -0.5729 -0.0675
12767TIP3   OH259715   0.896   6.661  13.155 -0.0647  0.4832 -0.3679
12767TIP3    H159716   0.925   6.708  13.234  2.0862 -0.7158 -0.4077
12767TIP3    H259717   0.807   6.632  13.176  0.5979 -0.1110  1.7731
12768TIP3   OH259718   4.213   3.799   4.232 -0.3739 -0.0760 -0.4404
12768TIP3    H159719   4.174   3.806   4.319  0.3875  0.7894 -0.1664
12768TIP3    H259720   4.191   3.881   4.189 -0.3677 -0.3215 -0.9173
12769TIP3   OH259721   0.558   3.834  12.388  0.2676  0.3554  0.2590
12769TIP3    H159722   0.535   3.899  12.455 -2.2604  1.3470 -1.4855
12769TIP3    H259723   0.478   3.782  12.377  0.7392  0.0179 -1.7548
12770TIP3   OH259724   3.918   3.250  12.728  0.1003 -0.6869 -0.0680
12770TIP3    H159725   3.925   3.162  12.691 -0.8165 -1.3187  1.2037
12770TIP3    H259726   3.908   3.235  12.822 -0.8796  0.7498  0.0637
12771TIP3   OH259727   0.953   6.199  13.916  0.1888  0.0291  0.2098
12771TIP3    H159728   0.950   6.211  14.011 -0.2233 -0.6633  0.2825
12771TIP3    H259729   0.863   6.212  13.887  0.5740  1.8757 -0.2953
12772TIP3   OH259730   6.209   6.558   5.994 -0.3041  0.0646  0.3318
12772TIP3    H159731   6.160   6.540   6.074 -3.2479 -0.4311 -1.5353
12772TIP3    H259732   6.201   6.652   5.981  0.8851  0.2803  1.0149
12773TIP3   OH259733   1.554   0.582   6.063  0.5686 -0.0188 -0.3257
12773TIP3    H159734   1.622   0.595   5.998  0.5109 -0.1812 -0.4194
12773TIP3    H259735   1.527   0.670   6.088  0.5920  0.0427 -0.5196
12774TIP3   OH259736   3.822   5.700  16.819  0.4954 -0.1404  0.7570
12774TIP3    H159737   3.824   5.713  16.725 -0.7380 -0.1911  0.7109
12774TIP3    H259738   3.731   5.677  16.838  0.8579 -0.6823  1.8840
12775TIP3   OH259739   2.085   6.411   5.879 -0.3579  0.0458  0.1674
12775TIP3    H159740   2.008   6.446   5.923 -1.7657  0.8197 -2.7895
12775TIP3    H259741   2.133   6.488   5.848  0.8650 -0.4600  0.7647
12776TIP3   OH259742   1.067   2.145   6.162  0.0040 -0.3035 -0.2473
12776TIP3    H159743   0.990   2.201   6.173 -0.7435 -1.1483 -1.0452
12776TIP3    H259744   1.131   2.179   6.225 -0.3686  1.5296 -0.8305
12777TIP3   OH259745   0.247   6.652  15.907  0.2628  0.7137  0.2906
12777TIP3    H159746   0.303   6.726  15.881  1.2703  0.0183  0.4509
12777TIP3    H259747   0.301   6.575  15.891 -0.8720 -0.0144 -0.0964
12778TIP3   OH259748   5.453   1.135  13.483 -0.0019  0.4886  0.0613
12778TIP3    H159749   5.389   1.142  13.412 -2.1320  2.0919  2.0101
12778TIP3    H259750   5.456   1.042  13.504 -0.9513  0.2640 -0.7585
12779TIP3   OH259751   4.541   3.026  12.042 -0.5322  0.0734  0.0273
12779TIP3    H159752   4.534   2.937  12.077 -5.0025  0.5173  0.4744
12779TIP3    H259753   4.623   3.060  12.079  1.4695 -3.9166 -0.4834
12780TIP3   OH259754   1.567   1.030  10.843  0.2552  0.4355  0.1981
12780TIP3    H159755   1.483   1.047  10.802 -0.7109 -0.9399  1.5494
12780TIP3    H259756   1.624   1.002  10.771 -0.5570  0.9576 -0.6502
12781TIP3   OH259757   4.207   2.803  12.540 -0.3522  0.0359 -0.1954
12781TIP3    H159758   4.190   2.727  12.596  0.6523 -0.6437 -0.7910
12781TIP3    H259759   4.275   2.852  12.587 -0.1307 -0.0783 -0.3956
12782TIP3   OH259760   4.408   3.714   1.377 -0.2065  0.2545  0.3477
12782TIP3    H159761   4.346   3.751   1.440 -0.7997  0.9039 -0.5972
12782TIP3    H259762   4.482   3.684   1.430 -0.2117  1.7895  1.2434
12783TIP3   OH259763   6.772   1.978   3.546  0.6816  0.0548  0.0466
12783TIP3    H159764   6.717   1.968   3.624 -0.1571 -1.4428 -0.7292
12783TIP3    H259765   6.852   1.930   3.566  0.5762 -0.1015  0.0962
12784TIP3   OH259766   6.560   3.883  15.398 -0.2280 -0.6144 -0.1940
12784TIP3    H159767   6.485   3.909  15.451 -0.2056  0.3358 -0.6292
12784TIP3    H259768   6.543   3.791  15.376 -0.6361 -0.7762  0.7699
12785TIP3   OH259769   5.356   2.877   1.362  0.3055 -0.2034  0.3506
12785TIP3    H159770   5.376   2.965   1.330 -0.6351 -0.2834 -0.4954
12785TIP3    H259771   5.348   2.888   1.457  1.0794  0.4454  0.3515
12786TIP3   OH259772   2.991   1.899   4.183  0.1677 -0.2050  0.3935
12786TIP3    H159773   3.067   1.871   4.132  1.7941  1.1180  2.0117
12786TIP3    H259774   2.934   1.822   4.186  0.4816 -0.6139 -2.5191
12787TIP3   OH259775   0.128   6.677  11.825 -0.0961 -0.0979 -0.3861
12787TIP3    H159776   0.098   6.705  11.738  2.4681 -0.0407 -1.2998
12787TIP3    H259777   0.147   6.759  11.871 -0.8058 -0.1515  0.0197
12788TIP3   OH259778   5.206   2.014  11.914  0.1342 -0.3953  0.1712
12788TIP3    H159779   5.193   2.095  11.865  0.0802  0.2684  1.2565
12788TIP3    H259780   5.212   1.946  11.847 -0.0093  0.4783 -0.7456
12789TIP3   OH259781   5.664   1.280  15.393  0.0701 -0.2381 -0.8281
12789TIP3    H159782   5.649   1.326  15.475 -1.5875  0.2384 -1.3546
12789TIP3    H259783   5.658   1.349  15.326 -0.1123 -0.8553 -1.4525
12790TIP3   OH259784   0.959   3.952  16.438 -0.3911 -0.2095  0.3268
12790TIP3    H159785   0.879   3.908  16.465  0.0880 -1.0870  0.3490
12790TIP3    H259786   0.980   3.914  16.353 -1.4921  2.0052 -1.0000
12791TIP3   OH259787   2.087   1.481   3.695 -0.3852  0.0127  0.2492
12791TIP3    H159788   2.108   1.525   3.778  0.8001  0.5631 -0.3322
12791TIP3    H259789   2.128   1.395   3.703 -2.0371 -0.7191  1.0661
12792TIP3   OH259790   1.168   3.851  14.185 -0.3165  0.4539 -0.2324
12792TIP3    H159791   1.245   3.823  14.234  0.1999  1.1575 -0.6351
12792TIP3    H259792   1.096   3.799  14.222 -0.0022  1.2190  1.5350
12793TIP3   OH259793   4.935   6.282  11.247 -0.8149  1.0454  0.2381
12793TIP3    H159794   4.974   6.291  11.160 -1.1288 -0.1359 -0.0385
12793TIP3    H259795   5.007   6.252  11.303 -1.5956 -2.7426 -0.6112
12794TIP3   OH259796   6.225   1.580  17.155  0.1286  0.7079  0.4669
12794TIP3    H159797   6.197   1.489  17.144 -0.6054  0.9692  0.2136
12794TIP3    H259798   6.312   1.573  17.196  0.0563 -0.1037  0.4858
12795TIP3   OH259799   3.397   0.217  15.434  0.0629 -0.2319  0.2037
12795TIP3    H159800   3.411   0.198  15.527  0.6230 -2.2937 -0.2875
12795TIP3    H259801   3.302   0.211  15.422  0.1148 -1.3601  0.3486
12796TIP3   OH259802   3.162   4.106   5.439  0.0197  0.3129  0.2857
12796TIP3    H159803   3.120   4.141   5.360  0.6167  0.6192  0.1030
12796TIP3    H259804   3.250   4.082   5.411  0.1117  0.0703  0.7737
12797TIP3   OH259805   6.720   2.827   5.907 -0.3191 -0.5424 -0.1356
12797TIP3    H159806   6.707   2.828   5.813 -0.2559 -1.7108 -0.1727
12797TIP3    H259807   6.703   2.736   5.932  1.5791 -0.7061  0.6817
12798TIP3   OH259808   5.074   0.613   4.446  0.2434 -0.3067  0.2351
12798TIP3    H159809   5.049   0.521   4.441 -1.6631  0.1780  0.4761
12798TIP3    H259810   5.064   0.636   4.538  0.8277  0.1213  0.1996
12799TIP3   OH259811   6.400   0.065  12.589  0.3301  0.2522  0.2123
12799TIP3    H159812   6.495   0.071  12.579  0.4869 -1.5895  0.3301
12799TIP3    H259813   6.385  -0.022  12.627 -1.4426  0.2358 -0.4495
12800TIP3   OH259814   1.332   6.684  16.482 -0.0038  0.7456  0.1845
12800TIP3    H159815   1.307   6.646  16.398  1.7916 -0.9290  0.3895
12800TIP3    H259816   1.300   6.621  16.547 -1.6821  2.1892  0.8039
12801TIP3   OH259817   3.654   6.639   3.262  0.0715 -0.2154 -0.2394
12801TIP3    H159818   3.686   6.707   3.202 -0.1642 -0.3261 -0.4946
12801TIP3    H259819   3.733   6.598   3.296  0.1954 -1.0633 -1.5215
12802TIP3   OH259820   4.661   3.107   5.892  0.0657 -0.2334  0.0074
12802TIP3    H159821   4.663   3.079   5.801 -0.9904  0.4916 -0.2431
12802TIP3    H259822   4.578   3.073   5.926 -0.3216  0.9255  0.2341
12803TIP3   OH259823   0.847   5.509   3.138 -0.0994 -0.0759 -0.2529
12803TIP3    H159824   0.837   5.425   3.183 -2.2004  1.0275  1.4805
12803TIP3    H259825   0.771   5.513   3.080 -0.9784  1.3449  0.9589
12804TIP3   OH259826   5.263   2.273   1.555  0.0213 -0.3844  0.0277
12804TIP3    H159827   5.358   2.264   1.561  0.2681 -0.0096 -2.7295
12804TIP3    H259828   5.250   2.360   1.517 -1.5197  0.5907  2.7086
12805TIP3   OH259829   2.151   0.330   5.871  0.3738  0.5160  0.2209
12805TIP3    H159830   2.149   0.234   5.874  1.3184  0.4294 -1.2605
12805TIP3    H259831   2.244   0.352   5.880  0.1095  1.3118  1.0157
12806TIP3   OH259832   5.654   5.051  11.120  0.8160 -0.2209 -0.7698
12806TIP3    H159833   5.667   4.959  11.095  0.7903 -0.8196  1.2641
12806TIP3    H259834   5.579   5.080  11.069 -0.7072 -2.0956  0.3495
12807TIP3   OH259835   3.785   6.334   1.930  0.3324 -0.3970 -0.7656
12807TIP3    H159836   3.797   6.372   2.017 -0.6242 -1.3964 -0.1818
12807TIP3    H259837   3.695   6.304   1.929  0.6624 -1.3954 -1.7058
12808TIP3   OH259838   4.294   1.128   5.630  0.3934 -0.1862  0.1467
12808TIP3    H159839   4.342   1.184   5.569  0.4355 -1.1399 -0.7258
12808TIP3    H259840   4.351   1.052   5.641 -1.9125 -2.4850 -2.8261
12809TIP3   OH259841   0.654   1.383  14.335 -0.0799  0.2193  0.9149
12809TIP3    H159842   0.593   1.378  14.262 -0.1450 -0.5895  1.0182
12809TIP3    H259843   0.674   1.292  14.355 -0.3268  0.4307  2.1276
12810TIP3   OH259844   3.998   5.676  12.576  0.0351  0.0433 -0.1766
12810TIP3    H159845   3.957   5.688  12.490 -0.9261  1.6701  0.4960
12810TIP3    H259846   4.034   5.762  12.598 -1.1325  0.0726  1.7530
12811TIP3   OH259847   0.434   2.021  15.982  0.5171 -0.1507 -0.1939
12811TIP3    H159848   0.374   2.092  15.958  0.3621  0.5502  2.1282
12811TIP3    H259849   0.377   1.947  16.002  0.7092 -1.2141 -3.3421
12812TIP3   OH259850   1.063   0.460  11.548  0.2982  0.2492 -0.4878
12812TIP3    H159851   1.151   0.487  11.523  0.4644 -1.6092 -2.0361
12812TIP3    H259852   1.005   0.516  11.496  0.5753  1.1357  0.1643
12813TIP3   OH259853   2.577   6.433  16.415 -0.1277  1.0660 -0.8588
12813TIP3    H159854   2.642   6.493  16.450  0.0645  1.0184 -1.1392
12813TIP3    H259855   2.622   6.349  16.408  0.4356  1.5047 -3.0785
12814TIP3   OH259856   4.849   2.446  16.171 -0.0915  0.3913  0.6882
12814TIP3    H159857   4.852   2.351  16.168 -1.0829  0.3721  0.3881
12814TIP3    H259858   4.797   2.467  16.248  0.4764  0.7064  0.9967
12815TIP3   OH259859   1.727   6.341   3.838  0.1279 -0.1122  0.7565
12815TIP3    H159860   1.656   6.355   3.776  0.1624  0.2260  0.7891
12815TIP3    H259861   1.713   6.407   3.906  0.2272 -0.3232  0.9841
12816TIP3   OH259862   6.245   4.272  15.978  0.1698 -0.0188 -0.9049
12816TIP3    H159863   6.325   4.306  15.937  0.3273 -0.5784 -1.0679
12816TIP3    H259864   6.175   4.296  15.917  0.0823  1.2962 -0.3125
12817TIP3   OH259865   6.250   3.000  12.097 -0.6726 -0.0850  0.2623
12817TIP3    H159866   6.208   3.041  12.172  0.4139  0.5717  0.5297
12817TIP3    H259867   6.326   3.056  12.078  0.1045 -1.2498 -0.1788
12818TIP3   OH259868   0.973   5.689  13.147  0.0063  0.5911 -0.2522
12818TIP3    H159869   1.023   5.741  13.211  1.1964 -1.6601  0.7107
12818TIP3    H259870   1.012   5.711  13.063 -0.3017  2.1625  0.0030
12819TIP3   OH259871   1.636   0.724  15.796  0.2033 -0.4341 -0.9895
12819TIP3    H159872   1.612   0.814  15.774  0.0460 -0.1762  0.1922
12819TIP3    H259873   1.730   0.728  15.811  0.0766 -0.2982 -0.1885
12820TIP3   OH259874   0.780   3.878  14.690 -0.1962 -0.5453 -0.0514
12820TIP3    H159875   0.727   3.947  14.731 -0.6978  0.2782 -2.0249
12820TIP3    H259876   0.715   3.820  14.650  0.3299 -0.7282 -0.6312
12821TIP3   OH259877   5.410   1.387   0.895 -0.3529  0.4418  0.1805
12821TIP3    H159878   5.448   1.301   0.911 -0.2490  0.2024 -1.3049
12821TIP3    H259879   5.436   1.408   0.805 -1.0487  1.6691  0.2622
12822TIP3   OH259880   6.715   4.896   3.297 -0.1422 -0.1270 -0.3302
12822TIP3    H159881   6.759   4.814   3.274  1.2805  1.2863 -2.8050
12822TIP3    H259882   6.765   4.930   3.372 -0.1820 -1.0514  0.1191
12823TIP3   OH259883   0.529   0.985   4.904  0.3138 -0.6840  0.3553
12823TIP3    H159884   0.520   1.012   4.812  1.0684  0.5731  0.6259
12823TIP3    H259885   0.568   1.062   4.947  2.4680 -2.1908  1.1971
12824TIP3   OH259886   0.115   5.233  12.538  0.1786  0.3147 -0.0758
12824TIP3    H159887   0.072   5.308  12.498  0.0590  0.6584  0.7020
12824TIP3    H259888   0.202   5.231  12.497  0.5800  1.5267  0.6955
12825TIP3   OH259889   6.361   4.641  11.587 -0.0452 -0.2155  1.2744
12825TIP3    H159890   6.367   4.553  11.547  1.6781 -0.2663  1.5983
12825TIP3    H259891   6.354   4.624  11.681 -1.2031 -0.0252  1.2296
12826TIP3   OH259892   3.438   0.194   1.009 -0.7612 -0.1415 -0.4361
12826TIP3    H159893   3.481   0.170   1.091 -1.7345 -1.6546 -0.3355
12826TIP3    H259894   3.417   0.287   1.019  0.3739  0.0330  0.4492
12827TIP3   OH259895   4.440   1.495  14.130 -0.0558 -0.2085 -0.2118
12827TIP3    H159896   4.410   1.404  14.129 -0.1255 -0.1707 -1.3422
12827TIP3    H259897   4.362   1.546  14.150 -0.2540 -0.2988 -0.7680
12828TIP3   OH259898   0.829   6.422   3.835  0.4602  0.1074  0.6166
12828TIP3    H159899   0.818   6.329   3.815 -1.0810 -0.1392  2.4630
12828TIP3    H259900   0.753   6.444   3.889  0.9327  2.3937  0.4057
12829TIP3   OH259901   3.297   4.343  12.270  0.2289  0.0173 -0.8298
12829TIP3    H159902   3.270   4.422  12.316 -0.1145 -0.0988 -0.8331
12829TIP3    H259903   3.343   4.375  12.192  1.6456  0.2222  0.0627
12830TIP3   OH259904   5.832   0.709  10.384 -0.2402  0.1429  0.0121
12830TIP3    H159905   5.756   0.747  10.429 -0.1684 -0.7533  0.8814
12830TIP3    H259906   5.862   0.639  10.441  0.8337  0.0452 -0.6656
12831TIP3   OH259907   1.104   2.273   0.536  0.0241 -0.0421  0.0246
12831TIP3    H159908   1.184   2.308   0.575 -0.7994  2.6233 -0.5892
12831TIP3    H259909   1.135   2.211   0.469  1.5136 -0.4288  1.0504
12832TIP3   OH259910   1.769   5.505  14.235 -0.4328 -0.2530 -0.0112
12832TIP3    H159911   1.788   5.411  14.235  0.6429 -0.0580  1.1996
12832TIP3    H259912   1.727   5.521  14.319  0.1159  0.4789  0.1329
12833TIP3   OH259913   1.856   1.294  15.373  0.7957  0.1218 -0.0506
12833TIP3    H159914   1.860   1.238  15.295  1.6766  1.0553 -0.6817
12833TIP3    H259915   1.942   1.336  15.378  0.7725  0.0308  1.4681
12834TIP3   OH259916   2.634   6.030   3.741  0.0798 -0.0800  0.0097
12834TIP3    H159917   2.614   6.122   3.728  0.1400 -0.2222 -1.1705
12834TIP3    H259918   2.687   6.027   3.821  0.3055  0.9299 -0.1055
12835TIP3   OH259919   4.513   3.005  14.831 -0.2855  0.5865 -0.6859
12835TIP3    H159920   4.506   2.955  14.912 -2.5456 -0.1330 -1.2827
12835TIP3    H259921   4.554   3.087  14.856 -0.4905  0.1508  1.0974
12836TIP3   OH259922   1.689   2.392  14.524  0.0270  0.0132  0.0494
12836TIP3    H159923   1.659   2.331  14.590  0.9876 -0.6374 -0.1122
12836TIP3    H259924   1.622   2.389  14.456 -0.7991  0.4457  0.8290
12837TIP3   OH259925   6.540   0.029   4.813 -0.0903  0.1042  0.1616
12837TIP3    H159926   6.614  -0.031   4.821 -0.3719 -0.0583  1.9740
12837TIP3    H259927   6.565   0.090   4.744  0.6493 -1.4621 -0.9934
12838TIP3   OH259928   4.649   3.716   3.227 -0.3127 -0.3318 -0.0050
12838TIP3    H159929   4.578   3.656   3.249  0.9968 -2.1209 -0.5621
12838TIP3    H259930   4.663   3.703   3.133  1.0132 -0.2779  0.1832
12839TIP3   OH259931   3.957   2.906  15.732  0.2391  0.3859  0.1068
12839TIP3    H159932   3.934   2.815  15.753  1.3387  0.3397  1.2123
12839TIP3    H259933   3.935   2.916  15.640 -1.0230 -0.6418  0.2763
12840TIP3   OH259934   4.107   4.703  14.784  0.7256 -0.5659  0.0218
12840TIP3    H159935   4.194   4.664  14.783  0.3553 -1.3963 -0.3777
12840TIP3    H259936   4.122   4.796  14.803  1.7565 -0.5483 -0.8832
12841TIP3   OH259937   5.154   4.840  16.526  0.0910 -0.2356  0.1994
12841TIP3    H159938   5.239   4.882  16.517  0.5498 -0.9945  0.9819
12841TIP3    H259939   5.133   4.810  16.438  0.8934 -0.5509  0.1143
12842TIP3   OH259940   3.647   4.147   3.835  0.0605 -0.1653  0.2341
12842TIP3    H159941   3.612   4.115   3.918  0.5395  0.6227  0.7571
12842TIP3    H259942   3.662   4.241   3.850  1.7507 -0.3401 -0.1722
12843TIP3   OH259943   4.830   2.252   1.357 -0.0301  0.5219 -0.1282
12843TIP3    H159944   4.877   2.304   1.423 -2.3223  1.2739  0.9530
12843TIP3    H259945   4.775   2.315   1.311 -2.5165 -0.8052  0.8993
12844TIP3   OH259946   2.213   5.562   2.647  0.0413  0.0482  0.2729
12844TIP3    H159947   2.287   5.619   2.626 -0.8281  0.2815 -2.4157
12844TIP3    H259948   2.195   5.579   2.740  1.9837  1.5750  0.4079
12845TIP3   OH259949   6.408   0.505   4.946 -0.0005 -0.0199  0.2127
12845TIP3    H159950   6.336   0.521   5.007 -0.3630  1.6695 -0.6141
12845TIP3    H259951   6.479   0.561   4.978  0.8407 -1.3784  0.7931
12846TIP3   OH259952   5.397   2.346  16.897  0.3036  0.1786 -0.1302
12846TIP3    H159953   5.392   2.428  16.848 -0.7662  0.6805  0.7974
12846TIP3    H259954   5.429   2.282  16.834 -0.7389  0.8824 -1.3811
12847TIP3   OH259955   0.034   4.095  12.384 -0.4025 -0.4640 -0.2018
12847TIP3    H159956   0.110   4.104  12.327  0.4107 -1.8088  0.6444
12847TIP3    H259957  -0.027   4.039  12.335 -0.7122  0.3156 -0.7250
12848TIP3   OH259958   5.630   5.798   3.649  0.3390  0.2895 -0.2119
12848TIP3    H159959   5.607   5.736   3.580  1.0187  0.4139 -0.5412
12848TIP3    H259960   5.665   5.874   3.604  0.1830  0.6300  0.2351
12849TIP3   OH259961   3.765   3.832   1.921  0.6319 -0.2025 -0.2931
12849TIP3    H159962   3.676   3.806   1.900  0.6205 -1.3401  1.1096
12849TIP3    H259963   3.757   3.918   1.962  0.2436 -0.0549 -0.6767
12850TIP3   OH259964   2.644   0.496   4.504 -0.4301 -0.3315 -0.2797
12850TIP3    H159965   2.644   0.531   4.593  0.0592 -0.6388 -0.1563
12850TIP3    H259966   2.700   0.555   4.454 -0.6278 -0.2131 -0.3602
12851TIP3   OH259967   4.080   4.427  12.830  0.2655 -0.5485  0.5446
12851TIP3    H159968   4.075   4.336  12.861  3.1734  0.0173  2.8573
12851TIP3    H259969   4.053   4.480  12.905 -1.7374  0.5294 -0.8923
12852TIP3   OH259970   5.265   1.847  12.928 -0.2333  0.5438 -0.4084
12852TIP3    H159971   5.216   1.794  12.991  0.5560  0.1368 -0.1240
12852TIP3    H259972   5.352   1.856  12.967  0.7494 -1.0322 -2.1735
12853TIP3   OH259973   5.865   2.449   5.132  0.6761  0.4631 -0.3845
12853TIP3    H159974   5.817   2.390   5.074 -0.8677  0.1949  1.1442
12853TIP3    H259975   5.943   2.400   5.157 -0.4320 -0.8175  0.6077
12854TIP3   OH259976   0.903   2.121  15.154 -0.1476 -0.4051  0.1019
12854TIP3    H159977   0.913   2.035  15.113 -0.3252 -0.4822  0.2216
12854TIP3    H259978   0.839   2.166  15.099 -0.3628 -0.4973  0.2753
12855TIP3   OH259979   4.987   4.915   1.847  0.1866 -0.3142 -0.3648
12855TIP3    H159980   5.037   4.924   1.928  0.5351 -0.6269 -0.5449
12855TIP3    H259981   5.006   4.827   1.817 -0.4973 -0.4476 -0.4196
12856TIP3   OH259982   6.128   2.802  15.538 -0.1451 -0.0713  0.0835
12856TIP3    H159983   6.063   2.737  15.565 -1.0740  0.3763 -1.0242
12856TIP3    H259984   6.115   2.875  15.598 -0.2605 -0.2218  0.2422
12857TIP3   OH259985   5.389   6.372   6.541 -0.0272  0.5155 -0.0777
12857TIP3    H159986   5.459   6.385   6.477  0.1982 -0.3101 -0.0018
12857TIP3    H259987   5.363   6.280   6.531 -2.6270  1.3687 -1.6546
12858TIP3   OH259988   2.849   5.912  14.208  0.0672 -0.3530 -0.5592
12858TIP3    H159989   2.827   5.970  14.280  1.4611 -0.9176  0.3506
12858TIP3    H259990   2.856   5.969  14.132  0.3069  0.5024  0.0977
12859TIP3   OH259991   3.703   3.189   2.074  0.6064 -0.3786 -0.9479
12859TIP3    H159992   3.698   3.188   2.170  1.6272  1.7935 -0.8347
12859TIP3    H259993   3.706   3.097   2.049  1.2739 -0.9638  1.1850
12860TIP3   OH259994   5.817   0.577   5.106 -0.1962 -0.2005  0.2009
12860TIP3    H159995   5.857   0.522   5.174  0.1205 -0.3896 -0.1382
12860TIP3    H259996   5.834   0.531   5.024  1.6049  1.2547 -0.2885
12861TIP3   OH259997   2.029   1.890  14.299  0.1180 -0.6523 -0.6654
12861TIP3    H159998   1.959   1.879  14.363 -0.0520  0.2386 -0.6969
12861TIP3    H259999   2.089   1.953  14.339 -0.7551  1.0766 -2.0012
12862TIP3   OH260000   3.517   1.801   1.469  0.2173 -0.3445  0.5554
12862TIP3    H160001   3.480   1.843   1.547 -0.8288 -0.1447 -0.0370
12862TIP3    H260002   3.608   1.785   1.492  0.1944  0.6815  1.4399
12863TIP3   OH260003   6.386   4.590   3.570  0.0469 -0.2226  0.4656
12863TIP3    H160004   6.401   4.503   3.534 -0.3765  0.0123 -0.2953
12863TIP3    H260005   6.420   4.586   3.659  0.6370 -0.9688  0.2100
12864TIP3   OH260006   4.437   4.465  12.915  0.0072  0.3512 -0.0378
12864TIP3    H160007   4.376   4.520  12.867 -1.2473 -0.3457  0.7132
12864TIP3    H260008   4.431   4.380  12.872  0.1441  0.1815  0.2780
12865TIP3   OH260009   4.077   0.010   0.839  0.1635 -0.2344 -0.4315
12865TIP3    H160010   4.061  -0.081   0.814 -2.5197  0.5931 -1.9322
12865TIP3    H260011   3.991   0.052   0.834  0.7760  1.6852  3.3340
12866TIP3   OH260012   4.214   5.083  14.544 -0.2539  0.0730 -0.4815
12866TIP3    H160013   4.120   5.080  14.561  0.0585  0.6276  1.4286
12866TIP3    H260014   4.254   5.047  14.623  1.1648  0.6456 -0.9248
12867TIP3   OH260015   0.610   2.854  17.142 -0.1510  0.1211 -0.1677
12867TIP3    H160016   0.629   2.894  17.227 -2.1138 -1.1606  0.9283
12867TIP3    H260017   0.691   2.807  17.119  1.0622  2.0903  0.0265
12868TIP3   OH260018   2.668   0.226   4.541  0.1114 -0.4479  0.2500
12868TIP3    H160019   2.763   0.225   4.531  0.1216  1.2141  0.0305
12868TIP3    H260020   2.645   0.319   4.547 -1.8534 -0.6521 -3.0369
12869TIP3   OH260021   2.286   6.032  11.765  0.2245  0.1298  1.0066
12869TIP3    H160022   2.214   6.056  11.823 -1.0461  1.3680 -1.0253
12869TIP3    H260023   2.353   6.099  11.781 -0.6862  1.2864  0.0685
12870TIP3   OH260024   4.442   6.358  12.063  0.1122 -0.1681  0.0745
12870TIP3    H160025   4.476   6.309  12.138 -0.7272  0.8399  1.1374
12870TIP3    H260026   4.354   6.323  12.049  0.1217 -0.0897 -0.1875
12871TIP3   OH260027   5.455   0.202   4.660  0.1536 -0.0732 -0.4771
12871TIP3    H160028   5.521   0.138   4.635 -0.5046 -1.0832  0.3789
12871TIP3    H260029   5.493   0.247   4.736 -0.3556 -0.9755  0.3051
12872TIP3   OH260030   0.938   2.038  10.542 -0.2660  0.0937  0.0333
12872TIP3    H160031   0.883   2.005  10.471  2.5749 -0.6357 -1.9458
12872TIP3    H260032   0.991   2.106  10.501  0.3731  0.7088  1.8353
12873TIP3   OH260033   6.686   6.141  15.880  0.6504 -0.3913 -0.9721
12873TIP3    H160034   6.708   6.068  15.938  0.2231 -0.1516 -0.5092
12873TIP3    H260035   6.739   6.214  15.912 -0.0549 -0.0890 -0.4919
12874TIP3   OH260036   0.182   4.128  13.522  0.1518  0.0698  0.1310
12874TIP3    H160037   0.141   4.121  13.436 -0.2405  0.3756  0.2880
12874TIP3    H260038   0.215   4.040  13.540  0.1078 -0.0322 -0.2676
12875TIP3   OH260039   6.209   6.260  15.973 -0.4069  0.3515 -0.1351
12875TIP3    H160040   6.167   6.346  15.975  1.6862  1.3972  3.3944
12875TIP3    H260041   6.297   6.276  15.940 -0.1072 -0.4564  0.2469
12876TIP3   OH260042   5.205   4.842   1.317  0.2561  0.0751  0.1522
12876TIP3    H160043   5.250   4.883   1.244 -0.9090  0.8835 -0.1165
12876TIP3    H260044   5.230   4.894   1.394  0.5498 -0.0694  0.1549
12877TIP3   OH260045   0.495   1.049  12.811  0.2186 -0.1475 -0.3035
12877TIP3    H160046   0.449   1.069  12.729  0.2757  0.5917 -0.1541
12877TIP3    H260047   0.436   0.990  12.857 -0.3217  0.3244 -0.3837
12878TIP3   OH260048   5.779   1.444   1.269 -0.0505  0.4300  0.4718
12878TIP3    H160049   5.784   1.354   1.237  0.4023  0.9601 -0.9943
12878TIP3    H260050   5.801   1.438   1.362  2.4323 -0.6673 -0.1372
12879TIP3   OH260051   4.305   5.648   2.347  0.0654  0.0997  0.0026
12879TIP3    H160052   4.305   5.726   2.402 -0.8004  0.7053 -0.8330
12879TIP3    H260053   4.305   5.682   2.257 -0.8364 -0.8534 -0.3789
12880TIP3   OH260054   2.332   3.116  11.945  0.2255  0.3220  0.2696
12880TIP3    H160055   2.392   3.049  11.913  0.1583  0.6378 -0.5363
12880TIP3    H260056   2.390   3.185  11.979  0.3057  0.2811  0.2164
12881TIP3   OH260057   2.750   1.016  11.755  0.4154 -0.0329 -0.1360
12881TIP3    H160058   2.771   1.047  11.666 -0.8682  1.5640  0.1036
12881TIP3    H260059   2.701   0.935  11.741  0.5999 -0.0256 -0.8727
12882TIP3   OH260060   0.686   1.106   2.371  0.0060  0.2276  0.4028
12882TIP3    H160061   0.628   1.161   2.423 -0.4494 -0.7840  0.9743
12882TIP3    H260062   0.677   1.138   2.282 -1.7248 -0.1610  0.4240
12883TIP3   OH260063   5.424   1.559  16.961  0.3842 -0.0448 -0.2142
12883TIP3    H160064   5.411   1.491  16.895 -0.3407 -1.0464  0.9415
12883TIP3    H260065   5.363   1.628  16.936  0.7059 -0.0651 -1.0649
12884TIP3   OH260066   2.427   5.345   4.317 -0.6615 -0.0167  0.7027
12884TIP3    H160067   2.499   5.348   4.253 -0.1701 -1.0947  1.1951
12884TIP3    H260068   2.471   5.335   4.401 -1.2749  2.2912  1.3209
12885TIP3   OH260069   4.087   1.983   3.222 -0.3635  0.9025 -0.0819
12885TIP3    H160070   4.182   1.977   3.224 -0.3259  1.5457  0.3043
12885TIP3    H260071   4.058   1.933   3.298 -0.3196  0.8838 -0.0774
12886TIP3   OH260072   3.336   0.372  13.463 -0.2589 -0.0551 -0.0023
12886TIP3    H160073   3.425   0.375  13.498  0.5495  1.6948 -2.1004
12886TIP3    H260074   3.312   0.464  13.448 -1.5436 -0.6136 -1.5915
12887TIP3   OH260075   5.678   0.699  11.032 -0.1386 -0.4858 -0.1739
12887TIP3    H160076   5.704   0.741  11.114 -0.9262 -0.4639  0.0693
12887TIP3    H260077   5.707   0.760  10.964  2.1370 -1.3346 -0.0331
12888TIP3   OH260078   3.480   5.615   3.624 -0.0076 -0.0174  0.1296
12888TIP3    H160079   3.487   5.566   3.706 -0.4819 -0.8874 -0.3463
12888TIP3    H260080   3.542   5.687   3.634  1.1258 -1.0423  0.5953
12889TIP3   OH260081   1.043   1.836   6.493  0.2507 -0.3793 -0.0287
12889TIP3    H160082   1.022   1.743   6.506  1.0154 -0.6729 -0.7411
12889TIP3    H260083   0.973   1.869   6.437 -0.6698 -0.2187  1.2075
12890TIP3   OH260084   3.139   3.611   4.036  0.0633 -0.2540 -0.0331
12890TIP3    H160085   3.181   3.615   4.122  1.5873  2.2347 -0.8435
12890TIP3    H260086   3.045   3.615   4.055  0.2321 -2.9107  1.6405
12891TIP3   OH260087   4.624   0.553  12.527  0.2350  0.5858 -0.2180
12891TIP3    H160088   4.621   0.600  12.444  0.4763  0.8912 -0.0526
12891TIP3    H260089   4.693   0.488  12.516 -0.6838 -0.3290 -0.7587
12892TIP3   OH260090   5.568   6.315   1.916 -0.0225  0.2524  0.0260
12892TIP3    H160091   5.555   6.259   1.840  0.2014  0.5747 -0.2538
12892TIP3    H260092   5.663   6.328   1.919  0.1045 -0.8729  1.1624
12893TIP3   OH260093   4.730   3.330   5.196  0.0751 -0.1382 -0.3993
12893TIP3    H160094   4.816   3.346   5.235 -0.8048 -1.6164  2.3222
12893TIP3    H260095   4.677   3.405   5.225  0.0940  0.0719 -0.9139
12894TIP3   OH260096   3.748   6.066   3.855 -0.5184  0.2404  0.0678
12894TIP3    H160097   3.827   6.063   3.801  0.2943  2.0980  1.1174
12894TIP3    H260098   3.676   6.065   3.792  0.3661 -0.0491 -0.9522
12895TIP3   OH260099   1.324   4.035   6.262 -0.8800 -0.0052  0.2333
12895TIP3    H160100   1.405   4.061   6.218 -0.3596  0.7521  1.6056
12895TIP3    H260101   1.353   3.981   6.335 -1.7173 -0.9962 -0.1525
12896TIP3   OH260102   3.592   2.040   1.862  0.2946 -0.4980  0.2531
12896TIP3    H160103   3.583   1.952   1.897  3.0105 -0.8937  0.0358
12896TIP3    H260104   3.561   2.033   1.772  0.5457 -1.2541  0.2200
12897TIP3   OH260105   1.050   4.202   5.183 -0.2660 -0.3393  0.3214
12897TIP3    H160106   1.047   4.127   5.124  1.4704  0.5112 -0.8965
12897TIP3    H260107   1.133   4.193   5.229 -1.9948 -1.4669  3.3216
12898TIP3   OH260108   4.374   1.832   3.723 -0.0242 -0.0184  0.0875
12898TIP3    H160109   4.381   1.741   3.752 -0.0083 -0.3653 -0.9913
12898TIP3    H260110   4.403   1.883   3.798  2.9850 -1.0066 -0.3384
12899TIP3   OH260111   1.086   3.986   5.430  0.3812  0.1046 -0.2479
12899TIP3    H160112   1.098   4.077   5.403  0.2555 -0.0766 -0.9263
12899TIP3    H260113   1.149   3.937   5.377  0.4146 -0.2103  0.0833
12900TIP3   OH260114   5.253   6.183  13.918  0.5682  0.1811  0.4671
12900TIP3    H160115   5.312   6.138  13.978  1.1064  0.4043  0.1167
12900TIP3    H260116   5.308   6.248  13.875  0.6270 -1.1572 -1.5679
12901TIP3   OH260117   2.744   3.136   3.813 -0.1145 -0.0621  0.6039
12901TIP3    H160118   2.676   3.196   3.843  0.2646  1.2533 -1.0974
12901TIP3    H260119   2.700   3.051   3.808 -1.9098  0.9524 -1.4380
12902TIP3   OH260120   2.621   6.047   5.767 -0.1849  0.4136  0.2862
12902TIP3    H160121   2.647   5.987   5.837 -1.1189  0.9151  1.0786
12902TIP3    H260122   2.686   6.117   5.770 -0.5608  0.7380  1.0599
12903TIP3   OH260123   0.769   1.287  15.759 -0.0091  0.2173 -0.3895
12903TIP3    H160124   0.683   1.310  15.724 -0.0370 -0.1789 -0.5874
12903TIP3    H260125   0.821   1.266  15.682  0.2826  0.5096 -0.2735
12904TIP3   OH260126   1.751   1.487   1.558  0.2653 -0.0823 -0.1375
12904TIP3    H160127   1.842   1.505   1.581 -0.0742  1.3736  0.1537
12904TIP3    H260128   1.721   1.424   1.623  0.9404 -0.2518  0.0104
12905TIP3   OH260129   1.909   6.310  15.502  0.3833  0.9407 -0.0265
12905TIP3    H160130   1.955   6.394  15.496  0.8386  0.8202  1.6502
12905TIP3    H260131   1.944   6.268  15.581  0.2366 -0.8815 -0.8881
12906TIP3   OH260132   5.436   0.737  11.134  0.4197 -0.6790  0.2614
12906TIP3    H160133   5.401   0.780  11.057  0.0361  2.5900  2.1770
12906TIP3    H260134   5.515   0.692  11.103 -0.3829 -0.4253 -2.2298
12907TIP3   OH260135   3.358   0.514   4.827 -0.2956  0.4556  0.3580
12907TIP3    H160136   3.281   0.464   4.800  0.5670 -0.3464 -0.6488
12907TIP3    H260137   3.345   0.601   4.789 -0.6582  0.2884  0.0953
12908TIP3   OH260138   6.614   5.624   3.173 -0.1469  0.0915 -0.3143
12908TIP3    H160139   6.679   5.560   3.202  0.2274  0.5852 -0.0593
12908TIP3    H260140   6.554   5.574   3.117  0.2427 -0.4426 -0.2545
12909TIP3   OH260141   0.951   5.449   4.903 -0.0421 -0.4899  0.3506
12909TIP3    H160142   0.904   5.428   4.983 -0.6566  2.8955  0.9549
12909TIP3    H260143   0.884   5.479   4.842  0.7363 -0.4659 -0.5167
12910TIP3   OH260144   2.674   3.320  16.959 -0.0115 -0.1698 -0.0108
12910TIP3    H160145   2.585   3.347  16.937 -0.3338 -0.4382  0.9103
12910TIP3    H260146   2.692   3.363  17.043  1.7881  2.1391 -1.5254
12911TIP3   OH260147   4.982   6.560  15.309 -0.0495 -0.2171  0.4008
12911TIP3    H160148   5.004   6.569  15.401  0.5943  0.5032  0.1787
12911TIP3    H260149   4.928   6.636  15.289 -0.0950 -0.3104  0.1559
12912TIP3   OH260150   3.389   5.595  16.240 -0.4795  0.2924 -0.4176
12912TIP3    H160151   3.298   5.595  16.210 -0.3233  1.0779 -0.9053
12912TIP3    H260152   3.384   5.570  16.332 -1.3091  1.6322 -0.0854
12913TIP3   OH260153   0.673   0.398   5.091 -0.3406  0.0511  0.2035
12913TIP3    H160154   0.697   0.474   5.038 -1.3952  1.0114  1.0724
12913TIP3    H260155   0.752   0.378   5.141 -0.0787  0.6180  0.0151
12914TIP3   OH260156   4.618   5.982  16.731  0.5649  0.1237  0.4125
12914TIP3    H160157   4.532   5.973  16.690 -1.0457 -0.7221  3.7898
12914TIP3    H260158   4.671   5.913  16.691 -0.6366 -0.0375 -0.9412
12915TIP3   OH260159   1.989   5.917  11.030 -0.1262 -0.3592  0.2551
12915TIP3    H160160   1.996   5.989  11.093 -0.0267 -0.4997  0.4036
12915TIP3    H260161   1.949   5.845  11.079 -0.0557 -0.4677  0.1547
12916TIP3   OH260162   5.042   4.104  10.740  0.0490 -0.6017  0.4138
12916TIP3    H160163   4.968   4.050  10.712 -0.0375  0.2009 -0.9268
12916TIP3    H260164   5.060   4.162  10.666  1.3895 -0.1092  1.0959
12917TIP3   OH260165   1.302   1.955  12.734 -0.0261  0.2228  0.0741
12917TIP3    H160166   1.229   1.968  12.794 -0.2842  0.8026 -0.3609
12917TIP3    H260167   1.276   1.877  12.683  0.5170 -0.6942  1.1763
12918TIP3   OH260168   3.791   4.382  14.145 -0.1306 -0.1116 -0.0823
12918TIP3    H160169   3.844   4.350  14.072 -0.4618 -1.9064  0.4480
12918TIP3    H260170   3.714   4.325  14.145 -0.3199  0.1306  1.4166
12919TIP3   OH260171   1.285   5.662  13.659 -0.1435 -0.0188 -0.2576
12919TIP3    H160172   1.267   5.751  13.630  1.9148 -0.6464 -3.7199
12919TIP3    H260173   1.228   5.607  13.606 -0.1573 -0.8899  0.6380
12920TIP3   OH260174   1.369   4.695   0.099  0.2151 -0.2019  0.3079
12920TIP3    H160175   1.369   4.601   0.114  0.5918 -0.2084  0.2762
12920TIP3    H260176   1.300   4.729   0.156 -1.4034 -0.7550 -1.2875
12921TIP3   OH260177   3.920   4.872   4.881 -0.5368 -0.1268 -0.4796
12921TIP3    H160178   3.936   4.870   4.786  0.9225  0.8896 -0.2815
12921TIP3    H260179   3.951   4.959   4.908 -0.7355 -0.5023  0.9719
12922TIP3   OH260180   2.420   1.868  15.502 -0.0402 -0.5233 -0.4283
12922TIP3    H160181   2.402   1.825  15.586 -1.3636  0.6922 -0.0682
12922TIP3    H260182   2.515   1.863  15.492  0.0700 -1.2007  0.8535
12923TIP3   OH260183   0.852   4.470  10.761 -0.3852  0.1693  0.2688
12923TIP3    H160184   0.945   4.449  10.755  0.0145  1.4196  1.9670
12923TIP3    H260185   0.815   4.397  10.811 -0.2540 -0.1113 -0.0376
12924TIP3   OH260186   5.770   3.555  16.053 -0.3180 -0.5129 -0.0392
12924TIP3    H160187   5.749   3.636  16.006 -0.1432 -0.0484  0.6739
12924TIP3    H260188   5.685   3.523  16.084 -0.4512 -0.9011 -0.7938
12925TIP3   OH260189   3.614   4.494   1.291  0.1741 -0.1269  0.0875
12925TIP3    H160190   3.602   4.583   1.257 -1.0129  0.3245  1.5962
12925TIP3    H260191   3.530   4.473   1.332  0.7419 -1.6000  0.5239
12926TIP3   OH260192   0.878   2.795   6.209 -0.1814 -0.1516  0.2770
12926TIP3    H160193   0.913   2.706   6.215  0.2104 -0.0270 -0.1268
12926TIP3    H260194   0.789   2.788   6.243 -0.7881 -1.0643 -1.4190
12927TIP3   OH260195   6.453   0.242   2.931  0.0632  0.1609  0.2017
12927TIP3    H160196   6.359   0.257   2.917  0.3710  0.0509 -2.2821
12927TIP3    H260197   6.477   0.178   2.864  1.5567 -1.2055  1.9871
12928TIP3   OH260198   2.921   6.652  17.206 -0.1095 -0.3340  0.0595
12928TIP3    H160199   2.886   6.671  17.118 -0.0958  1.4422  0.4089
12928TIP3    H260200   2.930   6.557  17.209 -0.9452 -0.4734 -1.5533
12929TIP3   OH260201   3.898   1.118   4.832  0.2974 -0.2228 -0.0047
12929TIP3    H160202   3.863   1.047   4.885 -0.3261  1.1074  1.4067
12929TIP3    H260203   3.991   1.097   4.821  0.4512 -0.5101  1.6566
12930TIP3   OH260204   6.155   2.611   3.768 -0.6715  0.1384  0.1357
12930TIP3    H160205   6.071   2.656   3.772 -0.0351  1.4257 -0.6148
12930TIP3    H260206   6.206   2.662   3.705 -0.7194 -2.9669 -2.5436
12931TIP3   OH260207   1.972   1.352  14.221 -0.4186  0.5094 -0.1627
12931TIP3    H160208   1.907   1.336  14.290 -0.0763  0.4939  0.1556
12931TIP3    H260209   1.956   1.443  14.194 -1.5490  0.0327 -1.1210
12932TIP3   OH260210   2.970   6.646   4.572 -0.2399  0.2788 -0.2017
12932TIP3    H160211   2.998   6.652   4.481  1.1047 -1.6267  0.0598
12932TIP3    H260212   3.017   6.718   4.616 -0.3961  0.7998 -0.8874
12933TIP3   OH260213   0.517   4.543  13.638 -0.2089 -0.3810 -0.6224
12933TIP3    H160214   0.479   4.455  13.649 -3.4246  0.7654 -2.0467
12933TIP3    H260215   0.503   4.564  13.546 -0.0038  1.8713 -0.1676
12934TIP3   OH260216   2.355   2.411   3.521  0.2879  0.0580  0.0055
12934TIP3    H160217   2.281   2.442   3.468 -0.2515 -3.3211 -1.2961
12934TIP3    H260218   2.320   2.405   3.610 -0.5029  0.1148 -0.2975
12935TIP3   OH260219   5.646   0.114   5.830 -0.5074  0.4886  0.0609
12935TIP3    H160220   5.630   0.026   5.796  0.2096  0.7591 -0.9867
12935TIP3    H260221   5.569   0.133   5.884 -0.1402 -1.2309  1.2597
12936TIP3   OH260222   3.493   2.838  14.163 -0.6459 -0.3163  0.0403
12936TIP3    H160223   3.448   2.874  14.240 -1.3953  0.1810 -0.6282
12936TIP3    H260224   3.585   2.864  14.175 -1.1812  1.8445 -0.4457
12937TIP3   OH260225   5.427   0.802   4.848 -0.6863 -0.0055  0.4185
12937TIP3    H160226   5.420   0.748   4.769 -0.9674 -1.1711  1.2198
12937TIP3    H260227   5.493   0.867   4.827 -1.9495  0.7509 -1.3831
12938TIP3   OH260228   1.138   3.181   3.299 -0.1128  0.0904 -0.0866
12938TIP3    H160229   1.115   3.169   3.207 -1.1463 -1.1074  0.3129
12938TIP3    H260230   1.181   3.099   3.323 -1.5816 -0.3637  1.0164
12939TIP3   OH260231   3.654   0.384   0.868  0.3147  0.3400  0.1072
12939TIP3    H160232   3.725   0.427   0.819 -0.0406 -0.3081 -0.9909
12939TIP3    H260233   3.695   0.304   0.902 -0.2084 -0.6660 -1.5798
12940TIP3   OH260234   3.454   5.091  14.462  0.4819  0.4448  0.2911
12940TIP3    H160235   3.365   5.126  14.460  0.0452 -0.4147  2.7657
12940TIP3    H260236   3.506   5.154  14.411 -1.1774  1.9821  0.4499
12941TIP3   OH260237   6.015   0.515   1.508  0.2988 -0.2715 -0.8231
12941TIP3    H160238   6.030   0.609   1.495  3.4564 -0.7331 -0.8843
12941TIP3    H260239   6.028   0.477   1.422 -1.4725 -0.7548 -0.9026
12942TIP3   OH260240   4.576   0.369  13.030  0.4541 -0.6891  0.4716
12942TIP3    H160241   4.566   0.378  12.935  1.3334 -1.2993  0.3179
12942TIP3    H260242   4.612   0.453  13.058 -1.7125  0.2344  0.5523
12943TIP3   OH260243   1.986   3.206   2.811  0.3323  0.0962  0.1646
12943TIP3    H160244   1.959   3.279   2.755  1.3854 -1.8020 -2.9698
12943TIP3    H260245   2.073   3.231   2.842  0.2321  0.6692 -0.0080
12944TIP3   OH260246   0.552   3.367  14.723  0.4237 -0.5307 -0.4379
12944TIP3    H160247   0.557   3.426  14.798 -1.3092 -0.5730 -0.2520
12944TIP3    H260248   0.633   3.381  14.675  1.5632 -0.5290  1.4608
12945TIP3   OH260249   2.174   1.753  12.325 -0.4519 -0.2901  0.2139
12945TIP3    H160250   2.191   1.844  12.349  0.5054 -0.8690  1.8064
12945TIP3    H260251   2.244   1.731  12.263 -1.4484  0.4294 -1.2136
12946TIP3   OH260252   0.188   5.880   3.777  0.6375  0.3056 -0.0172
12946TIP3    H160253   0.193   5.802   3.723 -0.0491 -0.2333  0.6884
12946TIP3    H260254   0.279   5.910   3.785  0.7866  0.1648 -1.1217
12947TIP3   OH260255   1.215   3.619  15.317  0.0757  0.1749 -0.4473
12947TIP3    H160256   1.159   3.587  15.246  0.8825 -0.1771 -0.9333
12947TIP3    H260257   1.305   3.607  15.284  0.4614 -0.1656  0.7050
12948TIP3   OH260258   4.694   5.558  10.671  0.0782 -0.3800  0.0076
12948TIP3    H160259   4.774   5.507  10.661  1.1099  0.8920  1.5230
12948TIP3    H260260   4.714   5.642  10.630 -0.6170 -0.1967  0.0435
12949TIP3   OH260261   0.872   6.526   4.839 -0.2676  0.0610  0.0541
12949TIP3    H160262   0.892   6.576   4.918 -0.5503 -0.6007  0.5467
12949TIP3    H260263   0.864   6.436   4.869 -1.7222 -0.0078 -0.4997
12950TIP3   OH260264   2.857   2.951  12.193 -0.1390  0.7039  0.0132
12950TIP3    H160265   2.798   3.014  12.152 -0.4402  0.7718  0.5424
12950TIP3    H260266   2.822   2.940  12.282 -1.5763 -2.1148 -0.8628
12951TIP3   OH260267   1.896   5.946  13.547 -0.0892 -0.0507  0.1122
12951TIP3    H160268   1.912   5.877  13.611 -2.7415  0.3570  1.2676
12951TIP3    H260269   1.845   5.904  13.478  2.2498 -0.3418 -1.4836
12952TIP3   OH260270   2.192   0.277  16.025  0.2020  0.0539 -0.0610
12952TIP3    H160271   2.167   0.361  16.065 -0.2127 -0.8420  1.5962
12952TIP3    H260272   2.118   0.254  15.969 -0.6224 -0.2599  1.1563
12953TIP3   OH260273   5.992   5.464  14.219 -0.0926  0.2985  0.0236
12953TIP3    H160274   5.966   5.554  14.201 -1.0752  0.0621  0.2268
12953TIP3    H260275   6.087   5.466  14.219 -0.0794  0.9693 -1.8660
12954TIP3   OH260276   4.793   4.126   4.054  0.7423 -0.0994 -0.2257
12954TIP3    H160277   4.809   4.220   4.062 -1.5923  0.1634  2.1262
12954TIP3    H260278   4.721   4.109   4.115 -0.2332 -3.0628 -2.0934
12955TIP3   OH260279   2.633   2.344  14.405  0.5682  0.4590 -0.0476
12955TIP3    H160280   2.703   2.387  14.455  3.7638 -1.7458 -2.3869
12955TIP3    H260281   2.593   2.414  14.354  1.6167  1.6372  0.7268
12956TIP3   OH260282   4.104   1.815   4.663 -0.5992  0.7394 -0.0175
12956TIP3    H160283   4.183   1.842   4.710  0.0233  0.1780 -0.7292
12956TIP3    H260284   4.060   1.756   4.723  1.6823 -2.3363 -1.2071
12957TIP3   OH260285   6.015   3.299  14.743  0.0711  0.1235  0.1058
12957TIP3    H160286   6.058   3.284  14.827  0.8695  0.1363 -0.2944
12957TIP3    H260287   5.935   3.346  14.765  0.4801  0.4933  0.8337
12958TIP3   OH260288   1.849   4.539   4.391  0.6624  0.0555  0.4354
12958TIP3    H160289   1.925   4.581   4.350 -0.4068  1.1404 -0.4777
12958TIP3    H260290   1.774   4.572   4.341 -0.4464 -0.6463  1.6232
12959TIP3   OH260291   6.611   4.386   2.615  0.2257  0.4227  0.1590
12959TIP3    H160292   6.580   4.318   2.556 -1.1574 -0.4845  1.9009
12959TIP3    H260293   6.569   4.367   2.699 -0.4690  3.6185  0.5985
12960TIP3   OH260294   4.638   0.681   4.681 -0.1783  0.3856  0.4232
12960TIP3    H160295   4.581   0.610   4.651  0.3082  0.1422  0.0705
12960TIP3    H260296   4.670   0.652   4.766 -0.9671  0.7439  0.8534
12961TIP3   OH260297   1.595   4.616   4.219 -0.4066  0.4975 -0.5127
12961TIP3    H160298   1.556   4.559   4.153  0.4432 -1.5505  0.7275
12961TIP3    H260299   1.528   4.625   4.287  0.0112 -0.2265 -0.0066
12962TIP3   OH260300   0.098   0.283  11.340 -0.3121  0.6481  0.4033
12962TIP3    H160301   0.134   0.196  11.357  1.7850  1.3291 -0.2942
12962TIP3    H260302   0.080   0.319  11.427  2.3868  0.9090  0.9197
12963TIP3   OH260303   5.158   0.570   0.223 -0.2454 -0.0232  0.0166
12963TIP3    H160304   5.100   0.554   0.149  0.1849  1.8947 -0.7699
12963TIP3    H260305   5.214   0.642   0.194  1.5833 -0.8889  1.2813
12964TIP3   OH260306   6.561   2.864   4.158  0.6802  0.1874 -0.8158
12964TIP3    H160307   6.565   2.943   4.212 -1.2312  0.0594 -0.4651
12964TIP3    H260308   6.627   2.806   4.197  0.1069  0.5185  0.7152
12965TIP3   OH260309   5.458   0.684  15.568  0.0824 -0.7666  0.1168
12965TIP3    H160310   5.372   0.685  15.526 -0.5326  1.0264  1.4134
12965TIP3    H260311   5.513   0.739  15.512  0.5916 -2.3481 -1.0181
12966TIP3   OH260312   2.438   3.885   3.208  0.1823  0.4003 -0.4925
12966TIP3    H160313   2.465   3.968   3.246 -0.5896  0.7226 -0.6414
12966TIP3    H260314   2.503   3.866   3.141 -0.6233  1.7724 -1.6881
12967TIP3   OH260315   2.489   4.485   3.498  0.5309 -0.4240  0.2647
12967TIP3    H160316   2.463   4.431   3.423 -0.2524 -0.0026  0.2337
12967TIP3    H260317   2.553   4.547   3.462 -1.7491  1.4830 -0.6377
12968TIP3   OH260318   1.423   3.281  14.631  0.5390  0.2115  0.9062
12968TIP3    H160319   1.369   3.321  14.699 -0.1906  3.6758 -1.5519
12968TIP3    H260320   1.513   3.288  14.664 -0.0509 -1.0922  2.8636
12969TIP3   OH260321   5.551   1.136   1.090 -0.5055  0.6734  0.2211
12969TIP3    H160322   5.472   1.140   1.144 -1.0752 -1.1238 -0.4497
12969TIP3    H260323   5.623   1.153   1.152 -1.2587  0.1667  1.2568
12970TIP3   OH260324   6.605   5.396  15.310  0.1792 -0.2577 -0.1189
12970TIP3    H160325   6.522   5.403  15.264  1.1298  1.2426 -1.6357
12970TIP3    H260326   6.670   5.387  15.241  1.3737 -0.4882  1.0255
12971TIP3   OH260327   1.491   4.505   1.374  0.2004 -0.5015 -0.1717
12971TIP3    H160328   1.536   4.436   1.324  1.1365 -0.3017  0.3812
12971TIP3    H260329   1.553   4.578   1.377  0.4390 -0.7374  1.8174
12972TIP3   OH260330   4.888   2.945   3.200  0.0682 -0.6870  0.0129
12972TIP3    H160331   4.823   3.014   3.194 -0.6954 -1.3749  0.3538
12972TIP3    H260332   4.953   2.968   3.133 -1.1487 -0.6530 -1.1937
12973TIP3   OH260333   3.389   5.156   6.274  0.1514  0.8846  0.7846
12973TIP3    H160334   3.327   5.222   6.306  0.6199 -0.6296  5.1127
12973TIP3    H260335   3.474   5.186   6.305  0.7254 -0.3890  0.4717
12974TIP3   OH260336   5.038   4.956  14.897  0.4826  0.7785  0.3970
12974TIP3    H160337   4.956   4.984  14.937  0.3786 -0.2474  0.9236
12974TIP3    H260338   5.017   4.946  14.804  0.1938  1.1767  0.4162
12975TIP3   OH260339   1.055   5.450  16.980  0.1916  0.1633 -0.2562
12975TIP3    H160340   1.023   5.377  16.926 -1.3854  2.9792 -3.3156
12975TIP3    H260341   0.982   5.469  17.039  0.5143 -0.5123  0.3783
12976TIP3   OH260342   0.592   0.624   4.935 -0.6563 -0.5366 -0.4633
12976TIP3    H160343   0.589   0.613   4.840  0.2822 -0.0874 -0.5443
12976TIP3    H260344   0.636   0.707   4.949 -1.2373 -0.3599  0.3585
12977TIP3   OH260345   2.812   3.985   1.919  0.3442 -0.4935  0.2348
12977TIP3    H160346   2.743   3.939   1.967  0.6252 -0.2845  0.8528
12977TIP3    H260347   2.781   3.990   1.829 -0.6013 -0.0812  0.5822
12978TIP3   OH260348   0.774   4.652   3.406 -0.2807  0.0155  0.4746
12978TIP3    H160349   0.802   4.729   3.457 -0.8053  0.7267 -0.2920
12978TIP3    H260350   0.783   4.579   3.467 -0.5035  0.7915  1.4606
12979TIP3   OH260351   2.828   0.296  13.900 -0.2276 -0.1366 -0.4157
12979TIP3    H160352   2.901   0.322  13.845 -0.2424 -2.5063 -1.6231
12979TIP3    H260353   2.868   0.262  13.980  0.0610 -2.0755 -1.3570
12980TIP3   OH260354   4.837   3.695   3.407  0.2128  0.0021  0.2315
12980TIP3    H160355   4.859   3.781   3.444  0.3910 -0.2217  0.6428
12980TIP3    H260356   4.772   3.714   3.339  0.3527  0.4774  0.2281
12981TIP3   OH260357   3.138   2.752  15.452 -0.0328 -0.9011  0.4957
12981TIP3    H160358   3.057   2.742  15.401 -0.2706 -1.7953  1.0304
12981TIP3    H260359   3.113   2.810  15.524 -0.3711 -1.6771  1.0112
12982TIP3   OH260360   6.271   0.059   4.699 -0.0703 -0.2107  0.1566
12982TIP3    H160361   6.347   0.048   4.757 -0.3889 -1.3924  0.3737
12982TIP3    H260362   6.201   0.008   4.741 -0.4530 -0.6392 -0.9726
12983TIP3   OH260363   4.160   6.036   0.695 -0.1404 -0.3287  0.6543
12983TIP3    H160364   4.101   6.093   0.645  1.9781 -0.3271 -1.9393
12983TIP3    H260365   4.118   5.950   0.692 -2.1933  0.5685  2.6015
12984TIP3   OH260366   4.695   0.003   4.824  0.4432  0.1917 -0.5127
12984TIP3    H160367   4.784   0.006   4.789  0.5688  1.9889 -0.1267
12984TIP3    H260368   4.681   0.091   4.859 -1.7473  0.1506 -1.2376
12985TIP3   OH260369   4.215   1.717   2.271 -0.2515 -0.0556  0.2379
12985TIP3    H160370   4.212   1.636   2.220  1.7174 -0.4211  0.6531
12985TIP3    H260371   4.300   1.755   2.250 -0.9777  1.6914  0.3898
12986TIP3   OH260372   3.654   2.710   4.924  0.2404  0.1828 -0.2487
12986TIP3    H160373   3.725   2.711   4.987  0.6244  0.6117 -0.6867
12986TIP3    H260374   3.656   2.622   4.886  1.3713  0.6150 -1.2037
12987TIP3   OH260375   4.144   2.067   0.856  0.8307  0.0411 -0.3534
12987TIP3    H160376   4.149   2.066   0.760 -0.0603  3.8097 -0.5260
12987TIP3    H260377   4.058   2.029   0.875 -0.1017  1.6470 -1.2208
12988TIP3   OH260378   2.268   0.833   3.788 -0.3511  0.3056  0.5599
12988TIP3    H160379   2.273   0.738   3.777 -0.2433  0.3755 -0.0399
12988TIP3    H260380   2.292   0.848   3.879 -3.2675 -0.4825  1.5264
12989TIP3   OH260381   0.123   2.544  14.029  0.3371 -0.3933 -0.5351
12989TIP3    H160382   0.060   2.524  14.098 -1.0504 -1.1094 -1.9773
12989TIP3    H260383   0.190   2.598  14.072  0.0058 -1.6105  1.5691
12990TIP3   OH260384   3.582   4.769   1.292  0.1648 -0.2486 -0.0932
12990TIP3    H160385   3.522   4.843   1.299 -0.7061 -0.6171 -2.9545
12990TIP3    H260386   3.669   4.808   1.301 -0.2728  1.2185 -1.9742
12991TIP3   OH260387   4.614   5.303  13.968  0.1104  0.0722  0.2187
12991TIP3    H160388   4.530   5.284  13.928 -0.2861 -2.3023  2.0555
12991TIP3    H260389   4.592   5.342  14.053  0.8663 -0.5862  0.7225
12992TIP3   OH260390   2.514   5.105   2.330 -0.0147 -0.3644 -0.4290
12992TIP3    H160391   2.585   5.150   2.284  1.2434 -1.1616  0.6822
12992TIP3    H260392   2.549   5.017   2.347 -2.1745 -1.5689 -1.9845
12993TIP3   OH260393   6.020   4.542  11.548  0.4621  1.2207 -0.0742
12993TIP3    H160394   6.088   4.494  11.596 -1.8085 -0.6960  1.3400
12993TIP3    H260395   6.046   4.536  11.456  0.6571 -2.1439  0.1291
12994TIP3   OH260396   1.569   3.925  15.967  0.0448 -0.2811 -0.4397
12994TIP3    H160397   1.606   3.898  15.883 -1.0431 -1.4439 -0.5608
12994TIP3    H260398   1.622   3.880  16.032 -0.7679 -1.5288 -0.6023
12995TIP3   OH260399   1.331   2.768   0.739  0.0839 -0.5094 -0.0859
12995TIP3    H160400   1.295   2.710   0.807  0.3267 -1.4542 -0.7495
12995TIP3    H260401   1.279   2.749   0.661 -0.9586  1.4135  0.1284
12996TIP3   OH260402   2.962   5.130  11.402  0.2895 -0.6128  0.1406
12996TIP3    H160403   3.015   5.210  11.400 -0.6358  0.0086  0.3539
12996TIP3    H260404   2.990   5.081  11.325  0.1820  0.3494 -0.5143
12997TIP3   OH260405   0.004   1.791   1.087 -0.4409  0.4469 -0.1481
12997TIP3    H160406  -0.058   1.722   1.108  1.4515 -1.1001  0.4602
12997TIP3    H260407   0.029   1.775   0.996 -0.4230  0.6696 -0.1839
12998TIP3   OH260408   0.277   6.254  16.272 -0.1740  0.3852  0.1258
12998TIP3    H160409   0.355   6.233  16.220 -0.2636 -1.1827  0.6081
12998TIP3    H260410   0.233   6.323  16.222  0.2906 -0.3685 -1.3553
12999TIP3   OH260411   4.335   1.758   4.425  0.2513  0.5406 -0.0541
12999TIP3    H160412   4.276   1.686   4.445  0.0608  0.8704  0.5907
12999TIP3    H260413   4.401   1.755   4.494  0.6451  0.5488 -0.4252
13000TIP3   OH260414   1.123   3.444   0.012 -0.1354 -0.5241  0.6507
13000TIP3    H160415   1.138   3.386   0.087 -1.1270 -0.2693  1.0482
13000TIP3    H260416   1.058   3.398  -0.042 -1.2401  0.4066  1.1798
13001TIP3   OH260417   0.040   5.286   4.370 -0.3391  0.5001 -0.1472
13001TIP3    H160418   0.041   5.298   4.275 -1.5174  0.1224 -0.2128
13001TIP3    H260419  -0.053   5.284   4.394 -0.0799 -0.4701  0.8633
13002TIP3   OH260420   3.323   1.567  16.834 -0.3958  0.1786  0.4739
13002TIP3    H160421   3.228   1.575  16.841 -0.6433 -0.6413 -1.6405
13002TIP3    H260422   3.337   1.486  16.785  1.3105  1.5692 -1.4209
13003TIP3   OH260423   3.642   5.177   5.776  0.2966  0.0511  0.0931
13003TIP3    H160424   3.618   5.185   5.684  1.1446  1.3531 -0.0242
13003TIP3    H260425   3.738   5.175   5.776  0.3012 -0.2372  0.9353
13004TIP3   OH260426   4.155   0.313   4.105  0.1967  0.0208 -0.0772
13004TIP3    H160427   4.083   0.263   4.145  0.5134  0.6459  1.2770
13004TIP3    H260428   4.120   0.340   4.020 -0.9678 -0.1727  0.3266
13005TIP3   OH260429   5.474   3.607  14.938 -0.0299  0.0403 -0.2280
13005TIP3    H160430   5.430   3.556  15.006 -1.2484 -0.7168 -1.5671
13005TIP3    H260431   5.503   3.542  14.874  2.4993  0.5864  0.2952
13006TIP3   OH260432   6.780   3.762   1.284 -0.3123 -0.1614 -0.0510
13006TIP3    H160433   6.733   3.831   1.238 -1.8628 -2.0435 -1.4038
13006TIP3    H260434   6.732   3.682   1.263  0.9053 -1.5495  2.1736
13007TIP3   OH260435   2.013   2.442  14.127  0.1591  0.3524  0.2282
13007TIP3    H160436   1.919   2.445  14.107  0.0949  2.1718  0.6753
13007TIP3    H260437   2.018   2.411  14.217  0.1586 -2.4877 -0.7072
13008TIP3   OH260438   1.852   3.657  14.783  0.2098 -0.4801 -0.4165
13008TIP3    H160439   1.931   3.609  14.758  0.5545 -0.4556  0.6266
13008TIP3    H260440   1.883   3.745  14.802 -0.0632 -0.4833  0.0413
13009TIP3   OH260441   0.928   3.235  15.246  0.6448  0.5178 -0.6237
13009TIP3    H160442   0.935   3.191  15.331  0.5331 -0.3773 -1.0730
13009TIP3    H260443   0.870   3.309  15.262 -1.5174 -1.1610 -0.5124
13010TIP3   OH260444   6.592   5.915   5.484  0.1004 -0.0680  0.1253
13010TIP3    H160445   6.537   5.843   5.454 -2.5494  1.8130  0.3622
13010TIP3    H260446   6.623   5.887   5.570 -2.0743 -0.3404  0.8408
13011TIP3   OH260447   0.115   0.428  12.132  0.0218  0.8712 -0.4611
13011TIP3    H160448   0.154   0.398  12.050  1.8736  1.5092  0.1544
13011TIP3    H260449   0.178   0.401  12.199 -0.9681  1.2844  0.6492
13012TIP3   OH260450   6.401   3.976  12.308  0.1730  0.1521 -0.2935
13012TIP3    H160451   6.484   4.000  12.267  0.6646 -1.9818 -0.5853
13012TIP3    H260452   6.381   3.889  12.273 -2.0613  0.5271 -0.0262
13013TIP3   OH260453   1.852   5.712   6.969  0.1951 -0.0996 -0.3641
13013TIP3    H160454   1.831   5.639   7.026  0.7174 -0.4422 -0.5997
13013TIP3    H260455   1.812   5.689   6.885  0.2211 -0.0424 -0.3916
13014TIP3   OH260456   0.969   4.165  14.771  0.6495 -0.2476  0.5600
13014TIP3    H160457   1.062   4.154  14.753  0.3897 -2.4873  0.4547
13014TIP3    H260458   0.944   4.087  14.820 -1.2829  0.1085  0.2032
13015TIP3   OH260459   4.631   0.900   0.432  0.3357 -0.1336  0.0495
13015TIP3    H160460   4.716   0.942   0.416  0.2504  0.1225  0.2637
13015TIP3    H260461   4.641   0.859   0.518  0.0098  0.4873  0.3845
13016TIP3   OH260462   5.251   1.623   1.365  0.1709 -0.2218  0.4382
13016TIP3    H160463   5.172   1.675   1.382  0.0103 -0.6856  1.1203
13016TIP3    H260464   5.323   1.684   1.379 -0.0514  0.1643 -0.0403
13017TIP3   OH260465   0.660   3.512  11.483  0.3167  0.1031 -0.3011
13017TIP3    H160466   0.627   3.592  11.443  0.8799  0.4381 -0.1009
13017TIP3    H260467   0.681   3.536  11.573 -2.3040 -1.0080  0.6598
13018TIP3   OH260468   0.047   6.565   4.182 -0.0866  0.7561  0.0792
13018TIP3    H160469   0.043   6.641   4.124  1.9907  1.7494  1.1712
13018TIP3    H260470  -0.044   6.539   4.194 -0.6481  1.5466 -2.2786
13019TIP3   OH260471   2.357   6.392  14.345 -0.9810  0.5359  0.8314
13019TIP3    H160472   2.414   6.469  14.337  1.0241 -0.9924 -0.0071
13019TIP3    H260473   2.390   6.346  14.421 -0.8166 -0.5900  0.0818
13020TIP3   OH260474   3.062   6.552   1.026 -0.9384 -0.1167 -0.1037
13020TIP3    H160475   3.110   6.634   1.016  0.1363 -0.7797 -0.4639
13020TIP3    H260476   3.002   6.567   1.099 -0.4390  0.8338  0.1125
13021TIP3   OH260477   0.163   5.957  16.907 -0.1013 -0.4789  0.2853
13021TIP3    H160478   0.184   6.049  16.891 -3.6920 -0.0572 -2.6137
13021TIP3    H260479   0.205   5.910  16.835 -1.3898 -0.6359 -0.3846
13022TIP3   OH260480   6.772   3.731  17.231 -0.3289 -0.0292 -0.0740
13022TIP3    H160481   6.685   3.692  17.225  0.2941 -1.2254 -1.8830
13022TIP3    H260482   6.792   3.733  17.325 -2.4596  0.6778  0.3859
13023TIP3   OH260483   0.291   0.782   6.492  0.2439  0.0670  0.7582
13023TIP3    H160484   0.357   0.755   6.556 -0.7853 -1.0908  1.3534
13023TIP3    H260485   0.238   0.704   6.478  0.9922  0.0019 -2.2290
13024TIP3   OH260486   0.559   1.768  16.215  0.3944  0.5707  0.6540
13024TIP3    H160487   0.485   1.824  16.236 -0.0243 -0.3349  1.6725
13024TIP3    H260488   0.586   1.731  16.300  2.2332  1.1624  0.3547
13025TIP3   OH260489   1.357   6.427  15.443 -0.3633  0.1145 -0.0753
13025TIP3    H160490   1.421   6.434  15.372  0.2600  0.4160  0.5060
13025TIP3    H260491   1.387   6.490  15.509 -0.2888 -0.9537  0.9386
13026TIP3   OH260492   4.261   5.634   4.572 -0.0550  0.1272  0.3743
13026TIP3    H160493   4.268   5.599   4.661  1.6454  0.5377  0.4217
13026TIP3    H260494   4.258   5.729   4.583  0.8490  0.2059 -0.0458
13027TIP3   OH260495   2.648   3.287   5.517 -0.7037  0.1882  0.3963
13027TIP3    H160496   2.651   3.309   5.424 -0.3446 -0.0061  0.3599
13027TIP3    H260497   2.678   3.365   5.562  1.7664 -0.6078  0.2079
13028TIP3   OH260498   5.548   6.035  13.275 -0.1282 -0.0760 -0.0868
13028TIP3    H160499   5.580   5.945  13.261 -0.7932 -0.7076  2.1808
13028TIP3    H260500   5.558   6.077  13.190  2.5308 -1.5699 -0.5815
13029TIP3   OH260501   2.207   5.720   2.889  0.5344  0.0188 -0.1216
13029TIP3    H160502   2.281   5.777   2.913  0.5774 -0.8136  1.8905
13029TIP3    H260503   2.133   5.779   2.879  0.7128  0.5188  1.3719
13030TIP3   OH260504   2.187   1.013  16.542  0.2955  0.3748 -0.0322
13030TIP3    H160505   2.223   1.061  16.616 -0.2737 -0.3145  0.6965
13030TIP3    H260506   2.106   1.059  16.521  0.7190  0.8894 -0.5775
13031TIP3   OH260507   5.591   0.203  13.571 -0.3932  0.4561  0.0280
13031TIP3    H160508   5.588   0.296  13.549  1.2453  0.0945 -1.8388
13031TIP3    H260509   5.598   0.201  13.666 -1.9669  2.1870  0.2129
13032TIP3   OH260510   3.747   5.923  12.586  0.0203  0.3779  0.0199
13032TIP3    H160511   3.830   5.933  12.539 -0.3953  1.1258 -0.5656
13032TIP3    H260512   3.692   5.995  12.555 -0.9124 -0.2039  0.2771
13033TIP3   OH260513   6.412   1.460  13.695  0.0590 -0.1749 -0.0633
13033TIP3    H160514   6.378   1.446  13.783  2.3737  0.1051  0.9133
13033TIP3    H260515   6.371   1.391  13.642 -2.4741  0.5709  0.8921
13034TIP3   OH260516   2.438   5.212  17.213 -0.2885 -0.6035 -0.5585
13034TIP3    H160517   2.384   5.286  17.243  2.5992  1.8432 -1.0673
13034TIP3    H260518   2.489   5.187  17.290  0.0691 -0.8108 -0.8619
13035TIP3   OH260519   1.607   5.991  16.404  0.5039  0.2755  0.8301
13035TIP3    H160520   1.633   6.011  16.314  2.5319  1.0004  1.5513
13035TIP3    H260521   1.511   5.994  16.402  0.5241  0.5125 -1.2427
13036TIP3   OH260522   5.861   2.985  12.830 -0.2067  0.5870  0.1231
13036TIP3    H160523   5.774   3.012  12.799 -0.5237 -1.8256 -1.1366
13036TIP3    H260524   5.908   2.960  12.751  0.9517 -0.0684  1.0124
13037TIP3   OH260525   1.356   4.873   1.394  0.4954 -0.4455  0.6234
13037TIP3    H160526   1.300   4.950   1.405  0.9621  0.0230 -0.2417
13037TIP3    H260527   1.369   4.866   1.299  2.0822 -0.4197  0.8275
13038TIP3   OH260528   6.644   2.402  12.738  0.0915  0.5418  0.5980
13038TIP3    H160529   6.646   2.491  12.702 -1.7736  0.2519 -0.3074
13038TIP3    H260530   6.728   2.392  12.783  1.5486  1.7539 -1.7491
13039TIP3   OH260531   1.147   5.802  13.342 -0.3074  0.3100  0.3336
13039TIP3    H160532   1.196   5.776  13.420 -0.3148  1.7217  0.8373
13039TIP3    H260533   1.207   5.859  13.294 -0.0414 -1.1132 -1.0772
13040TIP3   OH260534   6.649   4.712  13.263 -0.4659  0.2544 -0.4780
13040TIP3    H160535   6.642   4.775  13.334 -1.6303  0.1765 -0.5283
13040TIP3    H260536   6.709   4.753  13.200  0.9372  0.1267  0.7362
13041TIP3   OH260537   0.409   0.458  14.122 -0.0660  0.3161  0.3745
13041TIP3    H160538   0.411   0.430  14.213  0.5446  0.6138  0.4524
13041TIP3    H260539   0.458   0.391  14.075 -2.4032 -1.1156 -0.0932
13042TIP3   OH260540   5.761   5.468   5.260  0.3007  0.1504  0.4519
13042TIP3    H160541   5.684   5.497   5.310 -0.1329 -1.4790  0.7515
13042TIP3    H260542   5.742   5.494   5.170 -1.0172 -1.0649  0.3723
13043TIP3   OH260543   4.836   5.446   1.727 -0.2673  0.2666 -0.6415
13043TIP3    H160544   4.775   5.449   1.653 -0.4642 -0.2568 -0.5060
13043TIP3    H260545   4.795   5.384   1.789 -0.2309  0.8950  0.0174
13044TIP3   OH260546   3.402   4.500   5.896 -0.0256  0.3812  0.1252
13044TIP3    H160547   3.348   4.578   5.886 -1.9124 -0.9943 -0.8400
13044TIP3    H260548   3.355   4.446   5.959  0.4266 -0.6461 -0.4031
13045TIP3   OH260549   3.629   0.241  12.794 -0.0298 -0.5269  0.0313
13045TIP3    H160550   3.628   0.302  12.868  0.5677  0.0692 -0.4429
13045TIP3    H260551   3.544   0.197  12.799 -0.2951  0.0303  0.6419
13046TIP3   OH260552   1.257   6.167  16.474  0.5272  0.1584  0.3419
13046TIP3    H160553   1.199   6.183  16.549 -1.5588 -1.8268 -0.7623
13046TIP3    H260554   1.246   6.074  16.455 -0.1555  0.9214 -3.3409
13047TIP3   OH260555   5.981   1.379  12.182 -0.4525  0.3471 -0.0711
13047TIP3    H160556   6.011   1.345  12.098  1.6275  2.1027 -0.0573
13047TIP3    H260557   5.893   1.413  12.164  0.3672  1.6123 -1.7810
13048TIP3   OH260558   6.308   2.982  11.619  0.7819  0.0051 -0.2279
13048TIP3    H160559   6.310   3.005  11.526 -0.1297 -0.9084 -0.4856
13048TIP3    H260560   6.300   2.886  11.619  0.0725  0.0622  0.7761
13049TIP3   OH260561   6.550   6.727   1.186  0.6729 -0.0688 -0.7255
13049TIP3    H160562   6.595   6.776   1.117  0.1958 -0.1196 -1.0724
13049TIP3    H260563   6.615   6.665   1.218  1.4555  1.1271  0.0747
13050TIP3   OH260564   4.241   5.401   0.320 -0.1476 -0.3684 -0.0650
13050TIP3    H160565   4.224   5.488   0.355  1.2465 -0.2430  0.3625
13050TIP3    H260566   4.315   5.369   0.372  1.4992 -0.4711 -2.3993
13051TIP3   OH260567   1.207   4.983   6.538 -0.1176  0.3973 -0.3162
13051TIP3    H160568   1.145   4.926   6.583 -0.3956  1.3842  0.5669
13051TIP3    H260569   1.157   5.062   6.517  0.7304  1.0516  0.0780
13052TIP3   OH260570   4.082   6.160  17.016 -0.5364 -0.2278 -0.1511
13052TIP3    H160571   4.034   6.190  17.093 -1.0543  0.3748 -0.7038
13052TIP3    H260572   4.036   6.080  16.988  0.0249 -0.7937  0.5205
13053TIP3   OH260573   5.867   4.305  12.134 -0.0746  0.6422 -0.1922
13053TIP3    H160574   5.917   4.384  12.151  0.1089  0.2135  1.2677
13053TIP3    H260575   5.934   4.236  12.123 -0.3037  0.2834  0.6571
13054TIP3   OH260576   4.772   3.560   1.327 -0.0789  0.5921 -0.2455
13054TIP3    H160577   4.723   3.560   1.410 -0.5927  1.1810 -0.5404
13054TIP3    H260578   4.723   3.499   1.271 -0.0074  0.5580 -0.2708
13055TIP3   OH260579   3.743   1.644  11.986  0.0656  0.4125 -0.0631
13055TIP3    H160580   3.768   1.552  11.982 -1.9149 -0.2466  2.0658
13055TIP3    H260581   3.820   1.688  12.024  0.9468 -0.3587 -0.9176
13056TIP3   OH260582   4.234   1.297  10.075 -0.2586 -0.2414  0.2697
13056TIP3    H160583   4.289   1.318  10.151  0.5015 -1.6916  0.1292
13056TIP3    H260584   4.246   1.371  10.016  1.5332 -0.5322  0.2502
13057TIP3   OH260585   1.742   0.059  15.366  0.3909  0.5738 -0.1584
13057TIP3    H160586   1.669   0.008  15.329  0.4824  1.8017 -2.0773
13057TIP3    H260587   1.713   0.150  15.362  1.5628  0.9762  0.1660
13058TIP3   OH260588   3.515   0.433   6.431 -0.1172  0.3439 -1.3423
13058TIP3    H160589   3.507   0.524   6.461 -1.5375 -0.4287  0.7145
13058TIP3    H260590   3.609   0.421   6.416 -0.0701  2.6115 -3.2569
13059TIP3   OH260591   3.343   2.819   1.821 -0.2942  0.5592 -0.2602
13059TIP3    H160592   3.374   2.854   1.905  0.3305  1.3247 -0.7993
13059TIP3    H260593   3.290   2.890   1.784 -0.0516  0.4607 -0.7966
13060TIP3   OH260594   0.019   0.798   3.774 -0.1897 -0.5125 -0.3518
13060TIP3    H160595  -0.056   0.855   3.788  0.6791  0.4580  0.4541
13060TIP3    H260596  -0.013   0.710   3.792 -1.3371 -0.2003 -0.8449
13061TIP3   OH260597   5.509   4.076   0.115  0.2182 -0.1010 -0.8656
13061TIP3    H160598   5.441   4.090   0.181  0.5856 -0.4297 -0.4248
13061TIP3    H260599   5.482   3.996   0.070  1.3728 -1.3463  0.6212
13062TIP3   OH260600   2.745   1.415  16.861 -0.1288  0.3179 -0.1222
13062TIP3    H160601   2.822   1.385  16.813  0.4678 -0.2541  1.1775
13062TIP3    H260602   2.776   1.491  16.911 -0.7373  0.8913 -0.6006
13063TIP3   OH260603   4.414   0.114  15.174  0.4430  0.0969  0.0967
13063TIP3    H160604   4.331   0.162  15.177  1.3484  1.7470 -0.9424
13063TIP3    H260605   4.430   0.099  15.081  1.2089 -0.4132  0.3087
13064TIP3   OH260606   4.912   0.059   1.643 -0.1746 -0.0249  0.4833
13064TIP3    H160607   4.965   0.087   1.568  0.3486 -1.0625  0.4593
13064TIP3    H260608   4.828   0.034   1.605  0.2025 -0.8606  0.2085
13065TIP3   OH260609   2.466   6.374   2.343 -0.3351  0.0626  0.4375
13065TIP3    H160610   2.450   6.439   2.411  0.3670  0.9223 -0.1900
13065TIP3    H260611   2.402   6.395   2.275  2.2790  2.5386 -1.4089
13066TIP3   OH260612   6.778   2.622  15.460  0.7205 -0.1132  0.6214
13066TIP3    H160613   6.832   2.560  15.510  1.4226 -1.3227 -1.5581
13066TIP3    H260614   6.823   2.706  15.470  2.7509 -0.9900 -0.6902
13067TIP3   OH260615   4.102   4.219  15.457 -0.1779 -0.6006  0.1282
13067TIP3    H160616   4.062   4.135  15.434  1.2864 -1.1832 -0.3506
13067TIP3    H260617   4.194   4.198  15.471 -0.3566  0.3603  3.1385
13068TIP3   OH260618   5.160   4.372   3.566 -0.2569  0.2770  0.2855
13068TIP3    H160619   5.188   4.336   3.650  0.1775 -1.8223 -0.7294
13068TIP3    H260620   5.207   4.455   3.559 -0.5726  0.6660  2.2579
13069TIP3   OH260621   5.718   6.770  12.578  0.0687 -0.3081  0.6858
13069TIP3    H160622   5.764   6.845  12.616 -0.8078  0.7122 -0.2105
13069TIP3    H260623   5.640   6.760  12.633 -1.0142  0.9400 -0.6002
13070TIP3   OH260624   2.287   5.527   5.290  0.0149  0.0843  0.2731
13070TIP3    H160625   2.317   5.436   5.294 -0.9346 -0.2675 -0.4970
13070TIP3    H260626   2.192   5.521   5.287 -0.0305  1.0661 -0.7344
13071TIP3   OH260627   6.247   5.924   1.411 -0.2960  0.5786  0.3947
13071TIP3    H160628   6.311   5.994   1.399  0.1514  0.0932 -0.0434
13071TIP3    H260629   6.300   5.845   1.425 -0.7892  0.1032 -0.3711
13072TIP3   OH260630   6.413   3.666  12.639 -0.0399 -0.5032  0.3897
13072TIP3    H160631   6.347   3.598  12.651 -0.6798  0.0672  0.1272
13072TIP3    H260632   6.377   3.743  12.682  0.3140 -0.1008 -0.0193
13073TIP3   OH260633   6.110   2.861  11.846  0.0080 -0.1043 -0.3375
13073TIP3    H160634   6.106   2.939  11.901 -0.6977 -1.1454  1.1087
13073TIP3    H260635   6.133   2.894  11.759 -1.5887  1.8748 -0.0508
13074TIP3   OH260636   0.010   5.181   2.878 -0.1901  0.0744  1.2314
13074TIP3    H160637   0.092   5.223   2.902 -0.9270  1.0022  2.1822
13074TIP3    H260638  -0.038   5.172   2.961 -1.8319  1.2696  0.4503
13075TIP3   OH260639   5.807   2.685  11.065  0.3442  0.0834  0.1872
13075TIP3    H160640   5.871   2.737  11.017  1.5801 -0.7267  0.9248
13075TIP3    H260641   5.809   2.599  11.023  0.2794 -0.1637  0.6806
13076TIP3   OH260642   4.143   2.415   4.168 -0.3185  0.2103  0.5187
13076TIP3    H160643   4.109   2.332   4.201  1.3882  0.2404  2.3968
13076TIP3    H260644   4.131   2.477   4.240  1.3280  0.8409  0.2710
13077TIP3   OH260645   0.323   2.950  16.375  0.3306  0.5460  0.1233
13077TIP3    H160646   0.249   2.895  16.349  1.1241 -1.9284  2.8689
13077TIP3    H260647   0.287   3.039  16.376 -1.9868 -0.3462 -0.8290
13078TIP3   OH260648   6.411   3.638   2.157 -0.0677  0.4766 -0.1896
13078TIP3    H160649   6.498   3.667   2.132  0.3013  0.7108  1.2999
13078TIP3    H260650   6.413   3.637   2.253 -1.9283  1.1933 -0.1215
13079TIP3   OH260651   1.645   1.520   3.237 -0.0426  0.0715 -0.5163
13079TIP3    H160652   1.690   1.590   3.284 -1.1784  0.1848  0.4253
13079TIP3    H260653   1.590   1.478   3.303 -1.5911  0.1576 -1.7162
13080TIP3   OH260654   2.289   6.395  16.288 -0.0669  0.5615  0.0877
13080TIP3    H160655   2.228   6.328  16.320  1.9181 -0.9999  0.7055
13080TIP3    H260656   2.287   6.386  16.193  0.6382 -0.8138  0.1928
13081TIP3   OH260657   3.446   3.991   2.222  0.5468  0.0463 -0.4597
13081TIP3    H160658   3.387   4.051   2.176 -0.1885  0.8564  1.5137
13081TIP3    H260659   3.409   3.983   2.310  2.0710 -1.3007  0.0788
13082TIP3   OH260660   1.121   0.512   2.079  0.1142 -0.3123 -0.4336
13082TIP3    H160661   1.216   0.501   2.083  0.0421 -0.4525  0.9160
13082TIP3    H260662   1.108   0.606   2.067  0.3498  0.2956  3.4706
13083TIP3   OH260663   2.181   0.815   4.101  0.2944 -1.0237  0.0004
13083TIP3    H160664   2.164   0.820   4.195 -1.0207 -1.3725 -0.2104
13083TIP3    H260665   2.193   0.722   4.084 -1.5661 -1.1705 -0.5297
13084TIP3   OH260666   0.392   5.718  11.906 -0.0807 -0.1225 -0.3053
13084TIP3    H160667   0.363   5.755  11.823  0.5623  1.2041  0.0473
13084TIP3    H260668   0.313   5.679  11.944 -0.6196  0.3003 -0.9819
13085TIP3   OH260669   1.853   3.214   0.506 -0.3481 -0.0853 -0.0716
13085TIP3    H160670   1.853   3.151   0.578 -1.4000 -1.2403 -1.0774
13085TIP3    H260671   1.857   3.161   0.427  1.1549  1.1890 -0.8830
13086TIP3   OH260672   5.798   5.876  12.877 -0.2077 -0.0052  0.0171
13086TIP3    H160673   5.808   5.936  12.951  0.8763  0.0911 -0.1983
13086TIP3    H260674   5.723   5.912  12.828 -0.1460  0.6485  0.3871
13087TIP3   OH260675   3.511   5.271   0.994  0.1665 -0.3629 -0.5733
13087TIP3    H160676   3.527   5.177   0.989  0.9260 -0.2785  0.1343
13087TIP3    H260677   3.568   5.308   0.928  0.2554 -0.3534 -0.4908
13088TIP3   OH260678   4.647   3.296  12.224 -0.0636 -0.0335  0.5231
13088TIP3    H160679   4.657   3.323  12.315 -0.0405 -1.1961  0.8726
13088TIP3    H260680   4.736   3.281  12.194  0.0490  1.9159 -0.1932
13089TIP3   OH260681   3.838   3.939  11.553 -0.2956  0.3050 -0.0286
13089TIP3    H160682   3.793   3.905  11.476 -2.8613  0.3770  1.3931
13089TIP3    H260683   3.840   4.033  11.540  0.3601  0.2262 -0.5524
13090TIP3   OH260684   2.592   1.559  12.595  0.2667 -0.2208 -0.0641
13090TIP3    H160685   2.567   1.523  12.510 -1.2584 -1.7287  0.9795
13090TIP3    H260686   2.660   1.500  12.628 -0.5473 -0.7994  0.6093
13091TIP3   OH260687   4.677   3.316  16.733  0.1537  0.1236  0.3410
13091TIP3    H160688   4.699   3.356  16.649 -1.4907 -0.1449 -0.2383
13091TIP3    H260689   4.740   3.245  16.743  0.9071  0.6995 -0.2454
13092TIP3   OH260690   3.872   3.480   0.907 -0.3709 -0.5687  0.1226
13092TIP3    H160691   3.924   3.511   0.833 -0.0090 -0.4874  0.4128
13092TIP3    H260692   3.917   3.514   0.984 -2.1311  1.4725  0.2995
13093TIP3   OH260693   5.417   3.667   0.876 -0.1349 -0.6286  0.0009
13093TIP3    H160694   5.446   3.599   0.936 -0.7612 -0.7521  0.1747
13093TIP3    H260695   5.404   3.621   0.793 -0.5873 -0.7311  0.1260
13094TIP3   OH260696   6.686   6.318   2.064  0.2176 -0.4033  0.0785
13094TIP3    H160697   6.622   6.356   2.125 -0.9983 -0.2920 -1.2146
13094TIP3    H260698   6.709   6.391   2.006  1.9918 -0.2932  0.8805
13095TIP3   OH260699   4.513   3.511  11.158 -1.0360 -0.3216 -0.0692
13095TIP3    H160700   4.558   3.474  11.234 -0.5734  0.4512  0.0339
13095TIP3    H260701   4.582   3.522  11.092 -1.2503 -0.0446 -0.2508
13096TIP3   OH260702   1.885   5.068   6.149 -0.9057  0.1752 -0.2430
13096TIP3    H160703   1.801   5.023   6.151 -1.3195  0.8528 -1.5674
13096TIP3    H260704   1.940   5.021   6.212 -1.6386 -1.5131 -0.8494
13097TIP3   OH260705   1.566   3.120  11.755  0.0574  0.1903 -0.0013
13097TIP3    H160706   1.482   3.114  11.710 -0.7176 -0.3705  1.4848
13097TIP3    H260707   1.622   3.058  11.709 -0.3575  0.5052 -0.9482
13098TIP3   OH260708   3.241   5.256   0.372 -0.2365  0.3616 -0.0739
13098TIP3    H160709   3.254   5.342   0.412  0.2948  0.8363 -1.2399
13098TIP3    H260710   3.222   5.275   0.280 -2.1978 -0.6718  0.0899
13099TIP3   OH260711   1.162   1.936  11.623  0.0661 -0.0566 -0.4283
13099TIP3    H160712   1.228   1.895  11.566 -1.0882 -1.3136 -0.8742
13099TIP3    H260713   1.176   1.896  11.709 -0.4078 -0.6480 -0.6266
13100TIP3   OH260714   4.001   4.055   2.108 -0.3679  0.0865 -0.0223
13100TIP3    H160715   3.978   4.139   2.147 -0.4688  0.1887 -0.3056
13100TIP3    H260716   3.974   3.990   2.173 -0.0609  0.2858  0.3023
13101TIP3   OH260717   5.872   1.875   4.671 -0.3022 -0.1371  0.1617
13101TIP3    H160718   5.796   1.826   4.701 -0.3247 -0.5887 -0.6109
13101TIP3    H260719   5.936   1.866   4.741 -0.7515 -0.2434  0.5571
13102TIP3   OH260720   3.525   0.903  16.997 -0.0438 -0.4275  0.1203
13102TIP3    H160721   3.554   0.842  16.929  0.1211  0.7982 -0.9070
13102TIP3    H260722   3.599   0.907  17.058  0.3261 -0.4928 -0.3203
13103TIP3   OH260723   4.120   3.564  16.260  0.3089  0.0804  0.1023
13103TIP3    H160724   4.106   3.537  16.351 -0.0019  0.8244  0.2851
13103TIP3    H260725   4.042   3.617  16.239  0.4791  0.0826 -0.5231
13104TIP3   OH260726   3.501   4.631  15.349  0.4815 -0.0557 -0.0025
13104TIP3    H160727   3.417   4.584  15.349  1.2185 -1.4270  1.4519
13104TIP3    H260728   3.483   4.713  15.302 -1.4619 -0.6965 -0.4151
13105TIP3   OH260729   2.346   3.918  17.116  0.5992 -0.2130 -0.2758
13105TIP3    H160730   2.406   3.857  17.158  1.0485 -1.1387 -2.2201
13105TIP3    H260731   2.343   3.890  17.025 -1.4575  0.8774 -0.5757
13106TIP3   OH260732   0.446   5.568  15.738  0.4431 -0.6655  0.7092
13106TIP3    H160733   0.532   5.527  15.732  1.2302  0.9885  0.4513
13106TIP3    H260734   0.429   5.601  15.650  0.4888  0.8697  1.2683
13107TIP3   OH260735   6.667   0.430  15.811  0.6013  0.6757  0.2839
13107TIP3    H160736   6.618   0.465  15.886  1.8218  1.9180  0.5080
13107TIP3    H260737   6.670   0.335  15.827 -1.3516  0.6142  0.4827
13108TIP3   OH260738   5.831   2.457   4.735  0.3219  0.0017  0.2124
13108TIP3    H160739   5.781   2.450   4.654 -0.1436  0.5486  0.4468
13108TIP3    H260740   5.773   2.421   4.802 -0.0506  1.2865  0.5962
13109TIP3   OH260741   4.605   3.328   3.392  0.2377 -0.3385  0.3144
13109TIP3    H160742   4.678   3.387   3.408  0.2272  0.0020 -0.8538
13109TIP3    H260743   4.538   3.356   3.455 -0.3617  1.9461 -1.2824
13110TIP3   OH260744   5.025   6.318   4.641 -0.0919  0.1040 -0.2541
13110TIP3    H160745   5.037   6.353   4.553  0.4620  0.2867 -0.1021
13110TIP3    H260746   5.060   6.385   4.700 -1.3774  0.4296  0.1627
13111TIP3   OH260747   0.389   3.912   2.226 -0.1276 -0.1534  0.2113
13111TIP3    H160748   0.469   3.868   2.254  0.6585  1.9368  1.4156
13111TIP3    H260749   0.345   3.937   2.307 -1.1049  0.3002 -0.4424
13112TIP3   OH260750   6.567   6.609   3.495 -0.5385 -0.0112  0.0923
13112TIP3    H160751   6.580   6.678   3.560 -1.2882 -0.5132  0.7776
13112TIP3    H260752   6.472   6.605   3.482 -0.5577 -1.3835  0.5803
13113TIP3   OH260753   5.995   5.373  15.806  0.6121 -0.1708 -0.3130
13113TIP3    H160754   6.052   5.372  15.729 -0.6345  2.6928 -1.3308
13113TIP3    H260755   5.908   5.353  15.772  0.1441  0.5648  0.4342
13114TIP3   OH260756   6.417   6.403   1.398  0.4547 -0.0127  0.0798
13114TIP3    H160757   6.348   6.412   1.464  0.8028 -0.3114  0.4890
13114TIP3    H260758   6.378   6.438   1.318  0.9456  2.8615  1.0385
13115TIP3   OH260759   2.287   2.570  16.881 -0.3939 -0.5381  0.2593
13115TIP3    H160760   2.354   2.568  16.950  0.0827 -0.9531 -0.2083
13115TIP3    H260761   2.305   2.651  16.833 -0.0870 -0.7536  0.0052
13116TIP3   OH260762   2.127   2.337   6.128 -0.0457 -0.3649 -0.0800
13116TIP3    H160763   2.180   2.266   6.164 -0.6494 -0.3089  0.9412
13116TIP3    H260764   2.051   2.342   6.186  0.0183  1.1493 -0.0967
13117TIP3   OH260765   3.875   2.419  11.800  0.6595  0.2793 -0.2864
13117TIP3    H160766   3.962   2.459  11.797  1.4483 -1.3284  0.7023
13117TIP3    H260767   3.892   2.324  11.800 -1.0247 -0.0505  1.2571
13118TIP3   OH260768   5.576   1.167  10.225  0.3627  0.0006  0.4116
13118TIP3    H160769   5.552   1.253  10.259 -0.0924  0.7401 -1.6991
13118TIP3    H260770   5.671   1.170  10.217  0.3298  0.3944  0.1420
13119TIP3   OH260771   4.858   4.346   2.043 -1.1525  0.1221  0.1123
13119TIP3    H160772   4.817   4.422   2.002 -2.1484 -0.5611 -0.1553
13119TIP3    H260773   4.790   4.309   2.100 -0.1237  0.4455  1.5833
13120TIP3   OH260774   1.011   0.551   6.206  0.2039  0.1453 -0.6450
13120TIP3    H160775   1.074   0.603   6.156  0.6650  0.4144  0.1939
13120TIP3    H260776   1.065   0.485   6.250 -0.4364 -1.3917 -2.1294
13121TIP3   OH260777   1.392   5.583   3.454 -0.1442  0.1110 -0.4687
13121TIP3    H160778   1.442   5.546   3.526 -1.8909  0.3398  0.9055
13121TIP3    H260779   1.415   5.676   3.454 -1.7319  0.5398  1.2083
13122TIP3   OH260780   2.166   5.873   1.968  0.5033  0.3876  0.1095
13122TIP3    H160781   2.098   5.806   1.979  0.7094  0.0136 -0.8270
13122TIP3    H260782   2.240   5.825   1.930  1.6253  0.6063  1.9673
13123TIP3   OH260783   5.789   5.900  10.313  0.2576  0.1309  0.3101
13123TIP3    H160784   5.818   5.907  10.222  1.5451 -0.5313  0.6474
13123TIP3    H260785   5.807   5.808  10.336 -1.0915  0.0068  0.8875
13124TIP3   OH260786   1.178   1.937   6.019  0.2740 -0.3093 -0.2687
13124TIP3    H160787   1.150   1.966   6.106  0.2551 -0.9292 -0.0636
13124TIP3    H260788   1.185   2.018   5.968  2.2308  0.2885  0.8699
13125TIP3   OH260789   0.778   2.172   4.694 -0.2624 -0.3796  0.4101
13125TIP3    H160790   0.706   2.179   4.757 -0.0858 -0.9718  0.6765
13125TIP3    H260791   0.761   2.091   4.646 -0.0152 -0.2930  0.1744
13126TIP3   OH260792   4.111   3.170  13.927 -0.4553  0.0437 -0.0154
13126TIP3    H160793   4.186   3.199  13.875 -0.0879 -1.3652 -0.2982
13126TIP3    H260794   4.130   3.201  14.016 -0.0179  0.5633 -0.2893
13127TIP3   OH260795   0.181   4.530  15.561  0.3628 -0.0945  0.1215
13127TIP3    H160796   0.154   4.582  15.485  1.5443  0.6961  0.2301
13127TIP3    H260797   0.243   4.586  15.607  0.5911 -1.0662  1.0032
13128TIP3   OH260798   3.802   1.076  16.564 -0.3491 -0.1390  0.5156
13128TIP3    H160799   3.828   1.133  16.492 -0.9313 -0.8899 -0.3004
13128TIP3    H260800   3.790   1.135  16.638 -0.2136  0.6999 -0.1234
13129TIP3   OH260801   4.076   3.068   2.167 -0.2201 -0.3044  0.0235
13129TIP3    H160802   4.045   3.152   2.133 -0.4989  0.0254  1.0553
13129TIP3    H260803   4.033   3.002   2.113  0.2478  0.2249 -0.9984
13130TIP3   OH260804   6.054   5.004  15.480  0.0556 -0.2120  0.7401
13130TIP3    H160805   6.134   5.022  15.528  0.2316 -1.0297  0.7736
13130TIP3    H260806   6.001   4.952  15.541 -0.6141  0.5464  0.8198
13131TIP3   OH260807   0.737   0.557  15.299  0.1207  0.1973 -0.1043
13131TIP3    H160808   0.768   0.631  15.247 -0.0022 -0.3663 -0.9807
13131TIP3    H260809   0.814   0.530  15.350 -0.3062  2.0942  1.6228
13132TIP3   OH260810   0.817   4.016   5.273  0.0426  0.3549  0.5536
13132TIP3    H160811   0.878   4.004   5.199  0.4192 -0.7498  1.0378
13132TIP3    H260812   0.823   4.109   5.293  2.0221  0.1568  0.9643
13133TIP3   OH260813   4.993   2.466  12.086 -0.1832 -0.4499 -0.4681
13133TIP3    H160814   5.040   2.473  12.169  1.3426  0.8435 -1.4192
13133TIP3    H260815   5.016   2.546  12.038 -1.9333 -0.6434 -1.6857
13134TIP3   OH260816   4.587   2.076   4.791 -0.5550 -1.1323 -0.4448
13134TIP3    H160817   4.636   1.996   4.808 -0.8575 -1.3939 -0.7946
13134TIP3    H260818   4.651   2.147   4.802 -0.2565 -1.4272 -0.2710
13135TIP3   OH260819   2.636   1.254  15.428 -0.4448 -0.4599  0.3458
13135TIP3    H160820   2.671   1.338  15.457  1.1549 -1.2406  0.7544
13135TIP3    H260821   2.707   1.192  15.444 -1.4749 -1.8286 -0.2849
13136TIP3   OH260822   2.849   6.236   4.195  0.0557  0.1423  0.1192
13136TIP3    H160823   2.927   6.217   4.143  0.5671  0.5820  0.7137
13136TIP3    H260824   2.883   6.274   4.276 -0.8428  1.9420 -0.3097
13137TIP3   OH260825   2.175   3.581  12.610  0.1500 -0.0917 -0.0579
13137TIP3    H160826   2.214   3.495  12.591 -1.6145 -0.6935 -1.0300
13137TIP3    H260827   2.188   3.631  12.529 -0.1787  0.0468 -0.0245
13138TIP3   OH260828   4.688   4.372  11.950  0.4567  0.3588 -0.0168
13138TIP3    H160829   4.679   4.277  11.960  0.3050  0.3749  0.0111
13138TIP3    H260830   4.613   4.408  11.999  1.8724  0.5896  2.0314
13139TIP3   OH260831   6.585   5.435   1.873 -0.5342 -0.3138  0.0166
13139TIP3    H160832   6.611   5.442   1.965 -0.6676 -0.0458  0.0320
13139TIP3    H260833   6.607   5.520   1.835 -0.2289 -0.5163 -0.2626
13140TIP3   OH260834   2.886   6.552   2.835  0.7370  0.3586 -0.2016
13140TIP3    H160835   2.874   6.502   2.754 -1.1535  0.4392  0.0081
13140TIP3    H260836   2.948   6.621   2.812  1.5260 -0.6257 -1.1131
13141TIP3   OH260837   3.960   2.939  11.727  0.2277 -0.0078  0.0258
13141TIP3    H160838   3.940   3.003  11.795 -0.0959 -1.8146  1.6743
13141TIP3    H260839   4.055   2.926  11.734  0.3645  0.5782 -0.6024
13142TIP3   OH260840   1.735   2.994   1.572 -0.1898  0.0854 -0.4841
13142TIP3    H160841   1.783   2.993   1.655 -0.4760  1.3458 -0.2849
13142TIP3    H260842   1.755   2.910   1.532  1.9890  0.4788 -0.2958
13143TIP3   OH260843   3.050   0.575  15.528 -0.1213 -0.2281 -0.3534
13143TIP3    H160844   3.080   0.664  15.512  1.2634 -0.0243  3.1235
13143TIP3    H260845   2.955   0.583  15.536 -0.2247  0.5666 -2.0253
13144TIP3   OH260846   2.857   6.082   0.453  0.0103  0.0236 -0.0914
13144TIP3    H160847   2.928   6.119   0.401 -0.4086 -0.2872 -0.8894
13144TIP3    H260848   2.788   6.148   0.450  0.4188  0.5190  1.0457
13145TIP3   OH260849   1.605   3.806  15.606  0.5746 -0.1113  0.2406
13145TIP3    H160850   1.611   3.750  15.683  0.3015 -1.3130 -0.6042
13145TIP3    H260851   1.665   3.766  15.542 -1.3792 -0.8297 -1.2025
13146TIP3   OH260852   2.120   1.924   3.147  0.5222 -0.3798 -0.3285
13146TIP3    H160853   2.170   1.843   3.137 -0.1955 -0.8404 -0.2175
13146TIP3    H260854   2.068   1.930   3.067 -0.0167 -0.4330  0.0205
13147TIP3   OH260855   4.716   0.093  10.524 -0.3853  0.2464 -0.2889
13147TIP3    H160856   4.790   0.137  10.482  0.3116 -1.9130 -1.4037
13147TIP3    H260857   4.646   0.158  10.522  1.2774  2.1008  0.1986
13148TIP3   OH260858   1.908   1.121  12.424  0.3637  0.4531  0.9295
13148TIP3    H160859   1.930   1.214  12.428 -0.1719  0.6176  0.1284
13148TIP3    H260860   1.938   1.093  12.338  0.5102 -0.1158  1.1645
13149TIP3   OH260861   1.573   3.683   6.307 -0.2525 -0.1354 -0.1991
13149TIP3    H160862   1.617   3.598   6.300 -0.8277 -0.3949 -0.6326
13149TIP3    H260863   1.603   3.732   6.230  0.7270  0.3579  0.4831
13150TIP3   OH260864   5.079   1.145   5.234 -0.0936 -0.0583  0.3115
13150TIP3    H160865   5.082   1.120   5.326  2.2916 -1.1226 -0.0298
13150TIP3    H260866   5.006   1.095   5.197  0.0917 -1.0160  1.2333
13151TIP3   OH260867   5.384   2.334   2.930  0.1787  0.2103  0.0458
13151TIP3    H160868   5.316   2.401   2.933  0.5580  0.5686  1.3950
13151TIP3    H260869   5.358   2.275   2.860 -1.3216  0.5488  0.3050
13152TIP3   OH260870   3.389   6.364   5.029 -0.2670  0.0771  0.3069
13152TIP3    H160871   3.417   6.452   5.054 -1.0462  0.7072 -0.9724
13152TIP3    H260872   3.314   6.379   4.972 -1.1979 -1.4707  1.1088
13153TIP3   OH260873   1.126   5.379   1.946  0.4574 -0.4088 -0.2263
13153TIP3    H160874   1.141   5.322   1.871  0.5544  0.0723 -0.5744
13153TIP3    H260875   1.030   5.383   1.954  0.4494 -0.5567 -0.2516
13154TIP3   OH260876   3.071   4.924  15.758 -0.4373 -0.2637 -0.0232
13154TIP3    H160877   3.159   4.908  15.792 -0.0357 -1.4827 -1.5838
13154TIP3    H260878   3.079   5.003  15.705 -0.3025 -0.2951 -0.0484
13155TIP3   OH260879   2.819   1.036  11.144 -0.0529 -0.2448  0.1015
13155TIP3    H160880   2.741   1.019  11.090 -0.3051 -0.4095  0.5088
13155TIP3    H260881   2.802   1.121  11.185 -0.7534 -1.0133  1.4458
13156TIP3   OH260882   5.536   0.063   1.982  0.0393  0.7933  0.6847
13156TIP3    H160883   5.559   0.046   1.891 -0.1605  1.0816  0.5805
13156TIP3    H260884   5.617   0.097   2.021  0.3039  0.0848  0.7744
13157TIP3   OH260885   5.147   0.457  11.788 -0.2400 -0.3759  0.1081
13157TIP3    H160886   5.198   0.462  11.706 -0.5391 -1.1835 -0.1309
13157TIP3    H260887   5.211   0.477  11.856  0.4748 -1.6485 -0.1687
13158TIP3   OH260888   1.932   1.360  16.050 -0.0922  0.2226 -0.3896
13158TIP3    H160889   2.002   1.364  16.115 -2.2035  0.7537  1.9212
13158TIP3    H260890   1.926   1.448  16.015 -1.8659  1.1007  1.9551
13159TIP3   OH260891   3.644   2.776   0.010  0.2430  0.5420  0.1401
13159TIP3    H160892   3.625   2.692   0.053  1.0503 -0.0732 -0.6789
13159TIP3    H260893   3.688   2.828   0.078  3.0094 -1.0163 -0.3725
13160TIP3   OH260894   5.765   2.850  15.385 -0.3554  0.0320 -0.0812
13160TIP3    H160895   5.777   2.936  15.425  0.5942 -0.2160  0.1810
13160TIP3    H260896   5.687   2.814  15.428 -1.3356  1.1644 -0.9057
13161TIP3   OH260897   5.657   1.227  12.966  0.1892  0.3923  0.5086
13161TIP3    H160898   5.706   1.199  12.888  1.2326  0.0468  1.2700
13161TIP3    H260899   5.623   1.146  13.003 -0.8012  0.6156  0.0915
13162TIP3   OH260900   1.992   5.442  11.743  0.0316  0.8152  0.9365
13162TIP3    H160901   2.052   5.494  11.691 -0.9606  2.2196  1.1578
13162TIP3    H260902   2.004   5.352  11.712 -0.3690  1.5920 -1.5415
13163TIP3   OH260903   5.121   1.614  12.841 -0.4673  0.6158  0.3613
13163TIP3    H160904   5.214   1.601  12.823  0.2177  2.6579  2.2974
13163TIP3    H260905   5.106   1.570  12.924 -0.6618  2.2766  1.2344
13164TIP3   OH260906   2.898   5.467  17.061 -0.0427 -0.3523 -0.4023
13164TIP3    H160907   2.835   5.440  17.128  0.3419 -2.6473 -0.8970
13164TIP3    H260908   2.847   5.470  16.980 -0.2453  1.2289 -0.2274
13165TIP3   OH260909   4.118   1.022  10.999 -0.0269 -0.4573 -0.2068
13165TIP3    H160910   4.032   1.062  11.010 -0.1796 -0.3844 -1.5505
13165TIP3    H260911   4.176   1.097  10.982  0.4294 -0.4429  1.3348
13166TIP3   OH260912   6.757   4.323  11.910 -0.0392 -0.0767 -0.3515
13166TIP3    H160913   6.662   4.325  11.896  0.0396  1.7978 -0.7012
13166TIP3    H260914   6.778   4.230  11.914 -1.8750 -0.5201 -0.4058
13167TIP3   OH260915   4.360   3.479   2.341 -0.2844  0.3588  0.3603
13167TIP3    H160916   4.352   3.485   2.246 -2.0558  1.8168  0.5723
13167TIP3    H260917   4.368   3.385   2.359  0.2332  0.0823 -1.2247
13168TIP3   OH260918   3.469   6.079   1.046 -0.0889 -0.1404  0.2193
13168TIP3    H160919   3.474   6.169   1.079 -0.8484 -0.6296  1.7561
13168TIP3    H260920   3.416   6.085   0.967  0.6378  0.9011 -0.1842
13169TIP3   OH260921   4.560   5.799   5.830  0.0679  0.4888 -0.5649
13169TIP3    H160922   4.528   5.879   5.870  0.2291  1.1056 -1.6696
13169TIP3    H260923   4.631   5.771   5.888 -0.4969  0.7153  0.2478
13170TIP3   OH260924   0.682   1.446   1.584 -0.2780 -0.0570 -0.2129
13170TIP3    H160925   0.684   1.536   1.553 -1.6180 -0.6783 -2.2179
13170TIP3    H260926   0.623   1.401   1.523  1.2710 -2.5377  0.0440
13171TIP3   OH260927   3.380   2.574   0.330  0.1837  0.1792  0.0279
13171TIP3    H160928   3.413   2.552   0.243 -0.0624 -1.2550  0.2728
13171TIP3    H260929   3.299   2.622   0.314  0.1437 -0.0736 -0.5388
13172TIP3   OH260930   2.304   6.130  15.842 -0.0500 -0.0038  0.2354
13172TIP3    H160931   2.375   6.083  15.886  0.3197  0.4555  0.1292
13172TIP3    H260932   2.332   6.137  15.751 -0.1146  0.3960  0.2450
13173TIP3   OH260933   4.038   4.802   5.729  0.1036 -0.4486  0.0821
13173TIP3    H160934   4.048   4.860   5.654 -2.0946  1.4178  1.1893
13173TIP3    H260935   3.954   4.759   5.716 -0.4174  0.0770  1.5562
13174TIP3   OH260936   3.862   0.336   1.427 -0.0853  0.0875 -0.5352
13174TIP3    H160937   3.876   0.241   1.420 -0.6681  0.0550 -1.3284
13174TIP3    H260938   3.939   0.368   1.473  1.9219 -0.2706 -3.5579
13175TIP3   OH260939   5.772   6.541  10.744 -0.2217 -0.4183  0.0685
13175TIP3    H160940   5.778   6.606  10.674  2.5658 -2.7340 -1.9987
13175TIP3    H260941   5.829   6.574  10.813  0.9848 -0.5263 -0.8678
13176TIP3   OH260942   5.768   4.522   1.732  0.0204 -0.5030  0.1806
13176TIP3    H160943   5.774   4.602   1.784  1.7641 -0.3493 -0.2410
13176TIP3    H260944   5.762   4.552   1.642  1.3376 -0.8462 -0.0330
13177TIP3   OH260945   5.869   1.509   1.978 -0.0359  0.0542 -0.5558
13177TIP3    H160946   5.851   1.550   2.063  2.6376  1.5282 -0.6642
13177TIP3    H260947   5.901   1.422   2.001 -1.1659 -0.2670 -0.1453
13178TIP3   OH260948   4.248   4.175  10.846 -0.2150  0.7039 -0.0814
13178TIP3    H160949   4.165   4.135  10.873  0.0165  0.4850  0.3205
13178TIP3    H260950   4.291   4.107  10.794 -0.1965  0.7395 -0.1111
13179TIP3   OH260951   3.475   1.913   0.314  0.0561  0.0796  0.1434
13179TIP3    H160952   3.567   1.898   0.340  0.5570  1.5116 -0.7632
13179TIP3    H260953   3.447   1.986   0.369 -0.1558  0.4513 -0.4616
13180TIP3   OH260954   2.296   2.214  16.851  0.3149 -0.1271  0.6892
13180TIP3    H160955   2.361   2.242  16.915 -1.0533 -1.5426  2.7501
13180TIP3    H260956   2.268   2.295  16.809  1.9157  0.7188  1.1789
13181TIP3   OH260957   1.353   2.066  16.501  0.5464  0.7173  0.8359
13181TIP3    H160958   1.340   2.146  16.451  0.0613  0.5503  0.6972
13181TIP3    H260959   1.325   1.996  16.442 -1.7649  0.6354  1.9823
13182TIP3   OH260960   0.028   2.335   4.692 -0.1051 -0.6207  0.6348
13182TIP3    H160961   0.084   2.292   4.756 -0.3008 -0.1227  1.1422
13182TIP3    H260962   0.083   2.342   4.614 -0.3733 -2.6287  0.2331
13183TIP3   OH260963   0.839   5.709  11.686 -0.2256 -0.0002  0.2124
13183TIP3    H160964   0.751   5.680  11.663 -0.0611 -0.1659 -0.2220
13183TIP3    H260965   0.828   5.799  11.715 -0.3326  0.5008 -1.3242
13184TIP3   OH260966   1.847   6.448   1.098  0.2367 -0.3719  0.0052
13184TIP3    H160967   1.904   6.525   1.091 -0.2236  0.0496  0.8495
13184TIP3    H260968   1.786   6.456   1.025  1.1957 -0.7661 -0.8401
13185TIP3   OH260969   1.366   1.797  12.077  0.1645  0.2747  0.4703
13185TIP3    H160970   1.374   1.882  12.035 -0.6585  1.2312  2.2402
13185TIP3    H260971   1.402   1.809  12.165  2.4464 -1.8635 -0.0924
13186TIP3   OH260972   1.890   2.690   3.398 -0.1048 -0.6059 -0.0318
13186TIP3    H160973   1.829   2.677   3.326  0.6126  0.3501 -0.8198
13186TIP3    H260974   1.871   2.778   3.430  0.4011 -0.5661  0.1635
13187TIP3   OH260975   4.567   5.113   5.486  0.5879  0.0133 -1.0231
13187TIP3    H160976   4.572   5.060   5.406 -0.3141 -1.3385 -0.2080
13187TIP3    H260977   4.573   5.050   5.557  3.1378  1.3843  0.0167
13188TIP3   OH260978   2.282   4.695   0.271 -0.7554  0.0478 -0.6871
13188TIP3    H160979   2.221   4.655   0.209 -3.0432  1.8550  0.3342
13188TIP3    H260980   2.289   4.786   0.242 -0.1301  0.3551  0.4239
13189TIP3   OH260981   2.584   4.149   2.157 -0.4886  0.2944 -0.7301
13189TIP3    H160982   2.498   4.107   2.146 -0.0893 -1.2057  1.5753
13189TIP3    H260983   2.638   4.109   2.088 -1.2789  0.2958 -1.3669
13190TIP3   OH260984   3.369   5.547   4.436 -0.5231 -0.0705 -0.5083
13190TIP3    H160985   3.369   5.625   4.381  0.1004  0.1539 -0.1863
13190TIP3    H260986   3.444   5.558   4.495 -0.6501 -0.7333 -0.2139
13191TIP3   OH260987   3.278   4.145  11.332  0.0348 -0.2356  0.1634
13191TIP3    H160988   3.298   4.098  11.250  1.6966 -0.1936  0.5339
13191TIP3    H260989   3.358   4.193  11.352 -0.5093  0.0686  1.6215
13192TIP3   OH260990   0.971   6.541  16.404 -0.2022 -0.1351 -0.2726
13192TIP3    H160991   0.972   6.486  16.325  0.3526 -0.2241 -0.2074
13192TIP3    H260992   0.888   6.589  16.399 -0.5963 -0.8313 -0.4304
13193TIP3   OH260993   4.120   1.255  13.994 -0.1419  0.0507 -0.6939
13193TIP3    H160994   4.066   1.276  14.070 -0.0800  1.0740 -0.9141
13193TIP3    H260995   4.195   1.207  14.029 -0.7523 -0.5881 -0.2754
13194TIP3   OH260996   4.736   3.660  11.258 -0.3133  0.6590 -0.0091
13194TIP3    H160997   4.788   3.676  11.337 -0.5949 -0.0621  0.3342
13194TIP3    H260998   4.648   3.690  11.281 -0.1295  1.5632 -0.4699
13195TIP3   OH260999   1.044   6.468  14.268 -0.3723 -0.2396  0.5499
13195TIP3    H161000   1.016   6.448  14.357  0.3837 -0.0060  0.8393
13195TIP3    H261001   0.964   6.459  14.215 -0.8974 -0.0257  1.3025
13196TIP3   OH261002   0.979   1.628  11.688  1.0363 -0.4868 -0.1595
13196TIP3    H161003   0.988   1.689  11.614 -0.7253 -0.3389 -0.2689
13196TIP3    H261004   1.002   1.681  11.765 -0.7749  0.4312 -0.2237
13197TIP3   OH261005   4.944   6.156  15.985 -0.1718 -0.0032 -0.0496
13197TIP3    H161006   4.882   6.118  16.047  0.4963 -1.3872 -0.2077
13197TIP3    H261007   5.010   6.198  16.040 -0.1602 -0.2864  0.1515
13198TIP3   OH261008   1.438   4.974  13.607 -0.6654  0.4422 -0.5822
13198TIP3    H161009   1.366   5.001  13.550 -0.4220 -0.0657 -1.1477
13198TIP3    H261010   1.396   4.932  13.682 -0.9402 -0.6860 -1.3506
13199TIP3   OH261011   5.799   3.998   2.030  0.0203 -0.3603  0.2902
13199TIP3    H161012   5.832   3.968   1.945  0.1745  0.6132  0.0019
13199TIP3    H261013   5.717   4.043   2.009 -1.8232 -3.2277  1.0573
13200TIP3   OH261014   3.308   3.471  10.772 -0.0985 -0.3603  0.1824
13200TIP3    H161015   3.313   3.478  10.677  2.0814  0.7803  0.3501
13200TIP3    H261016   3.302   3.377  10.789 -1.7425 -0.5040 -1.1146
13201TIP3   OH261017   4.696   4.805  15.547 -0.0163  0.6323 -0.4933
13201TIP3    H161018   4.679   4.730  15.490  0.9688  0.4277 -0.5369
13201TIP3    H261019   4.615   4.856  15.545  0.0261  0.6771 -2.1646
13202TIP3   OH261020   1.118   1.733  15.368 -0.0708  0.2852 -0.5074
13202TIP3    H161021   1.052   1.690  15.423  0.2416  1.8354  1.1333
13202TIP3    H261022   1.200   1.692  15.394  0.3956  2.6117  1.9484
13203TIP3   OH261023   2.438   2.756  14.942 -1.0064  0.5395  0.5633
13203TIP3    H161024   2.428   2.851  14.942  0.9427  0.7783 -0.8283
13203TIP3    H261025   2.519   2.740  14.989 -0.3696 -0.3004 -0.7873
13204TIP3   OH261026   6.229   0.817   3.966 -0.1231  0.6013 -0.0281
13204TIP3    H161027   6.154   0.758   3.979  0.5028  0.4025  3.0420
13204TIP3    H261028   6.221   0.845   3.875 -3.3674 -0.1938 -0.0759
13205TIP3   OH261029   4.192   6.415  15.345 -0.6547  0.3265 -0.9853
13205TIP3    H161030   4.248   6.346  15.381 -2.2750 -0.7323 -0.4474
13205TIP3    H261031   4.248   6.462  15.283  1.4366  0.5822  1.0529
13206TIP3   OH261032   4.034   1.076   4.358 -0.1779 -0.2831  0.0284
13206TIP3    H161033   3.982   1.035   4.427  0.3889  0.3805  0.8673
13206TIP3    H261034   3.969   1.114   4.299 -0.6783  1.7957  1.8437
13207TIP3   OH261035   4.590   4.143  16.724 -0.2221  0.4495  0.1037
13207TIP3    H161036   4.642   4.069  16.757 -0.2405  2.1522  4.1511
13207TIP3    H261037   4.654   4.198  16.679  0.2888 -0.6039 -0.5028
13208TIP3   OH261038   1.147   1.181  15.323  0.7545  0.1285 -0.9873
13208TIP3    H161039   1.139   1.123  15.248  2.7932  1.1618 -2.0199
13208TIP3    H261040   1.153   1.269  15.285  1.4791  0.6914  0.3961
13209TIP3   OH261041   4.629   3.238  15.484  0.3958  0.4735  0.2342
13209TIP3    H161042   4.652   3.298  15.555  0.5683  0.5659  0.0999
13209TIP3    H261043   4.568   3.288  15.429  0.3402  0.4370  0.2609
13210TIP3   OH261044   3.269   1.766   3.333 -0.3316 -0.2470  0.3200
13210TIP3    H161045   3.233   1.689   3.377  0.2375 -0.0244  1.1890
13210TIP3    H261046   3.232   1.764   3.245 -3.4540  0.6649  1.5619
13211TIP3   OH261047   0.193   4.155   5.240 -0.3086 -0.0503  0.0604
13211TIP3    H161048   0.197   4.127   5.331 -0.5983 -0.5363 -0.0781
13211TIP3    H261049   0.148   4.240   5.243  1.2447  0.7752  0.5535
13212TIP3   OH261050   4.693   0.616  14.354 -0.3894  0.1365 -0.2567
13212TIP3    H161051   4.638   0.612  14.432 -0.0045 -0.6562 -0.0196
13212TIP3    H261052   4.678   0.532  14.309  0.9837 -0.2895  0.0625
13213TIP3   OH261053   0.838   1.691  16.114 -0.1575 -0.2208  0.4733
13213TIP3    H161054   0.879   1.609  16.086  1.2982  2.3545 -5.7575
13213TIP3    H261055   0.744   1.674  16.107  0.0983 -1.7584  0.5576
13214TIP3   OH261056   1.877   1.120  16.315 -0.2882 -0.2089  0.5541
13214TIP3    H161057   1.820   1.152  16.385 -3.0220  0.2318 -1.7668
13214TIP3    H261058   1.842   1.034  16.293  0.4450 -0.2825 -0.3503
13215TIP3   OH261059   6.563   0.839   2.144 -0.3485  0.4113  0.3897
13215TIP3    H161060   6.594   0.883   2.223 -0.0453  1.8852 -0.5365
13215TIP3    H261061   6.599   0.890   2.071 -2.7287  0.6027 -0.7212
13216TIP3   OH261062   3.655   3.452  11.225  0.1112  0.5006 -0.1633
13216TIP3    H161063   3.626   3.497  11.145 -1.5303 -1.1800 -0.5507
13216TIP3    H261064   3.750   3.462  11.224 -0.0965  2.8148 -0.8967
13217TIP3   OH261065   1.947   6.223   3.207  0.3922  0.0029 -0.3495
13217TIP3    H161066   1.988   6.194   3.125 -1.1391 -1.0597 -0.7580
13217TIP3    H261067   1.917   6.142   3.248 -3.6172  0.9209 -1.2906
13218TIP3   OH261068   5.112   6.181   5.465 -0.5245  0.5065 -0.7346
13218TIP3    H161069   5.022   6.167   5.437 -0.0818  1.5092 -2.7880
13218TIP3    H261070   5.154   6.225   5.390  1.3768  1.0338  0.5908
13219TIP3   OH261071   3.020   4.655   4.719  0.3506  0.0669  0.0440
13219TIP3    H161072   3.107   4.646   4.758 -0.4615 -1.3223  1.6304
13219TIP3    H261073   3.035   4.699   4.635  2.6331 -0.7067  0.0147
13220TIP3   OH261074   3.364   0.836  16.709 -0.0209  0.1264  0.1166
13220TIP3    H161075   3.312   0.856  16.787  1.0399  1.9596  0.3734
13220TIP3    H261076   3.434   0.779  16.741  0.8067  1.4160  0.6602
13221TIP3   OH261077   4.571   5.309  10.690  0.3003  0.7926  0.1301
13221TIP3    H161078   4.481   5.311  10.656  0.1593 -1.4767  0.3362
13221TIP3    H261079   4.595   5.402  10.697 -1.5287  1.4014 -1.2064
13222TIP3   OH261080   2.405   0.714   3.138  0.0375 -0.3834  0.2828
13222TIP3    H161081   2.429   0.647   3.074  1.6248  0.9395 -0.5688
13222TIP3    H261082   2.330   0.759   3.098  0.1545 -0.4505 -0.0175
13223TIP3   OH261083   3.605   3.933   2.923  0.3829 -0.4747 -0.8217
13223TIP3    H161084   3.574   3.864   2.864  0.5032  0.6394 -2.2038
13223TIP3    H261085   3.700   3.922   2.924  0.2807 -1.3979  0.3195
13224TIP3   OH261086   4.574   5.498  16.752  0.6211 -0.4810 -0.2216
13224TIP3    H161087   4.517   5.555  16.699 -1.0636 -0.6370  1.3891
13224TIP3    H261088   4.645   5.556  16.781  0.8923 -0.0969 -1.5791
13225TIP3   OH261089   2.685   4.655  13.415  0.4644  0.8414  0.1003
13225TIP3    H161090   2.615   4.683  13.474 -0.3050  0.3741 -0.5752
13225TIP3    H261091   2.644   4.588  13.360  0.4586  2.9243 -2.5585
13226TIP3   OH261092   4.878   2.413  13.119  0.0896  1.2334 -0.4975
13226TIP3    H161093   4.793   2.444  13.087 -0.3178  1.5349  0.8556
13226TIP3    H261094   4.893   2.462  13.200  0.4652 -0.4665  0.4994
13227TIP3   OH261095   6.720   4.630   1.315 -0.7665 -0.0991  0.5554
13227TIP3    H161096   6.814   4.633   1.335 -0.9957 -2.0852  2.1089
13227TIP3    H261097   6.698   4.720   1.292  1.6111  0.3161 -0.2583
13228TIP3   OH261098   0.536   4.240   3.792  0.0951  0.4864 -0.2689
13228TIP3    H161099   0.534   4.327   3.831  0.0305 -0.2633  1.4716
13228TIP3    H261100   0.625   4.231   3.758  0.4317  0.8556  0.4925
13229TIP3   OH261101   4.789   1.762   1.959 -0.0781  0.5056 -0.0745
13229TIP3    H161102   4.714   1.719   1.918  0.0359  0.9265 -0.7274
13229TIP3    H261103   4.865   1.723   1.915  0.1362 -0.6219  1.2503
13230TIP3   OH261104   1.126   5.560   5.473  0.4554 -0.3808  0.2683
13230TIP3    H161105   1.130   5.523   5.384  0.8962 -0.3434  0.2682
13230TIP3    H261106   1.130   5.483   5.530 -3.8934 -0.7321  0.2538
13231TIP3   OH261107   0.321   5.047  11.403  0.0285 -0.0842 -0.3224
13231TIP3    H161108   0.262   5.084  11.337 -0.1653  0.3244  0.0781
13231TIP3    H261109   0.395   5.012  11.353  0.3541  1.1051 -0.6909
13232TIP3   OH261110   4.347   5.177  16.108 -0.1891  0.0844 -0.1764
13232TIP3    H161111   4.410   5.133  16.052  1.1086 -0.3203  1.5371
13232TIP3    H261112   4.388   5.176  16.195 -1.8272  1.2906  0.6394
13233TIP3   OH261113   3.431   4.555   4.698  0.2265 -0.0558  0.2986
13233TIP3    H161114   3.374   4.610   4.752  0.9367 -0.2486  1.2754
13233TIP3    H261115   3.480   4.502   4.762 -2.1993 -3.6168 -0.6710
13234TIP3   OH261116   3.512   2.598  15.429  0.2040 -0.0487  0.4249
13234TIP3    H161117   3.485   2.553  15.349  2.2295  0.1597 -0.4110
13234TIP3    H261118   3.433   2.599  15.484 -1.9226  2.0546 -2.5644
13235TIP3   OH261119   2.500   1.917  11.694  0.2386  0.5635  0.1353
13235TIP3    H161120   2.430   1.879  11.641 -0.2125  0.0486  1.1025
13235TIP3    H261121   2.456   1.949  11.773  1.3715 -1.4968  1.6321
13236TIP3   OH261122   4.709   2.743   4.292 -0.2120  0.4776 -0.3760
13236TIP3    H161123   4.714   2.811   4.359 -1.6340 -0.0484  0.2895
13236TIP3    H261124   4.777   2.767   4.229  1.2127  0.9445  1.2738
13237TIP3   OH261125   2.595   2.196   3.597  0.4856 -0.2418  0.1883
13237TIP3    H161126   2.557   2.135   3.534  1.1391  0.8785 -1.3366
13237TIP3    H261127   2.521   2.248   3.629  0.5512  1.3286 -2.0909
13238TIP3   OH261128   2.018   6.536  12.183  0.0305 -0.3737  0.2673
13238TIP3    H161129   2.023   6.548  12.278  0.2095 -0.6959  0.3033
13238TIP3    H261130   1.989   6.620  12.149 -1.2495 -0.6305  0.7133
13239TIP3   OH261131   2.672   6.538   5.906 -0.2188  0.4093  0.2759
13239TIP3    H161132   2.660   6.525   6.000 -0.5904  0.6135  0.2572
13239TIP3    H261133   2.625   6.619   5.887  0.5647  0.8116  0.0656
13240TIP3   OH261134   0.428   2.397  12.023 -0.1578 -0.6237 -0.4429
13240TIP3    H161135   0.407   2.456  12.096 -1.1557  0.2698 -1.4251
13240TIP3    H261136   0.344   2.357  12.000 -0.1501  0.3124 -2.1336
13241TIP3   OH261137   0.373   6.217   5.026 -0.6401  0.6733  0.1490
13241TIP3    H161138   0.403   6.239   4.937  0.2845  0.9923  0.5410
13241TIP3    H261139   0.312   6.288   5.048 -0.8537  0.6083 -0.2186
13242TIP3   OH261140   1.131   1.700   1.168  0.2229 -0.0509 -0.0406
13242TIP3    H161141   1.143   1.788   1.202  0.2441 -0.1702  0.2668
13242TIP3    H261142   1.122   1.711   1.073  0.9467  0.2130 -0.0816
13243TIP3   OH261143   0.376   4.460  13.395  0.9424 -0.4689  0.1776
13243TIP3    H161144   0.374   4.519  13.319 -0.1399 -0.5786  0.1073
13243TIP3    H261145   0.296   4.481  13.444  0.4599 -1.9582  0.0761
13244TIP3   OH261146   2.185   2.126  14.444 -0.7802 -0.5209  0.2366
13244TIP3    H161147   2.277   2.103  14.438 -0.8870 -0.8929 -0.0111
13244TIP3    H261148   2.180   2.190  14.515 -0.4560 -1.1707  0.8512
13245TIP3   OH261149   0.649   1.929  15.173  0.3809 -0.7454 -0.6439
13245TIP3    H161150   0.691   1.860  15.122  0.0447 -1.6839  0.3236
13245TIP3    H261151   0.700   1.933  15.254 -0.7691 -1.1731  0.1012
13246TIP3   OH261152   0.723   6.483   0.196 -0.0592 -0.7200 -0.3638
13246TIP3    H161153   0.751   6.564   0.154  1.0275 -1.5323 -1.2193
13246TIP3    H261154   0.785   6.469   0.267 -0.5283 -0.5587  0.0832
13247TIP3   OH261155   2.517   3.037   2.195 -0.0305  0.2188  0.3261
13247TIP3    H161156   2.470   2.997   2.268 -0.3323 -0.4506 -0.2279
13247TIP3    H261157   2.609   3.025   2.216 -0.1019 -3.1365 -1.0970
13248TIP3   OH261158   6.581   4.796  16.752 -0.0462 -0.0429 -0.4406
13248TIP3    H161159   6.654   4.764  16.804 -1.4043 -1.5175  0.6128
13248TIP3    H261160   6.540   4.717  16.715 -1.1376  0.7359 -0.9436
13249TIP3   OH261161   3.892   2.779   0.961 -0.6416 -0.3810 -0.2747
13249TIP3    H161162   3.819   2.830   0.926 -0.4684 -0.1608 -0.3158
13249TIP3    H261163   3.959   2.782   0.892 -0.4056 -0.1703 -0.0385
13250TIP3   OH261164   3.602   5.822   1.718  0.0746 -0.1907  0.2937
13250TIP3    H161165   3.685   5.783   1.745  0.0471 -0.3189  0.1955
13250TIP3    H261166   3.570   5.764   1.649  0.0303  0.0037  0.1499
13251TIP3   OH261167   1.182   6.240   5.950  0.3646 -0.3669 -0.4069
13251TIP3    H161168   1.267   6.210   5.981  0.2463  0.9071  1.2402
13251TIP3    H261169   1.123   6.166   5.966  0.3658  0.1560  2.2158
13252TIP3   OH261170   6.768   1.313  13.836  1.2287 -0.1954  0.1256
13252TIP3    H161171   6.815   1.248  13.888  1.6506  0.8164  1.0548
13252TIP3    H261172   6.683   1.321  13.880  1.5712  0.6325  0.6622
13253TIP3   OH261173   3.795   3.776  14.109 -0.0137 -0.6235  0.0383
13253TIP3    H161174   3.838   3.739  14.032  0.2384 -0.6167  0.1739
13253TIP3    H261175   3.826   3.724  14.182  0.1947 -0.2643  0.2057
13254TIP3   OH261176   5.003   4.909   1.124  0.0100  0.1665  0.0304
13254TIP3    H161177   5.059   4.886   1.199  1.3322  1.2505 -0.6026
13254TIP3    H261178   5.020   4.839   1.060  0.3560  0.2894 -0.0144
13255TIP3   OH261179   3.762   6.440   5.559  0.5321  0.0086  0.4534
13255TIP3    H161180   3.755   6.355   5.515  0.8200  0.8656 -1.3234
13255TIP3    H261181   3.857   6.454   5.569  0.5355  0.6443 -0.3687
13256TIP3   OH261182   4.463   5.117   4.399 -0.1049 -0.9984 -0.2739
13256TIP3    H161183   4.538   5.116   4.458  0.8492 -1.0541 -1.4606
13256TIP3    H261184   4.423   5.030   4.410 -0.9167 -0.4235  1.4803
13257TIP3   OH261185   5.622   1.554  12.509 -0.2836  0.1021  0.2235
13257TIP3    H161186   5.645   1.632  12.459 -1.5031 -1.4105 -2.7862
13257TIP3    H261187   5.705   1.511  12.528  0.1965  0.7462 -0.4216
13258TIP3   OH261188   5.559   3.282  12.327  0.1313  0.7588 -0.3269
13258TIP3    H161189   5.633   3.247  12.376  0.2045  0.7797 -0.4216
13258TIP3    H261190   5.523   3.206  12.281 -0.5573  0.5420  0.5542
13259TIP3   OH261191   4.882   6.675   0.699 -0.1796 -0.8924  0.0992
13259TIP3    H161192   4.810   6.612   0.697 -0.0402 -1.0137 -0.9366
13259TIP3    H261193   4.958   6.623   0.726 -0.9022 -0.3332  3.4595
13260TIP3   OH261194   4.250   0.381   4.819  0.0482  0.5020  0.0294
13260TIP3    H161195   4.266   0.327   4.896 -1.5835 -1.2344 -0.8038
13260TIP3    H261196   4.209   0.460   4.854 -0.7782 -0.3123  0.9583
13261TIP3   OH261197   1.721   6.516   4.058 -0.3257  0.3548 -0.3337
13261TIP3    H161198   1.722   6.531   4.152  0.3138  0.4629 -0.3545
13261TIP3    H261199   1.751   6.598   4.020  4.5834 -1.2775 -0.3752
13262TIP3   OH261200   5.196   2.297   2.484 -0.3035  0.3423  0.5235
13262TIP3    H161201   5.199   2.254   2.399 -0.7512 -1.3067  1.3095
13262TIP3    H261202   5.265   2.254   2.535 -1.0273  0.2587  1.4571
13263TIP3   OH261203   1.529   3.325   6.336  0.0506 -0.1270  0.5524
13263TIP3    H161204   1.559   3.273   6.411  0.7717  1.8274  1.6424
13263TIP3    H261205   1.588   3.300   6.265  0.9307 -0.1900  1.2905
13264TIP3   OH261206   2.310   2.606  14.075 -0.5899 -0.0082  0.0223
13264TIP3    H161207   2.310   2.701  14.077  0.4466  0.0019 -0.0979
13264TIP3    H261208   2.218   2.581  14.076 -0.8567  0.9882  0.4442
13265TIP3   OH261209   1.199   2.583   2.494  0.6785  0.3635  0.0419
13265TIP3    H161210   1.151   2.536   2.563 -0.4470  1.4265 -0.0002
13265TIP3    H261211   1.141   2.655   2.470  0.1002 -1.1895 -3.4862
13266TIP3   OH261212   5.612   3.681   5.132 -0.0432  0.1567 -0.7888
13266TIP3    H161213   5.686   3.621   5.137 -0.0433  0.3520  2.1149
13266TIP3    H261214   5.652   3.767   5.117  0.3089  0.1703  0.1698
13267TIP3   OH261215   0.475   1.092   3.358 -0.1494  0.0329  0.2417
13267TIP3    H161216   0.386   1.063   3.377  0.2247  0.0507  2.1546
13267TIP3    H261217   0.521   1.013   3.329 -0.4070 -0.2891  0.7090
13268TIP3   OH261218   4.043   5.665   4.785  0.1541 -0.2016 -0.4956
13268TIP3    H161219   3.958   5.706   4.795  1.1198  1.5034  1.0460
13268TIP3    H261220   4.026   5.587   4.732 -2.5187 -0.4722  0.6766
13269TIP3   OH261221   5.799   0.378   1.135  0.2713  0.7291  0.5418
13269TIP3    H161222   5.722   0.394   1.190 -1.2796  0.6081 -1.5272
13269TIP3    H261223   5.868   0.430   1.176 -1.0170  1.2398  2.1661
13270TIP3   OH261224   5.217   4.096   1.003 -0.4528 -0.0517  0.4025
13270TIP3    H161225   5.290   4.040   0.977  1.3516  2.1813  0.5094
13270TIP3    H261226   5.178   4.052   1.078  0.1452 -1.7868 -0.2857
13271TIP3   OH261227   3.629   3.267  12.315  0.8434  0.4241  0.2556
13271TIP3    H161228   3.644   3.220  12.397  3.5570  1.8066  0.6055
13271TIP3    H261229   3.535   3.262  12.301  0.4196 -0.3721  3.1246
13272TIP3   OH261230   1.757   5.706   4.586 -0.0945  0.2231  0.0326
13272TIP3    H161231   1.836   5.663   4.552 -0.3960 -0.9504  0.7850
13272TIP3    H261232   1.790   5.788   4.623  0.8690 -0.4817  0.7930
13273TIP3   OH261233   5.796   3.721   3.941  0.0646 -0.0289 -0.4954
13273TIP3    H161234   5.757   3.731   4.028  0.3335 -3.0532  0.0479
13273TIP3    H261235   5.747   3.782   3.886 -2.9438 -1.0236  0.9540
13274TIP3   OH261236   4.509   6.499  14.298  0.2710 -0.2903  0.2998
13274TIP3    H161237   4.433   6.547  14.268  1.3056  0.7532 -0.7134
13274TIP3    H261238   4.481   6.456  14.379 -1.3297  0.1897  0.0085
13275TIP3   OH261239   0.809   0.177   2.693  0.0399  0.2695 -0.8081
13275TIP3    H161240   0.835   0.191   2.601 -0.5688 -1.9132 -1.3425
13275TIP3    H261241   0.715   0.195   2.694  0.0073  0.0902 -0.6687
13276TIP3   OH261242   1.603   4.086   1.081  0.2134  0.1753 -0.3338
13276TIP3    H161243   1.673   4.042   1.033  0.3089 -0.9660  0.8327
13276TIP3    H261244   1.593   4.035   1.161 -1.0801  1.0867  0.0996
13277TIP3   OH261245   3.105   0.331   4.814 -0.3017  0.3762 -0.0530
13277TIP3    H161246   3.012   0.332   4.837 -0.1080  1.8576  0.7394
13277TIP3    H261247   3.110   0.382   4.733 -0.1904  0.3286 -0.0753
13278TIP3   OH261248   1.873   4.963   3.325 -0.4163  0.1980  0.0998
13278TIP3    H161249   1.938   5.011   3.274 -1.2559  0.8579 -0.3651
13278TIP3    H261250   1.836   4.899   3.263  0.0338 -0.4027  0.4547
13279TIP3   OH261251   5.212   4.072  16.014 -0.6608  0.2823 -0.0659
13279TIP3    H161252   5.251   4.105  16.095  0.8428  0.3420 -0.7860
13279TIP3    H261253   5.118   4.079  16.027 -0.4170  0.6996  1.5044
13280TIP3   OH261254   2.055   5.592   3.731 -0.3550  0.1314 -0.3671
13280TIP3    H161255   2.020   5.657   3.791  0.0845 -0.0400  0.0731
13280TIP3    H261256   2.105   5.643   3.667 -0.1423  0.2341 -0.1153
13281TIP3   OH261257   4.053   1.631   4.886  0.8460 -0.5140  0.1400
13281TIP3    H161258   3.962   1.640   4.914  0.4300 -0.2145 -1.2997
13281TIP3    H261259   4.056   1.548   4.838  1.7586 -1.4840  1.8275
13282TIP3   OH261260   4.204   1.484  13.850 -0.1678  0.1012  0.5927
13282TIP3    H161261   4.199   1.390  13.869  1.2006 -0.2058 -0.4606
13282TIP3    H261262   4.146   1.525  13.914 -0.8024 -1.4660  1.0435
13283TIP3   OH261263   6.269   4.789   0.639 -0.1827 -0.0676 -0.3243
13283TIP3    H161264   6.272   4.707   0.590  0.3617  1.1709 -2.4126
13283TIP3    H261265   6.251   4.763   0.729 -3.3978 -2.2575 -1.5216
13284TIP3   OH261266   0.851   6.435   0.840  0.7445 -0.4430 -0.0459
13284TIP3    H161267   0.905   6.363   0.808  0.5220 -1.5657  2.0419
13284TIP3    H261268   0.910   6.485   0.896  0.9561  1.1656 -1.6370
13285TIP3   OH261269   0.260   3.766  15.423  0.1552  0.3973  0.2184
13285TIP3    H161270   0.335   3.776  15.481  0.6982  1.6257 -0.6681
13285TIP3    H261271   0.183   3.782  15.478  0.4445 -2.1044  1.4229
13286TIP3   OH261272   4.666   0.327   4.451  0.0282 -0.2203 -0.1233
13286TIP3    H161273   4.701   0.383   4.382  1.5866 -2.2001 -1.0095
13286TIP3    H261274   4.574   0.354   4.460  0.6850  2.3108 -0.6140
13287TIP3   OH261275   1.630   5.380   4.488  0.4370 -0.8929 -0.7582
13287TIP3    H161276   1.593   5.402   4.403  2.2588  2.0270 -0.8868
13287TIP3    H261277   1.724   5.389   4.476  0.6963  0.1726  1.6952
13288TIP3   OH261278   5.210   3.212  16.766 -0.1463 -0.3169 -0.5377
13288TIP3    H161279   5.175   3.243  16.683  1.0107  2.5447  0.0163
13288TIP3    H261280   5.163   3.263  16.832  2.0299  0.5516  0.3755
13289TIP3   OH261281   5.898   5.695  12.704  0.6647 -0.0030 -0.3946
13289TIP3    H161282   5.841   5.771  12.713  0.4575 -0.2155  0.1006
13289TIP3    H261283   5.923   5.673  12.794  1.5989  0.1442 -0.6154
13290TIP3   OH261284   0.531   2.457  15.818 -0.5864  0.5670 -0.2778
13290TIP3    H161285   0.591   2.426  15.885 -0.6686  0.1344 -0.4009
13290TIP3    H261286   0.523   2.384  15.757 -1.7005  0.3961  0.0543
13291TIP3   OH261287   2.883   1.996  14.872  0.1146 -0.3056  0.2350
13291TIP3    H161288   2.831   1.941  14.813 -1.3053  0.2917  0.8981
13291TIP3    H261289   2.969   1.954  14.876 -0.2677 -1.2282 -1.0050
13292TIP3   OH261290   4.653   4.256   3.743  0.0967 -0.0430  0.5551
13292TIP3    H161291   4.569   4.282   3.782  1.7164  1.9550  2.8390
13292TIP3    H261292   4.718   4.312   3.786  2.8205 -2.6970  0.0421
13293TIP3   OH261293   6.765   0.791   0.714  0.0571  0.1224 -0.0091
13293TIP3    H161294   6.673   0.769   0.728 -0.0064  0.0568 -0.5258
13293TIP3    H261295   6.790   0.838   0.794  0.3365 -2.2111  1.3204
13294TIP3   OH261296   1.381   1.194  14.058 -0.0411 -0.5232 -0.3384
13294TIP3    H161297   1.358   1.272  14.110  0.7138 -0.1905 -0.5056
13294TIP3    H261298   1.327   1.202  13.979  1.3303  0.7514 -1.1567
13295TIP3   OH261299   4.717   3.803  16.553  0.4931  0.1584  0.3957
13295TIP3    H161300   4.775   3.749  16.500 -3.5875 -0.1104 -4.1866
13295TIP3    H261301   4.674   3.742  16.613  1.1288 -0.4294  0.2547
13296TIP3   OH261302   4.015   5.820  14.874 -0.3740  0.2205  0.3937
13296TIP3    H161303   3.966   5.824  14.792  1.9802 -0.3624 -1.0979
13296TIP3    H261304   4.042   5.911  14.890  0.4963  0.1062 -0.3501
13297TIP3   OH261305   5.328   5.899   3.700 -0.7269 -0.0692 -0.0695
13297TIP3    H161306   5.364   5.987   3.692 -1.5762  0.3445  0.5918
13297TIP3    H261307   5.299   5.877   3.611 -0.2968  0.2151 -0.2839
13298TIP3   OH261308   0.560   5.325   1.429 -0.1763 -0.0993  0.2156
13298TIP3    H161309   0.490   5.356   1.487 -2.1307  1.8145 -3.0035
13298TIP3    H261310   0.632   5.387   1.444 -0.6414  0.3408  0.6615
13299TIP3   OH261311   5.583   0.083  12.114  0.3923  0.2039  0.4493
13299TIP3    H161312   5.650   0.151  12.125  0.4883  0.0871  0.5776
13299TIP3    H261313   5.591   0.057  12.022  1.3862 -0.7164  0.7806
13300TIP3   OH261314   5.618   0.079  12.892  0.4959  0.2699  0.1118
13300TIP3    H161315   5.553   0.028  12.844 -1.0418  1.7036  0.5937
13300TIP3    H261316   5.678   0.112  12.826  1.1125 -1.5920 -0.2717
13301TIP3   OH261317   5.802   4.343  11.616  0.1497  0.0226 -0.4465
13301TIP3    H161318   5.848   4.415  11.573  2.1319 -1.8889 -1.6053
13301TIP3    H261319   5.822   4.354  11.709  1.3626  0.3243 -0.7371
13302TIP3   OH261320   1.095   2.144  15.625 -0.4850 -0.6516  0.6229
13302TIP3    H161321   1.048   2.110  15.549 -0.0881  0.1144  0.0206
13302TIP3    H261322   1.038   2.125  15.699 -1.5479 -0.1250 -0.0470
13303TIP3   OH261323   5.093   3.487   5.774 -0.5656 -0.6555 -0.0368
13303TIP3    H161324   5.158   3.472   5.842  0.0297  1.7705 -0.0461
13303TIP3    H261325   5.145   3.497   5.694 -1.1513 -1.6261 -0.5481
13304TIP3   OH261326   2.157   4.716  12.341 -0.0163  0.2982 -0.2669
13304TIP3    H161327   2.135   4.791  12.396 -2.4695 -1.3942  1.1789
13304TIP3    H261328   2.226   4.748  12.283  0.3641  3.0724  1.6198
13305TIP3   OH261329   3.857   6.580   4.831  0.4813 -0.1959  0.2047
13305TIP3    H161330   3.850   6.675   4.833 -0.7911 -0.2559 -0.5941
13305TIP3    H261331   3.935   6.562   4.778  0.6521  0.3949  0.2610
13306TIP3   OH261332   5.978   5.200   5.385  0.1512 -0.0054 -0.0314
13306TIP3    H161333   6.042   5.221   5.453 -1.0099 -1.5434  1.5968
13306TIP3    H261334   6.024   5.214   5.303  1.7554  1.4015  1.0793
13307TIP3   OH261335   4.379   5.585   0.533  0.8402  0.3137 -0.2284
13307TIP3    H161336   4.321   5.578   0.608 -0.7021  1.7285 -1.2550
13307TIP3    H261337   4.463   5.614   0.570  0.1531  0.7936  0.9754
13308TIP3   OH261338   6.306   0.960  13.305 -0.5615  0.0027  0.1577
13308TIP3    H161339   6.243   1.017  13.348 -1.6204 -0.3193 -0.9466
13308TIP3    H261340   6.390   0.981  13.347 -0.9152  2.4636 -0.3106
13309TIP3   OH261341   5.682   6.004  10.989  0.4987  0.4731 -0.0319
13309TIP3    H161342   5.720   5.943  11.053  0.6080 -0.0610 -0.6097
13309TIP3    H261343   5.758   6.038  10.942  0.3636  0.4180 -0.2855
13310TIP3   OH261344   3.981   1.198  11.763  0.2443  0.0607  0.4035
13310TIP3    H161345   4.065   1.242  11.772 -1.7259  4.4512 -0.9305
13310TIP3    H261346   3.996   1.128  11.700  2.8940  0.8506  0.1280
13311TIP3   OH261347   2.622   5.490   3.180  0.4836  0.4603  0.1422
13311TIP3    H161348   2.652   5.418   3.125  1.2301  0.3969  0.6141
13311TIP3    H261349   2.696   5.551   3.181  0.1219  0.8972  0.3129
13312TIP3   OH261350   0.513   0.905   1.443 -0.2578 -0.4404  0.1223
13312TIP3    H161351   0.507   0.923   1.349  0.5454  1.1311  0.3438
13312TIP3    H261352   0.458   0.972   1.484  0.6988 -0.0768  0.8427
13313TIP3   OH261353   5.356   6.200   0.780  0.2522 -0.4152 -0.4398
13313TIP3    H161354   5.329   6.250   0.857  2.1521  0.8353 -0.5682
13313TIP3    H261355   5.363   6.109   0.811 -0.4731 -0.1684  0.4645
13314TIP3   OH261356   2.726   3.801   3.499  0.0546  0.1425 -0.1420
13314TIP3    H161357   2.755   3.760   3.417 -0.7104  1.9223 -1.3359
13314TIP3    H261358   2.635   3.825   3.483  0.0182  0.8779  1.0914
13315TIP3   OH261359   2.441   3.616  12.067 -0.0291  0.6085  0.1457
13315TIP3    H161360   2.510   3.609  12.134  0.2190  1.2476 -0.0398
13315TIP3    H261361   2.462   3.697  12.020 -0.4222  0.3553 -0.4633
13316TIP3   OH261362   5.313   3.743   5.959 -0.7312  0.2133 -0.8211
13316TIP3    H161363   5.232   3.792   5.972 -0.1005  1.0507  0.0264
13316TIP3    H261364   5.383   3.805   5.980  0.1058 -0.7251 -0.7656
13317TIP3   OH261365   5.671   2.359   1.343 -0.2299  0.0694  0.2227
13317TIP3    H161366   5.664   2.453   1.331  0.1566  0.3243  1.8065
13317TIP3    H261367   5.594   2.323   1.300  0.6368  0.9394 -2.0916
13318TIP3   OH261368   4.750   3.126  16.038  0.6621  0.3037 -0.3184
13318TIP3    H161369   4.691   3.127  15.963  0.2780 -0.1978 -0.0305
13318TIP3    H261370   4.692   3.118  16.114  1.0558  0.5992  0.0208
13319TIP3   OH261371   0.664   1.955   1.127  0.7818  0.4944  0.6129
13319TIP3    H161372   0.628   1.905   1.053 -0.3634  1.8963  0.1915
13319TIP3    H261373   0.737   2.003   1.089 -0.8470  2.5227 -0.0485
13320TIP3   OH261374   5.045   0.785  17.158  0.4981  0.5505 -0.2251
13320TIP3    H161375   5.018   0.867  17.198  0.0889  0.3615 -0.1145
13320TIP3    H261376   5.129   0.764  17.200 -1.3860 -1.2490  2.8650
13321TIP3   OH261377   6.778   1.697   4.650 -0.4668 -0.2814 -0.3511
13321TIP3    H161378   6.708   1.703   4.716  0.0566  1.3156  0.0798
13321TIP3    H261379   6.736   1.659   4.573 -1.7216  0.3189  0.0323
13322TIP3   OH261380   2.296   5.146  14.933 -0.4693 -0.9232 -0.1930
13322TIP3    H161381   2.312   5.102  15.016 -1.6460 -0.5673  0.2270
13322TIP3    H261382   2.270   5.235  14.957 -1.4228 -0.9992 -0.9188
13323TIP3   OH261383   4.330   2.131   2.080 -0.2177 -0.0849  0.2304
13323TIP3    H161384   4.353   2.224   2.089  1.0105  0.0342 -3.2113
13323TIP3    H261385   4.235   2.129   2.091 -0.5723  1.9766 -1.9443
13324TIP3   OH261386   1.928   6.723  14.817 -0.1350 -0.2062  0.2024
13324TIP3    H161387   1.996   6.755  14.757 -0.0299  2.1871  1.5379
13324TIP3    H261388   1.976   6.665  14.877  0.5285  0.6007  0.4656
13325TIP3   OH261389   2.937   4.325   6.263  0.3492 -0.1009 -0.5394
13325TIP3    H161390   2.893   4.410   6.264  1.4389  0.4719 -0.5853
13325TIP3    H261391   3.028   4.345   6.287  0.4914 -1.3198 -0.0453
13326TIP3   OH261392   6.694   4.482   4.732 -0.2986 -0.5106  0.4395
13326TIP3    H161393   6.777   4.464   4.687  0.3469  1.4507  0.7557
13326TIP3    H261394   6.633   4.504   4.662 -1.0001 -3.4945  0.0864
13327TIP3   OH261395   4.146   2.128   3.925 -0.5983  0.2568  0.3388
13327TIP3    H161396   4.160   2.221   3.906 -1.2948  0.6788  1.7827
13327TIP3    H261397   4.062   2.108   3.884 -0.3622  0.2222 -0.1256
13328TIP3   OH261398   3.215   6.238  15.138  0.0998 -0.0344 -0.4568
13328TIP3    H161399   3.210   6.240  15.042  1.2819 -0.2429 -0.5343
13328TIP3    H261400   3.305   6.209  15.157  0.6846  2.3411  0.6978
13329TIP3   OH261401   3.939   5.726  15.123 -0.0760  0.3362  0.5950
13329TIP3    H161402   3.939   5.805  15.176  0.7820 -0.1308  1.2883
13329TIP3    H261403   3.973   5.754  15.038 -0.8093  0.9377  0.4964
13330TIP3   OH261404   1.455   4.257   3.760  0.3954  0.2012  0.0782
13330TIP3    H161405   1.452   4.287   3.670  2.6070  0.5785  0.1112
13330TIP3    H261406   1.406   4.174   3.760 -0.6798  0.8218 -1.1849
13331TIP3   OH261407   4.979   6.233   2.988 -0.0664 -0.2934 -0.1839
13331TIP3    H161408   4.956   6.140   2.991 -0.8451 -0.3121 -4.0842
13331TIP3    H261409   4.906   6.274   2.941  1.6797  1.7748 -1.2029
13332TIP3   OH261410   6.128   2.182  13.528  0.5360  0.1639 -0.1117
13332TIP3    H161411   6.045   2.140  13.504 -0.3005  1.7215 -0.0599
13332TIP3    H261412   6.174   2.116  13.579 -1.6138 -0.0230  1.6898
13333TIP3   OH261413   2.931   0.412  16.140 -0.2925 -0.2207  0.4090
13333TIP3    H161414   2.976   0.332  16.165  0.9012  0.3869  0.2252
13333TIP3    H261415   2.984   0.482  16.177 -1.4946  0.4791  0.8404
13334TIP3   OH261416   3.227   4.374   0.108  0.1692  0.1072  0.4985
13334TIP3    H161417   3.313   4.413   0.121  1.1398 -2.1375  1.1510
13334TIP3    H261418   3.229   4.337   0.020 -0.1004 -0.0163  0.5415
13335TIP3   OH261419   3.757   4.654  13.505 -0.2135 -0.0256 -0.2782
13335TIP3    H161420   3.809   4.697  13.573 -0.7343  1.2885 -0.7002
13335TIP3    H261421   3.669   4.650  13.542 -0.1889 -0.6492 -0.2843
13336TIP3   OH261422   6.324   1.579  13.225  0.8558 -0.4622  0.5297
13336TIP3    H161423   6.298   1.496  13.265 -0.0809 -0.3310  0.2084
13336TIP3    H261424   6.280   1.646  13.277 -1.4609 -0.3515 -1.5005
13337TIP3   OH261425   0.628   3.651   5.703  0.0453  0.1475  0.2594
13337TIP3    H161426   0.616   3.598   5.782  1.2032  0.0450  0.3757
13337TIP3    H261427   0.635   3.741   5.735  0.5453  0.1025  0.2803
13338TIP3   OH261428   5.996   0.531  12.048 -0.1171 -0.4342 -0.1072
13338TIP3    H161429   6.054   0.467  12.090 -1.3462 -0.7947  1.0817
13338TIP3    H261430   6.054   0.600  12.018  0.9142 -0.6891  1.2629
13339TIP3   OH261431   4.696   3.144   3.167 -0.1954  0.1693  0.2267
13339TIP3    H161432   4.653   3.144   3.081 -0.3340 -2.2016  0.2752
13339TIP3    H261433   4.753   3.221   3.164 -1.0328  0.7740 -1.5563
13340TIP3   OH261434   5.277   1.901  17.025 -0.3520 -0.2258 -0.7282
13340TIP3    H161435   5.356   1.885  17.076 -0.3468  0.5630 -0.4781
13340TIP3    H261436   5.265   1.996  17.029 -0.7730 -0.2358 -1.5617
13341TIP3   OH261437   1.091   0.332  12.978 -0.1976 -0.5029 -0.1115
13341TIP3    H161438   1.114   0.411  12.929 -1.8711 -0.0505 -0.2026
13341TIP3    H261439   1.024   0.290  12.924 -0.4204 -1.1883  0.6914
13342TIP3   OH261440   3.222   0.326  12.143 -0.1479  0.7450  0.0882
13342TIP3    H161441   3.173   0.277  12.209 -0.4058 -2.0774 -2.0713
13342TIP3    H261442   3.311   0.292  12.149 -0.4570 -0.4958 -1.8114
13343TIP3   OH261443   2.358   2.296   3.776 -0.0842 -0.2785 -0.5876
13343TIP3    H161444   2.270   2.290   3.814  0.1332  0.1972  0.0118
13343TIP3    H261445   2.400   2.214   3.800 -0.7006 -0.9376 -1.7464
13344TIP3   OH261446   2.744   2.955   1.375 -0.1578 -0.0284  0.3620
13344TIP3    H161447   2.830   2.996   1.386  0.5447 -1.4185  0.1258
13344TIP3    H261448   2.681   3.026   1.391  1.0196  0.8299  1.2369
13345TIP3   OH261449   6.400   5.164  14.118  0.2183 -0.2736 -0.7291
13345TIP3    H161450   6.438   5.103  14.181 -0.0218 -1.0183 -1.3037
13345TIP3    H261451   6.384   5.244  14.169 -0.0539 -0.9000  0.1717
13346TIP3   OH261452   5.920   5.874  11.155  1.0204  0.1650  0.1994
13346TIP3    H161453   5.863   5.803  11.126  0.2271  0.6635  0.5197
13346TIP3    H261454   5.905   5.881  11.249  2.4034 -0.3871  0.4832
13347TIP3   OH261455   6.692   2.911  14.584 -0.1206  0.4153  0.5178
13347TIP3    H161456   6.655   2.993  14.551  0.6686  0.6419  0.1797
13347TIP3    H261457   6.759   2.938  14.647 -0.1073  0.0318  0.6665
13348TIP3   OH261458   6.491   3.548   1.350 -0.1405  0.0815 -0.3365
13348TIP3    H161459   6.564   3.547   1.288 -0.8745  0.0099 -1.2264
13348TIP3    H261460   6.531   3.563   1.435  0.8638  0.5620 -0.8805
13349TIP3   OH261461   5.352   4.528  12.822 -0.2694 -0.7008  0.1852
13349TIP3    H161462   5.344   4.445  12.869  2.5164 -0.3578  1.3728
13349TIP3    H261463   5.446   4.539  12.809 -0.5788  2.3862  0.2494
13350TIP3   OH261464   1.081   1.880   0.009  0.0015  0.1657 -0.0052
13350TIP3    H161465   1.154   1.897   0.068 -0.2227  1.1952 -0.0153
13350TIP3    H261466   1.110   1.808  -0.046  0.8289  0.2612  0.3092
13351TIP3   OH261467   0.736   5.858   6.016  0.4203 -0.1565 -0.2923
13351TIP3    H161468   0.764   5.767   6.008 -0.6336 -0.3312 -2.5358
13351TIP3    H261469   0.676   5.858   6.092  1.2739 -1.0905  0.3926
13352TIP3   OH261470   6.025   4.523  12.097 -0.1678  0.2859 -0.0752
13352TIP3    H161471   6.113   4.524  12.135  0.2718  1.1077 -1.0858
13352TIP3    H261472   5.980   4.594  12.141  0.6082  1.8029 -1.6540
13353TIP3   OH261473   6.119   4.353   0.676  0.5878  0.4174 -0.2876
13353TIP3    H161474   6.041   4.398   0.644  0.5085  1.2547  1.0470
13353TIP3    H261475   6.094   4.261   0.678 -0.2473  0.6410 -0.2205
13354TIP3   OH261476   1.616   6.664  13.290  0.0794 -0.6251  0.0669
13354TIP3    H161477   1.553   6.722  13.332 -1.0815 -2.7440  1.3218
13354TIP3    H261478   1.615   6.690  13.198 -1.8352  0.0823  0.2629
13355TIP3   OH261479   1.987   1.982  11.772  0.1337 -0.0614  0.1113
13355TIP3    H161480   2.036   1.901  11.781  0.2886 -0.1094 -1.1253
13355TIP3    H261481   2.025   2.026  11.696 -2.2724 -0.5063 -1.4184
13356TIP3   OH261482   3.620   3.810   5.003  0.3670 -0.5378 -0.0634
13356TIP3    H161483   3.630   3.788   4.910 -0.3903 -1.5699  0.0898
13356TIP3    H261484   3.527   3.795   5.021  0.4664 -0.1186  0.8073
13357TIP3   OH261485   6.768   2.605  11.386 -0.6152  0.1024 -0.0645
13357TIP3    H161486   6.797   2.692  11.358 -1.3321 -0.2542 -1.9994
13357TIP3    H261487   6.715   2.621  11.464  0.0419  1.3144  0.1317
13358TIP3   OH261488   5.681   5.436  13.556 -0.5738 -0.0465  0.3103
13358TIP3    H161489   5.642   5.375  13.493 -0.6999 -0.7299  1.0520
13358TIP3    H261490   5.765   5.398  13.577  0.0266  0.8457 -0.4131
13359TIP3   OH261491   1.744   2.469  12.153  0.6350  0.1052  0.0106
13359TIP3    H161492   1.700   2.393  12.192  0.2519  0.1265 -0.3851
13359TIP3    H261493   1.814   2.431  12.100  0.6513  0.0398  0.0793
13360TIP3   OH261494   6.334   2.630  12.146  0.9283 -0.2536 -0.3435
13360TIP3    H161495   6.412   2.660  12.192 -0.4111  0.6286  1.4329
13360TIP3    H261496   6.268   2.621  12.215  0.0231 -2.9355 -1.5231
13361TIP3   OH261497   2.123   1.765  15.652 -0.2543 -0.3678  0.2407
13361TIP3    H161498   2.061   1.692  15.651 -1.1796  0.3984  0.5190
13361TIP3    H261499   2.209   1.725  15.641 -0.7629 -1.4881  0.3560
13362TIP3   OH261500   0.768   5.876  15.868  0.0136 -0.4293  0.2606
13362TIP3    H161501   0.806   5.944  15.812  0.4207 -0.6284  0.2929
13362TIP3    H261502   0.825   5.874  15.945 -0.2721 -0.4810  0.4733
13363TIP3   OH261503   6.110   3.105   4.160  0.8113 -0.0755 -0.6924
13363TIP3    H161504   6.197   3.144   4.161  0.6129  0.3796 -0.9618
13363TIP3    H261505   6.058   3.162   4.218  0.6309 -0.1997 -0.7319
13364TIP3   OH261506   1.908   1.050  13.441 -0.9586 -0.7035 -0.0796
13364TIP3    H161507   1.900   1.122  13.504  0.3023 -2.2690  1.9655
13364TIP3    H261508   1.978   1.078  13.381 -0.1283 -0.4032  1.0097
13365TIP3   OH261509   0.966   0.886   0.584 -0.1214  0.2428  0.2108
13365TIP3    H161510   1.022   0.850   0.653  0.8853  1.2825 -0.0413
13365TIP3    H261511   0.897   0.821   0.572 -0.6447  0.3203  2.6165
13366TIP3   OH261512   6.656   5.168  13.762 -0.1840 -0.5610  0.3520
13366TIP3    H161513   6.603   5.092  13.739 -1.6237  0.4310  0.3298
13366TIP3    H261514   6.602   5.243  13.737  0.7922  0.4754  1.3154
13367TIP3   OH261515   5.206   2.354  15.550 -0.2945  0.0621 -0.0278
13367TIP3    H161516   5.284   2.299  15.546  2.6446  3.9892 -1.0099
13367TIP3    H261517   5.201   2.382  15.641 -0.1228  0.3736 -0.1118
13368TIP3   OH261518   0.637   5.183  13.986  0.0964 -0.3287 -0.0490
13368TIP3    H161519   0.626   5.095  13.950 -0.4432 -0.4592  0.4320
13368TIP3    H261520   0.551   5.223  13.979 -0.0930 -0.4604  1.3754
13369TIP3   OH261521   1.892   3.559  12.287 -0.0811 -0.2180  0.5834
13369TIP3    H161522   1.819   3.560  12.226  2.3509  0.6986 -2.4547
13369TIP3    H261523   1.913   3.652  12.302 -0.0026 -0.4533  2.0159
13370TIP3   OH261524   5.125   1.843   0.476  0.3507 -0.1003  0.3408
13370TIP3    H161525   5.135   1.796   0.559  0.6366  0.3246  0.5506
13370TIP3    H261526   5.050   1.802   0.434  0.3710 -0.5003  0.6879
13371TIP3   OH261527   3.509   1.478  14.222  0.5710 -0.1512 -0.2240
13371TIP3    H161528   3.438   1.522  14.269  1.6610 -1.4715  2.8256
13371TIP3    H261529   3.586   1.532  14.238  0.7034  0.1224 -1.6984
13372TIP3   OH261530   3.116   3.636   4.564 -0.1430 -0.4292  0.0236
13372TIP3    H161531   3.039   3.691   4.578  1.7494  2.0962  1.0946
13372TIP3    H261532   3.131   3.640   4.469  0.2512  1.3610  0.1430
13373TIP3   OH261533   4.446   1.462   4.211  0.0509 -0.7406 -0.2749
13373TIP3    H161534   4.479   1.419   4.290  0.4097  0.1002  0.0362
13373TIP3    H261535   4.351   1.448   4.213 -0.1363  0.6681  1.1396
13374TIP3   OH261536   2.205   1.792  15.338  0.1436 -0.4202 -0.5426
13374TIP3    H161537   2.255   1.782  15.419 -0.1746  1.7619 -0.0435
13374TIP3    H261538   2.115   1.773  15.363 -0.1367  1.4433 -0.0898
13375TIP3   OH261539   2.081   3.757   5.827  0.4677 -0.0885  0.2042
13375TIP3    H161540   2.022   3.828   5.803  0.2147  0.0312  1.1521
13375TIP3    H261541   2.027   3.697   5.879  0.9904 -0.3552  0.4441
13376TIP3   OH261542   5.659   3.337   6.423  0.0724 -0.1815  0.1921
13376TIP3    H161543   5.668   3.266   6.359 -1.7866 -1.1060  0.9363
13376TIP3    H261544   5.693   3.300   6.505 -0.3010 -0.0043  0.4294
13377TIP3   OH261545   3.378   0.439  13.125 -0.0082  0.3879  0.2035
13377TIP3    H161546   3.432   0.518  13.125  0.5988  0.0004  1.7219
13377TIP3    H261547   3.440   0.368  13.141 -0.7383 -0.2355  0.2834
13378TIP3   OH261548   0.340   4.176   3.631  0.0096 -0.4157  0.1616
13378TIP3    H161549   0.417   4.192   3.685  0.6236  0.1261 -0.8527
13378TIP3    H261550   0.370   4.191   3.541 -0.8902 -1.6708 -0.3689
13379TIP3   OH261551   5.956   1.536  12.482  0.1524 -0.3933  0.0582
13379TIP3    H161552   5.946   1.630  12.467  1.7163 -0.4417 -1.5054
13379TIP3    H261553   6.051   1.521  12.479 -0.0442 -1.9416  0.7918
13380TIP3   OH261554   3.810   0.997  10.220 -0.1982  0.6300 -0.5018
13380TIP3    H161555   3.878   1.050  10.261 -1.1234  0.7001  0.9953
13380TIP3    H261556   3.788   1.043  10.139  1.9522  0.2710 -1.3064
13381TIP3   OH261557   0.584   2.206   4.899  0.0113  0.4538  0.4705
13381TIP3    H161558   0.607   2.288   4.943  1.2554  0.6704 -0.5316
13381TIP3    H261559   0.589   2.140   4.967  0.4843  0.9982  0.9719
13382TIP3   OH261560   3.699   0.598  17.193  0.6757  0.3514  0.0660
13382TIP3    H161561   3.740   0.521  17.234 -1.0957 -2.0322 -2.4388
13382TIP3    H261562   3.641   0.633  17.260 -0.6618 -2.2805  0.3698
13383TIP3   OH261563   4.675   2.297  15.737 -0.1806 -0.1426  0.4605
13383TIP3    H161564   4.637   2.210  15.724 -0.1155 -0.0644 -0.2459
13383TIP3    H261565   4.648   2.347  15.660  1.3264 -0.0819 -0.0397
13384TIP3   OH261566   4.008   6.636  15.278  0.0297 -0.0695 -0.1525
13384TIP3    H161567   4.022   6.678  15.193  2.6679  0.1217  0.3500
13384TIP3    H261568   4.070   6.563  15.279  0.3592  0.2105  1.7974
13385TIP3   OH261569   1.667   1.714   4.616 -0.1661 -0.3145  0.0751
13385TIP3    H161570   1.641   1.799   4.582 -1.5449 -0.2465  1.2278
13385TIP3    H261571   1.663   1.724   4.711  2.0801 -0.9539  0.2556
13386TIP3   OH261572   6.163   1.997  11.590 -0.1790  0.4853  0.0014
13386TIP3    H161573   6.113   2.062  11.542 -0.7406  0.8514  1.0607
13386TIP3    H261574   6.156   2.024  11.682 -1.7084 -1.8974  0.6382
13387TIP3   OH261575   5.650   6.559  12.984  0.2276 -0.2992 -0.3072
13387TIP3    H161576   5.704   6.630  13.020  0.9022 -1.3496  0.7833
13387TIP3    H261577   5.712   6.507  12.932 -0.0951 -0.5573 -0.4297
13388TIP3   OH261578   0.778   2.284  13.402 -0.2890  0.4641 -0.4761
13388TIP3    H161579   0.798   2.359  13.458 -2.4601  0.2684  0.5977
13388TIP3    H261580   0.689   2.299  13.372  0.2725 -0.2597 -2.6061
13389TIP3   OH261581   4.564   2.781  12.160 -0.4262  0.1549  0.0252
13389TIP3    H161582   4.490   2.738  12.204 -0.4812  0.6109  0.3823
13389TIP3    H261583   4.641   2.739  12.198 -0.4741  0.5517  0.5575
13390TIP3   OH261584   1.467   5.429  15.679  0.1150  0.3780 -0.5470
13390TIP3    H161585   1.537   5.493  15.662 -0.2064  0.7656 -0.4285
13390TIP3    H261586   1.511   5.344  15.676  0.7887  0.6725  0.5190
13391TIP3   OH261587   3.892   4.200  10.561 -0.2142 -0.6182  0.1404
13391TIP3    H161588   3.805   4.241  10.555 -1.2169 -2.3650  1.9148
13391TIP3    H261589   3.893   4.135  10.491 -0.0946 -0.1583 -0.2846
13392TIP3   OH261590   5.503   6.291  13.093  0.2103  0.1987  0.5047
13392TIP3    H161591   5.416   6.266  13.123 -0.7855  1.1814 -1.5274
13392TIP3    H261592   5.528   6.365  13.148 -0.1027 -0.2610  1.2714
13393TIP3   OH261593   2.198   4.536  13.765 -0.2712 -0.3838  0.0221
13393TIP3    H161594   2.145   4.463  13.799 -0.9423 -0.9782 -2.1661
13393TIP3    H261595   2.258   4.557  13.835 -0.6238 -2.5230  1.0156
13394TIP3   OH261596   1.976   4.478   3.754 -0.0261  0.9687 -0.8417
13394TIP3    H161597   2.067   4.504   3.744  0.5734 -0.9444 -0.4260
13394TIP3    H261598   1.957   4.425   3.677 -0.8517  1.5233 -1.0264
13395TIP3   OH261599   2.160   5.282  13.530  0.5517  0.2172 -0.0356
13395TIP3    H161600   2.252   5.312  13.531  0.5198  0.3299 -0.3242
13395TIP3    H261601   2.133   5.293  13.439  0.7210 -1.2718 -0.2690
13396TIP3   OH261602   4.679   1.170   5.017 -0.3496  0.2385  0.6458
13396TIP3    H161603   4.679   1.075   5.004  0.4562  0.0502  1.9385
13396TIP3    H261604   4.601   1.201   4.971 -0.2078 -0.9655 -0.4009
13397TIP3   OH261605   0.378   0.539  11.817 -1.0072  0.1890  0.1630
13397TIP3    H161606   0.349   0.620  11.859  1.0598  1.3683 -0.6064
13397TIP3    H261607   0.473   0.545  11.816 -0.9166 -0.7480 -2.8137
13398TIP3   OH261608   4.068   0.340  16.152  0.3625  0.0920 -0.0196
13398TIP3    H161609   4.129   0.390  16.207  0.8226  0.2853 -0.7120
13398TIP3    H261610   4.020   0.407  16.104 -1.0695 -0.0150  1.2209
13399TIP3   OH261611   5.099   6.410  13.160  0.5911 -0.1887  0.6828
13399TIP3    H161612   5.108   6.469  13.085  3.3313 -1.5311 -0.1012
13399TIP3    H261613   5.135   6.460  13.234  0.1085  0.2422  0.6265
13400TIP3   OH261614   3.788   5.936   1.413 -0.2335 -1.0629  0.2602
13400TIP3    H161615   3.694   5.951   1.414  0.0929  1.1684 -0.7429
13400TIP3    H261616   3.810   5.927   1.321  0.3507 -2.9747  0.5624
13401TIP3   OH261617   5.083   2.153   3.206 -0.1771 -0.0044 -0.4544
13401TIP3    H161618   5.156   2.213   3.220  0.3869 -0.9505  0.7185
13401TIP3    H261619   5.033   2.157   3.287  0.7068 -2.2642  0.2213
13402TIP3   OH261620   2.259   1.590   0.814  0.9194 -0.0914  0.1306
13402TIP3    H161621   2.328   1.631   0.763  1.3959 -0.7914  0.2035
13402TIP3    H261622   2.274   1.496   0.803  0.7590 -0.2473  1.1937
13403TIP3   OH261623   0.228   5.585  11.460 -0.6631 -0.0589  0.1839
13403TIP3    H161624   0.263   5.496  11.457 -2.9379 -0.9660  0.1593
13403TIP3    H261625   0.259   5.625  11.378  0.7119 -0.6742  0.3915
13404TIP3   OH261626   3.036   2.973  11.342  0.0383 -0.3896  1.0809
13404TIP3    H161627   2.972   2.952  11.410  0.7500 -0.7743  1.6356
13404TIP3    H261628   3.073   3.057  11.368 -0.6859  0.1432  0.4214
13405TIP3   OH261629   4.196   0.954   3.654  0.3862 -0.4206  0.5705
13405TIP3    H161630   4.217   0.883   3.716 -0.5244 -0.1086  1.2504
13405TIP3    H261631   4.208   1.034   3.705  1.5144 -0.0702 -0.2289
13406TIP3   OH261632   1.295   6.642  13.669  0.2355 -0.7119  0.3843
13406TIP3    H161633   1.274   6.615  13.580 -0.6213 -1.3914  0.7925
13406TIP3    H261634   1.230   6.599  13.724  1.5369 -1.3410  1.4766
13407TIP3   OH261635   4.770   3.594   3.024 -0.2007  0.0571 -0.0967
13407TIP3    H161636   4.721   3.535   2.966  0.8369 -1.9450  0.9748
13407TIP3    H261637   4.857   3.599   2.983 -0.0247  0.1169  0.2888
13408TIP3   OH261638   0.704   2.617  15.671 -0.3642 -0.3022  0.1562
13408TIP3    H161639   0.637   2.574  15.725 -0.2665  0.9439  1.3023
13408TIP3    H261640   0.659   2.638  15.589 -0.5258 -2.1959 -0.2692
13409TIP3   OH261641   6.155   2.018  12.613 -0.2161  1.0764 -0.0625
13409TIP3    H161642   6.236   2.045  12.570  0.5850  0.3762  0.9832
13409TIP3    H261643   6.178   1.937  12.658 -1.3384  1.1895  0.7300
13410TIP3   OH261644   4.467   5.313   2.217 -0.3944  0.0956  0.2031
13410TIP3    H161645   4.460   5.339   2.125 -1.5258 -1.7377 -0.2531
13410TIP3    H261646   4.561   5.305   2.233 -0.2486 -1.2348 -1.2786
13411TIP3   OH261647   4.944   6.543   1.766  0.0806 -1.0978  0.1818
13411TIP3    H161648   4.976   6.633   1.775  0.6076 -1.1401 -1.1097
13411TIP3    H261649   5.006   6.491   1.817  1.4592 -1.0508 -1.4121
13412TIP3   OH261650   4.042   2.772   0.727  0.3034 -0.1885  0.4044
13412TIP3    H161651   4.115   2.823   0.693 -0.0683 -0.0407 -0.1673
13412TIP3    H261652   4.000   2.734   0.650  0.8077 -1.6938  0.8404
13413TIP3   OH261653   2.585   5.453   0.888  0.5522 -0.0600 -0.5757
13413TIP3    H161654   2.661   5.415   0.932  0.3406  0.9878  0.7205
13413TIP3    H261655   2.619   5.486   0.805  1.1912 -0.9690 -0.6851
13414TIP3   OH261656   1.335   4.074  13.329 -0.2981 -0.7350  0.0661
13414TIP3    H161657   1.293   4.154  13.359  1.2166 -0.1505  0.6853
13414TIP3    H261658   1.426   4.099  13.312  0.1212 -2.2428 -0.0370
13415TIP3   OH261659   1.905   5.996  14.146 -0.4276 -0.1945 -0.2446
13415TIP3    H161660   1.882   6.074  14.095 -0.7903 -0.5119 -0.5666
13415TIP3    H261661   1.984   6.022  14.194  0.8275 -0.3871 -2.1292
13416TIP3   OH261662   2.230   2.845  15.873 -0.2900  0.5045 -0.0840
13416TIP3    H161663   2.317   2.805  15.870 -1.5721 -2.3811 -0.3305
13416TIP3    H261664   2.201   2.846  15.782  0.3751  3.6285 -0.3206
13417TIP3   OH261665   5.928   4.950  12.854 -0.0236 -0.4521 -0.3058
13417TIP3    H161666   5.907   5.043  12.865 -1.4275 -0.7625 -0.2904
13417TIP3    H261667   6.023   4.948  12.844  0.0578  0.9472  0.1096
13418TIP3   OH261668   4.298   6.711   5.101 -0.2810 -0.3495 -0.2093
13418TIP3    H161669   4.282   6.639   5.041 -0.7532  0.2848 -0.8484
13418TIP3    H261670   4.323   6.784   5.044  0.9529 -0.2115  0.4768
13419TIP3   OH261671   3.124   5.409  13.269  0.4569  0.4995  0.0154
13419TIP3    H161672   3.090   5.495  13.294  1.2559  1.3281 -1.6550
13419TIP3    H261673   3.047   5.351  13.271 -0.6105  1.8105 -1.3083
13420TIP3   OH261674   2.260   0.460  14.101  0.2516 -0.0805 -0.2496
13420TIP3    H161675   2.203   0.383  14.101  1.0533 -0.6868 -1.5995
13420TIP3    H261676   2.326   0.440  14.168 -0.8905  0.4829  1.0820
13421TIP3   OH261677   6.737   1.032   2.378  0.1703 -0.7360 -0.1048
13421TIP3    H161678   6.647   1.011   2.404  0.5051 -0.4807  1.3208
13421TIP3    H261679   6.786   1.031   2.461  1.5850 -1.4356 -0.9379
13422TIP3   OH261680   3.902   6.248   4.071 -0.3225  0.6003 -0.2639
13422TIP3    H161681   3.849   6.173   4.041 -1.3484  1.5829 -0.9559
13422TIP3    H261682   3.840   6.321   4.074  0.5891  1.3389  0.7856
13423TIP3   OH261683   3.579   0.466  11.990 -0.0872 -0.7889  0.4092
13423TIP3    H161684   3.519   0.526  12.035  0.4899  1.0964 -1.2607
13423TIP3    H261685   3.621   0.418  12.061 -0.6883  0.6633  1.7996
13424TIP3   OH261686   1.956   3.951  16.362 -0.4962  0.4938  0.0212
13424TIP3    H161687   1.894   4.011  16.402 -0.9383 -0.3415  0.6002
13424TIP3    H261688   2.023   4.008  16.324 -0.5513  1.3294  1.1380
13425TIP3   OH261689   0.690   0.013  15.135  0.7122 -0.4020 -0.7013
13425TIP3    H161690   0.610   0.022  15.085  0.5668 -2.2446 -0.8316
13425TIP3    H261691   0.665   0.035  15.225 -0.2209 -2.1595 -0.5257
13426TIP3   OH261692   6.312   5.018   3.066  0.1385 -0.1670 -0.3335
13426TIP3    H161693   6.289   5.045   3.155  1.4323  0.9775 -0.3188
13426TIP3    H261694   6.377   4.949   3.078  0.7471  0.3872 -0.3710
13427TIP3   OH261695   0.820   2.101   5.765 -0.2455 -0.2104 -0.5996
13427TIP3    H161696   0.874   2.026   5.792  0.3070  0.6138  0.6263
13427TIP3    H261697   0.730   2.073   5.782  0.0665  0.0851  1.5818
13428TIP3   OH261698   4.481   4.211   0.963 -0.0424 -0.2533 -0.2204
13428TIP3    H161699   4.543   4.284   0.962 -0.4535  0.1229  1.4339
13428TIP3    H261700   4.535   4.135   0.984  0.0909 -0.1528 -0.1931
13429TIP3   OH261701   5.275   3.752   2.135 -0.3483 -0.1501  0.0756
13429TIP3    H161702   5.360   3.747   2.179 -0.9773 -1.3747  1.1455
13429TIP3    H261703   5.227   3.676   2.165 -1.6450  0.2417 -0.9549
13430TIP3   OH261704   1.023   4.053  11.031  0.2953 -0.1096  0.1591
13430TIP3    H161705   0.955   4.118  11.010  2.2149  1.8861 -0.0261
13430TIP3    H261706   1.037   4.007  10.949 -2.0372 -1.7404  0.6188
13431TIP3   OH261707   5.466   5.155   2.578 -0.1945 -0.3831 -0.5623
13431TIP3    H161708   5.460   5.080   2.637  1.2468  0.6709  0.9670
13431TIP3    H261709   5.419   5.225   2.624  2.6473  1.0226  0.3268
13432TIP3   OH261710   3.971   3.325   0.008  0.4007 -0.2208  0.0917
13432TIP3    H161711   3.885   3.365  -0.009  0.0494 -0.9804  0.0747
13432TIP3    H261712   3.966   3.239  -0.033  1.1150 -0.3293  0.2372
13433TIP3   OH261713   5.132   5.705  10.678 -0.0996  0.0592  0.1581
13433TIP3    H161714   5.075   5.722  10.603 -0.3519 -4.1666 -0.7285
13433TIP3    H261715   5.081   5.732  10.754 -2.1944 -1.0524 -0.8271
13434TIP3   OH261716   1.702   1.897   0.399  0.7922  0.5158 -0.0290
13434TIP3    H161717   1.776   1.862   0.448 -0.8260 -2.1610  0.5905
13434TIP3    H261718   1.625   1.871   0.450 -0.7063  1.1892 -1.8844
13435TIP3   OH261719   6.124   0.630   4.617 -0.0638  0.5553  0.7225
13435TIP3    H161720   6.181   0.674   4.680 -0.4858 -0.0962  1.5606
13435TIP3    H261721   6.165   0.545   4.603  1.1785  1.4718 -1.4970
13436TIP3   OH261722   6.285   3.743   1.390 -0.4890 -0.5105  0.2780
13436TIP3    H161723   6.245   3.716   1.472 -1.6619 -1.6664 -0.6493
13436TIP3    H261724   6.355   3.680   1.375 -0.0875 -0.1298  0.5111
13437TIP3   OH261725   2.987   0.745  16.670 -0.0003 -0.2430 -0.6100
13437TIP3    H161726   3.009   0.836  16.689  1.9227 -0.9638  0.7375
13437TIP3    H261727   3.029   0.727  16.585 -0.7881  0.2536 -1.1093
13438TIP3   OH261728   2.843   1.876   5.182 -0.1187  1.1459  0.1702
13438TIP3    H161729   2.888   1.891   5.265 -2.2837  0.7281  1.4691
13438TIP3    H261730   2.865   1.786   5.158 -0.0422  1.0317  0.6628
13439TIP3   OH261731   0.298   5.697   4.751  0.5844 -0.0142  0.2739
13439TIP3    H161732   0.242   5.711   4.675 -0.0248  1.3078  0.9630
13439TIP3    H261733   0.354   5.624   4.726 -2.3768 -2.3163  0.0955
13440TIP3   OH261734   3.032   1.102   1.044  0.1629  0.2964 -0.4236
13440TIP3    H161735   3.041   1.104   0.949  1.9972  1.5464 -0.2756
13440TIP3    H261736   3.117   1.070   1.075  0.5559  2.4725  0.8601
13441TIP3   OH261737   1.297   1.403   0.982 -0.2297  0.4796 -0.1421
13441TIP3    H161738   1.240   1.390   1.057 -1.7538  1.1896 -1.1561
13441TIP3    H261739   1.318   1.314   0.952  0.3441  0.1937  1.0550
13442TIP3   OH261740   4.388   5.541   2.698 -0.1493  0.0612  0.0183
13442TIP3    H161741   4.356   5.530   2.787 -3.2427  0.5731 -0.9862
13442TIP3    H261742   4.402   5.452   2.666  1.1581 -0.1191  1.0421
13443TIP3   OH261743   3.629   5.106   1.768 -0.0283  0.6118  0.2046
13443TIP3    H161744   3.580   5.031   1.801 -0.6357  0.8009 -0.2645
13443TIP3    H261745   3.715   5.099   1.811 -0.3151  0.0434  0.6944
13444TIP3   OH261746   3.985   6.272  16.295 -0.2222  0.1461  0.3832
13444TIP3    H161747   3.982   6.223  16.212 -1.2348 -0.7290  0.9312
13444TIP3    H261748   3.915   6.235  16.347  0.5986  0.5040  1.7560
13445TIP3   OH261749   6.353   3.828  13.225 -0.2867  0.6338  0.0112
13445TIP3    H161750   6.447   3.819  13.210 -0.4283 -0.6120 -0.1395
13445TIP3    H261751   6.313   3.761  13.170 -1.1908  0.3742  0.9610
13446TIP3   OH261752   3.796   1.339  10.677  0.0283 -0.1656 -0.4706
13446TIP3    H161753   3.859   1.269  10.661  0.6414 -0.1339  1.7377
13446TIP3    H261754   3.850   1.415  10.699 -0.6481  0.9236 -2.3989
13447TIP3   OH261755   6.771   2.521  16.927 -0.2275  0.1004 -0.0827
13447TIP3    H161756   6.809   2.465  16.995 -1.2451 -1.4445 -0.7464
13447TIP3    H261757   6.679   2.529  16.952 -0.7179 -0.8733 -1.5036
13448TIP3   OH261758   4.775   1.096  13.589  0.6791 -0.7278  0.0539
13448TIP3    H161759   4.708   1.077  13.524  1.3541 -1.1034 -0.5399
13448TIP3    H261760   4.808   1.182  13.566 -0.5900  0.1030  1.2135
13449TIP3   OH261761   3.052   1.628  15.244 -0.3248 -0.0319 -0.1671
13449TIP3    H161762   2.995   1.583  15.181 -0.3128 -1.4026  0.7697
13449TIP3    H261763   3.122   1.665  15.191 -1.2755  0.3652 -1.1595
13450TIP3   OH261764   3.802   0.058   0.737 -0.4865  0.1725  0.6142
13450TIP3    H161765   3.729   0.034   0.795  0.9504 -1.4050  1.8393
13450TIP3    H261766   3.820  -0.022   0.687  0.3286  0.5804  0.2414
13451TIP3   OH261767   1.797   2.386  13.031  0.3599  0.4760 -0.1711
13451TIP3    H161768   1.818   2.328  13.104  0.4341  0.2370 -0.3791
13451TIP3    H261769   1.701   2.382  13.025  0.4192 -0.3383 -0.7544
13452TIP3   OH261770   6.584   1.080   0.818 -0.2216  0.0430 -0.7264
13452TIP3    H161771   6.577   0.997   0.771  2.4266 -2.0707  2.3660
13452TIP3    H261772   6.644   1.132   0.766  2.7270 -2.2880  0.1733
13453TIP3   OH261773   5.565   2.183  17.152  0.2900 -0.5348 -0.6466
13453TIP3    H161774   5.566   2.187  17.056  0.2220 -1.2008 -0.6736
13453TIP3    H261775   5.556   2.275  17.180  1.5138 -0.2117 -1.2539
13454TIP3   OH261776   5.120   0.552  14.980  0.0292  0.1814 -0.1975
13454TIP3    H161777   5.179   0.627  14.991 -0.3537  0.4963 -0.3021
13454TIP3    H261778   5.169   0.492  14.924  1.3594 -0.7483  1.8901
13455TIP3   OH261779   5.901   2.370   1.720 -0.3369  0.1246 -0.4937
13455TIP3    H161780   5.949   2.300   1.675  0.8016  0.8061 -0.3604
13455TIP3    H261781   5.835   2.325   1.771  0.3777 -0.8566 -0.4314
13456TIP3   OH261782   0.165   5.918  12.195  0.2098  0.1093 -0.4949
13456TIP3    H161783   0.200   5.994  12.241 -1.1865  0.6213 -0.2626
13456TIP3    H261784   0.238   5.887  12.141  1.2056  0.7801  0.4423
13457TIP3   OH261785   3.988   4.964   5.936  0.9987  0.3496  0.1298
13457TIP3    H161786   4.018   4.915   5.859  1.2341 -2.3086  1.8283
13457TIP3    H261787   4.040   4.928   6.008 -0.5305  1.4532  1.8138
13458TIP3   OH261788   0.041   0.256   4.565 -0.2465  0.2208 -0.4299
13458TIP3    H161789  -0.001   0.194   4.507  1.0665 -1.0750 -0.0295
13458TIP3    H261790   0.098   0.203   4.620  3.4844  2.0426 -2.3019
13459TIP3   OH261791   3.502   4.707  16.201 -0.2213 -0.5382  0.1993
13459TIP3    H161792   3.425   4.761  16.215 -0.3042 -1.0617  1.8719
13459TIP3    H261793   3.536   4.689  16.288  2.5859  0.7771 -0.5432
13460TIP3   OH261794   6.402   2.070  12.476 -0.0106 -0.0054 -0.9199
13460TIP3    H161795   6.382   2.051  12.384  0.4247  0.8094 -1.1928
13460TIP3    H261796   6.468   2.140  12.472  0.0638 -0.0131  0.0133
13461TIP3   OH261797   2.865   6.026  11.918  0.3685  0.3724 -0.0988
13461TIP3    H161798   2.811   6.067  11.985  1.4957  1.1584  0.3386
13461TIP3    H261799   2.823   6.050  11.835  0.5471  1.7247  0.1927
13462TIP3   OH261800   1.626   4.027   5.925 -0.5784 -0.9127  0.3199
13462TIP3    H161801   1.666   4.078   5.996  0.2872 -1.1280 -0.0094
13462TIP3    H261802   1.700   4.001   5.870 -1.3420  0.1448 -1.2362
13463TIP3   OH261803   6.670   2.843   0.188  0.3302  0.1115  0.0509
13463TIP3    H161804   6.706   2.805   0.268  1.1611 -0.6543 -0.6714
13463TIP3    H261805   6.577   2.819   0.189  0.6713 -1.2398  0.0202
13464TIP3   OH261806   6.446   4.591  16.638 -0.6980 -0.4606 -0.9229
13464TIP3    H161807   6.463   4.540  16.559 -0.3650 -0.5249 -0.8114
13464TIP3    H261808   6.369   4.550  16.677 -0.4643 -0.8443 -0.8648
13465TIP3   OH261809   5.085   2.935   1.291  0.1998  0.3230  0.2061
13465TIP3    H161810   5.115   2.908   1.204 -0.3969  0.8919 -0.1845
13465TIP3    H261811   5.165   2.938   1.344  0.5850  0.1046 -0.3578
13466TIP3   OH261812   2.475   6.461   0.573 -0.1435  0.2329  0.7030
13466TIP3    H161813   2.432   6.409   0.640  0.2092 -2.2419 -0.9101
13466TIP3    H261814   2.408   6.523   0.544 -0.8577  0.1212  2.0640
13467TIP3   OH261815   1.797   2.845   1.134  0.3634 -0.1168  0.3814
13467TIP3    H161816   1.767   2.936   1.143  0.1550 -0.1913  0.4440
13467TIP3    H261817   1.853   2.846   1.056  0.3520  0.0630  0.3746
13468TIP3   OH261818   4.860   6.053   3.512  0.5818 -0.7671  0.1941
13468TIP3    H161819   4.786   6.079   3.457  0.3626  2.0664  1.7717
13468TIP3    H261820   4.930   6.033   3.450 -0.8816 -1.5952 -1.2393
13469TIP3   OH261821   5.269   6.721   4.005 -0.0875  0.2738  0.0676
13469TIP3    H161822   5.260   6.675   3.922  0.4823  0.6803 -0.2158
13469TIP3    H261823   5.182   6.755   4.023 -0.3347 -0.2610 -0.0980
13470TIP3   OH261824   0.251   2.874  17.041 -0.4383 -0.3412  0.4399
13470TIP3    H161825   0.157   2.891  17.055 -0.7172 -1.6012  0.1925
13470TIP3    H261826   0.253   2.791  16.993  0.7805  0.1032 -0.2992
13471TIP3   OH261827   5.454   6.341  14.184  0.0690 -0.6414 -0.6216
13471TIP3    H161828   5.410   6.392  14.253 -1.6958 -1.4714 -1.0984
13471TIP3    H261829   5.473   6.405  14.116  0.3443 -0.1152 -0.0564
13472TIP3   OH261830   0.445   5.202  15.195 -0.2617 -0.6614  0.0490
13472TIP3    H161831   0.390   5.131  15.162  0.3360 -0.9204 -0.3999
13472TIP3    H261832   0.387   5.252  15.253 -0.4553 -2.0326  1.0786
13473TIP3   OH261833   3.303   2.811   4.570 -0.3877  0.3433  0.7419
13473TIP3    H161834   3.232   2.777   4.624 -0.0617 -0.9123  0.4023
13473TIP3    H261835   3.259   2.851   4.495 -0.7702  0.2523  0.9154
13474TIP3   OH261836   3.910   6.538   0.028  0.6591  0.3659  0.0533
13474TIP3    H161837   3.877   6.528  -0.061  1.4820  0.4569 -0.2584
13474TIP3    H261838   3.998   6.573   0.018  1.1048 -0.4866  0.8692
13475TIP3   OH261839   6.719   6.616  15.136 -0.2104 -0.1449 -0.0171
13475TIP3    H161840   6.671   6.534  15.140 -1.0269  0.3724  0.9223
13475TIP3    H261841   6.736   6.639  15.227 -1.2165  1.4326 -0.2047
13476TIP3   OH261842   1.247   4.418   1.455  0.5155  0.3450  0.3563
13476TIP3    H161843   1.202   4.487   1.503  0.3440  1.4924 -1.4172
13476TIP3    H261844   1.326   4.459   1.421  1.2001 -0.7538  0.5784
13477TIP3   OH261845   2.172   2.245  14.006  0.4193  0.6565  0.1670
13477TIP3    H161846   2.182   2.194  14.086 -0.5261 -0.6195 -0.5092
13477TIP3    H261847   2.083   2.279  14.010 -0.4721 -1.3547 -1.4167
13478TIP3   OH261848   4.703   5.275   5.738  0.1070 -0.5876 -0.3723
13478TIP3    H161849   4.767   5.237   5.798  0.5393 -3.2750 -2.4739
13478TIP3    H261850   4.633   5.209   5.733 -1.1084  0.7233 -0.9125
13479TIP3   OH261851   4.334   6.200  15.442  0.2421 -0.0961  0.3322
13479TIP3    H161852   4.407   6.243  15.487  0.2063  0.6058 -0.2727
13479TIP3    H261853   4.372   6.119  15.407  1.2407  1.2048 -1.6757
13480TIP3   OH261854   2.578   4.829   0.516  0.2364  0.1019 -0.1503
13480TIP3    H161855   2.623   4.746   0.535  0.5919  0.4582  0.5701
13480TIP3    H261856   2.564   4.827   0.422 -2.3430 -2.0996  0.2215
13481TIP3   OH261857   5.744   4.354   1.245  0.1563 -0.2636 -0.2671
13481TIP3    H161858   5.756   4.264   1.274  0.0652 -0.6785 -1.4774
13481TIP3    H261859   5.817   4.370   1.185 -0.4622  0.0822 -0.9372
13482TIP3   OH261860   2.144   5.950   4.601  0.0572 -0.0304  1.3715
13482TIP3    H161861   2.152   5.939   4.696  0.0304  0.1589  1.3974
13482TIP3    H261862   2.234   5.959   4.571  0.0710 -0.1901  1.3680
13483TIP3   OH261863   2.004   6.113   2.954 -0.4635 -0.1161 -0.2144
13483TIP3    H161864   1.948   6.104   2.877 -0.0638 -0.1689 -0.4990
13483TIP3    H261865   2.093   6.119   2.919 -0.4581  2.1331  0.0940
13484TIP3   OH261866   5.325   5.493   2.096  0.0773  0.0770 -0.6244
13484TIP3    H161867   5.370   5.499   2.012  0.8363 -1.5753 -0.3568
13484TIP3    H261868   5.290   5.404   2.099  1.0192 -0.2670  1.2590
13485TIP3   OH261869   2.692   2.094  13.326 -0.2642  0.4874 -0.2164
13485TIP3    H161870   2.781   2.064  13.343  0.4671  0.7653 -3.3125
13485TIP3    H261871   2.637   2.018  13.343  0.6918 -0.0544  0.4764
13486TIP3   OH261872   1.151   0.400  12.155  0.2903  0.3546  0.8259
13486TIP3    H161873   1.215   0.371  12.091  0.2752  0.2521  0.8575
13486TIP3    H261874   1.145   0.495  12.141 -0.6530  0.1533 -0.1877
13487TIP3   OH261875   5.780   3.255   3.604 -0.0615  0.6348  1.0526
13487TIP3    H161876   5.795   3.194   3.676  2.5934  0.7067  0.6038
13487TIP3    H261877   5.730   3.327   3.643 -0.7381 -0.4618  2.2437
13488TIP3   OH261878   3.470   6.261  13.247 -0.5708 -0.0979  0.0852
13488TIP3    H161879   3.471   6.263  13.342  0.8683 -1.3411  0.1235
13488TIP3    H261880   3.381   6.233  13.224 -0.3105 -1.8856  1.1430
13489TIP3   OH261881   0.024   5.887   1.012 -0.3030  0.2485 -0.5585
13489TIP3    H161882  -0.016   5.892   1.098  1.1275  1.3544  0.0511
13489TIP3    H261883  -0.050   5.895   0.951 -1.2532 -0.0087  0.5354
13490TIP3   OH261884   5.499   3.813   0.037  0.3532 -0.6574 -0.1822
13490TIP3    H161885   5.425   3.791  -0.020  0.4302 -0.5480 -0.3231
13490TIP3    H261886   5.575   3.776  -0.009  0.5377  0.2642 -0.6203
13491TIP3   OH261887   2.517   4.527   0.201 -0.1771  0.2034 -0.0804
13491TIP3    H161888   2.538   4.559   0.113  0.5241  1.4092  0.5179
13491TIP3    H261889   2.422   4.536   0.208 -0.2544 -0.0195 -0.7508
13492TIP3   OH261890   2.988   2.265  13.620  0.1707  0.4359 -0.7058
13492TIP3    H161891   2.962   2.238  13.709 -0.6373 -1.8757 -1.5913
13492TIP3    H261892   2.930   2.338  13.599  0.5908  1.2149  0.7833
13493TIP3   OH261893   3.416   6.097  14.529  0.3490 -0.3444  0.2238
13493TIP3    H161894   3.471   6.127  14.456  1.0160  1.8271  1.5495
13493TIP3    H261895   3.472   6.037  14.578  1.0018  0.6161  0.6713
13494TIP3   OH261896   0.562   1.318  16.779 -0.2844  0.0204 -0.3918
13494TIP3    H161897   0.565   1.379  16.852 -1.2703 -0.0726 -0.2623
13494TIP3    H261898   0.630   1.254  16.798 -0.3332  0.1689  0.2910
13495TIP3   OH261899   6.341   3.863  11.759  0.4313 -0.0942 -0.1649
13495TIP3    H161900   6.435   3.882  11.765  0.7506 -1.6932  0.1741
13495TIP3    H261901   6.334   3.800  11.687 -0.5504  1.0427 -1.0656
13496TIP3   OH261902   3.674   1.600  16.660 -0.3163 -0.3779  0.0193
13496TIP3    H161903   3.681   1.509  16.631 -0.0794 -0.7863  1.3296
13496TIP3    H261904   3.718   1.602  16.745  0.0343  1.0539 -0.1782
13497TIP3   OH261905   4.929   0.056   2.235  0.5798 -0.0934  0.1323
13497TIP3    H161906   5.015   0.098   2.228  0.2031  0.8748  1.1131
13497TIP3    H261907   4.940  -0.011   2.302  0.1172  1.2615  1.5976
13498TIP3   OH261908   0.371   4.953  13.281 -0.5796 -0.0202 -0.4064
13498TIP3    H161909   0.321   5.010  13.339 -0.8072 -0.3696 -0.2579
13498TIP3    H261910   0.411   5.013  13.218  0.3348  0.4409  0.5980
13499TIP3   OH261911   5.903   0.967   1.620  0.1390  0.0384  0.0792
13499TIP3    H161912   5.942   0.928   1.542  2.0450 -1.6937  1.8343
13499TIP3    H261913   5.857   0.895   1.662 -0.8000  0.9399  0.6155
13500TIP3   OH261914   0.516   2.906  12.717  0.4734 -0.3504  0.9477
13500TIP3    H161915   0.513   2.857  12.799  2.1169 -1.4088  0.4143
13500TIP3    H261916   0.538   2.840  12.651 -2.3867  0.1822 -0.6129
13501TIP3   OH261917   4.566   4.047   3.146  0.7956  0.3290  0.0239
13501TIP3    H161918   4.563   3.968   3.200 -1.9085  0.0598 -0.4302
13501TIP3    H261919   4.492   4.099   3.177 -0.2574  0.5702 -2.7587
13502TIP3   OH261920   0.193   2.459  14.564 -0.1633 -0.7493 -0.3343
13502TIP3    H161921   0.156   2.390  14.619 -2.5339  0.2917 -0.5264
13502TIP3    H261922   0.196   2.536  14.620 -1.5616  0.0398 -1.2883
13503TIP3   OH261923   3.744   3.758  16.198 -0.2780 -0.6749 -0.2970
13503TIP3    H161924   3.689   3.819  16.150  1.1539  1.3303  0.5336
13503TIP3    H261925   3.700   3.746  16.282  1.1071  1.8768  0.8400
13504TIP3   OH261926   1.251   1.361  13.852 -0.0476 -0.5598  0.3125
13504TIP3    H161927   1.330   1.412  13.833 -0.3793  0.2046  0.9483
13504TIP3    H261928   1.216   1.337  13.766  0.2612  0.0641  0.0096
13505TIP3   OH261929   6.238   5.665  14.173 -0.4198 -0.2652  0.2816
13505TIP3    H161930   6.196   5.683  14.258 -0.4808  0.0195  0.1932
13505TIP3    H261931   6.306   5.732  14.166 -0.2530 -0.4432  0.2169
13506TIP3   OH261932   0.158   0.841   0.031  0.2719 -0.2442 -0.8254
13506TIP3    H161933   0.201   0.812  -0.050 -0.1082  0.5035 -1.2975
13506TIP3    H261934   0.230   0.870   0.087  0.3636  1.4487 -1.7963
13507TIP3   OH261935   1.976   1.898  13.599  0.6506  0.0242 -0.1160
13507TIP3    H161936   1.939   1.984  13.579  0.8113 -0.0563 -0.7821
13507TIP3    H261937   1.900   1.840  13.604  0.4783  0.3304  1.0482
13508TIP3   OH261938   5.130   4.889  13.894 -0.3997  0.1474  0.3179
13508TIP3    H161939   5.150   4.982  13.899 -0.5047  0.1411  0.8713
13508TIP3    H261940   5.204   4.846  13.938 -0.8330  0.0305  0.9398
13509TIP3   OH261941   6.119   2.066  11.828 -0.1082  0.0095 -0.6796
13509TIP3    H161942   6.067   2.032  11.901  0.0943 -0.7419 -0.8738
13509TIP3    H261943   6.153   2.149  11.859 -2.7721  1.3266 -1.1541
13510TIP3   OH261944   3.759   5.748   2.923 -0.0131  0.3480 -0.0774
13510TIP3    H161945   3.843   5.703   2.936 -0.1881 -0.1489 -0.5868
13510TIP3    H261946   3.758   5.769   2.829 -0.4417  0.3812 -0.0663
13511TIP3   OH261947   0.291   4.743  11.536 -0.2275  0.0643  0.1432
13511TIP3    H161948   0.232   4.669  11.547  0.2932 -0.4378 -0.3813
13511TIP3    H261949   0.246   4.801  11.474 -1.5483  1.1790  2.1008
13512TIP3   OH261950   3.795   0.521   0.677  0.4266 -0.5130 -1.1122
13512TIP3    H161951   3.724   0.526   0.613 -0.8901  1.2582  0.4268
13512TIP3    H261952   3.810   0.612   0.703  0.7714 -1.2111  1.2724
13513TIP3   OH261953   5.640   4.869  12.763 -0.4227 -0.3881  0.1250
13513TIP3    H161954   5.655   4.786  12.719 -2.4043  0.5406 -2.3947
13513TIP3    H261955   5.721   4.884  12.813  0.8115 -2.7589 -1.0613
13514TIP3   OH261956   2.509   6.181  11.843  0.5494  0.5471 -0.1542
13514TIP3    H161957   2.502   6.268  11.804 -1.3204  0.3063 -0.3916
13514TIP3    H261958   2.516   6.198  11.937  2.2554  1.0248 -0.3598
13515TIP3   OH261959   0.546   0.262  11.248  0.2390  0.3382  0.3445
13515TIP3    H161960   0.569   0.299  11.333  0.4886  0.1745  0.3488
13515TIP3    H261961   0.450   0.265  11.245  0.1265 -1.4734  1.4561
13516TIP3   OH261962   0.645   2.162  14.585 -0.2023 -0.1211  0.1920
13516TIP3    H161963   0.660   2.195  14.497  0.9933 -1.7738 -0.2380
13516TIP3    H261964   0.593   2.083  14.573 -0.3851 -0.1290  1.0060
13517TIP3   OH261965   3.348   6.609  15.778  0.3380 -0.2934 -0.6041
13517TIP3    H161966   3.439   6.582  15.765  0.8681  1.7528 -1.3397
13517TIP3    H261967   3.296   6.535  15.745  1.7268 -1.1034 -1.0088
13518TIP3   OH261968   1.027   5.281   1.133  0.2527 -0.4994 -0.5618
13518TIP3    H161969   0.933   5.263   1.141  0.3122 -1.8437 -2.5402
13518TIP3    H261970   1.054   5.304   1.221 -2.1789  1.0815 -0.1797
13519TIP3   OH261971   0.078   1.758   0.836 -0.3393 -0.2378 -0.1710
13519TIP3    H161972   0.120   1.689   0.888  1.3843  1.2582  0.4742
13519TIP3    H261973   0.071   1.721   0.748 -1.2662 -1.9731  0.6128
13520TIP3   OH261974   3.735   5.334  13.005  0.1635 -0.2097  0.2887
13520TIP3    H161975   3.798   5.263  12.998  0.3926 -0.0452  0.7251
13520TIP3    H261976   3.785   5.409  13.038 -0.3166 -0.1578  0.9021
13521TIP3   OH261977   6.026   0.782   5.678  0.0274  0.1393 -0.2000
13521TIP3    H161978   5.968   0.749   5.609  0.1502 -0.3257 -0.0793
13521TIP3    H261979   6.112   0.749   5.654  0.2362  0.7800 -0.3451
13522TIP3   OH261980   1.599   5.614   6.476  0.4082  0.0543 -0.1755
13522TIP3    H161981   1.532   5.547   6.466 -0.0143  0.6751 -1.8044
13522TIP3    H261982   1.672   5.582   6.422  0.7042  0.2608  0.1035
13523TIP3   OH261983   2.713   2.307  11.199 -0.6096  0.0629  0.0327
13523TIP3    H161984   2.788   2.304  11.139 -1.5805 -1.3979 -1.1296
13523TIP3    H261985   2.675   2.394  11.186  0.3729  0.5042  0.0265
13524TIP3   OH261986   0.110   1.345   4.225 -0.3722  0.3517 -0.0025
13524TIP3    H161987   0.125   1.401   4.302 -0.9649  0.4226  0.0677
13524TIP3    H261988   0.193   1.299   4.213 -0.1524  0.6111  0.4593
13525TIP3   OH261989   4.651   5.074   3.326 -0.3857 -0.3867 -0.4749
13525TIP3    H161990   4.681   5.159   3.295  0.8940 -0.9637 -0.8444
13525TIP3    H261991   4.723   5.014   3.306 -1.3504 -1.5977 -0.4015
13526TIP3   OH261992   4.272   2.123  13.604 -0.5111  0.3320  0.3535
13526TIP3    H161993   4.309   2.138  13.517 -1.9191 -1.0399 -0.5187
13526TIP3    H261994   4.347   2.104  13.660  0.2059 -1.3538 -1.1426
13527TIP3   OH261995   0.140   5.061  17.140 -0.2919 -0.2791  0.1651
13527TIP3    H161996   0.113   5.091  17.053 -0.8902  0.6840  0.6810
13527TIP3    H261997   0.084   4.985  17.157 -0.2413 -0.4133 -0.2398
13528TIP3   OH261998   6.675   3.532   1.145  0.1631  0.2260  0.8726
13528TIP3    H161999   6.721   3.448   1.143  1.7630  1.0442  2.2883
13528TIP3    H262000   6.665   3.556   1.053 -1.2681 -1.9999  0.4151
13529TIP3   OH262001   4.944   0.339   3.867 -0.8448  0.0452  0.3561
13529TIP3    H162002   4.898   0.255   3.870  0.1648 -0.5279  0.0063
13529TIP3    H262003   4.926   0.380   3.951 -2.6928  0.1969 -0.0958
13530TIP3   OH262004   6.694   6.268  16.552  0.1669  0.3548  0.2586
13530TIP3    H162005   6.719   6.177  16.567 -1.1598 -0.6478 -3.2541
13530TIP3    H262006   6.608   6.276  16.593  0.3097  0.0662  0.6197
13531TIP3   OH262007   5.563   0.976  11.807 -0.2074 -0.0937  0.3870
13531TIP3    H162008   5.615   0.933  11.874 -1.0441 -0.1319  1.0169
13531TIP3    H262009   5.492   0.914  11.789 -1.2074  0.8459  1.0311
13532TIP3   OH262010   5.876   2.544   0.696  0.2101 -0.0411  0.4211
13532TIP3    H162011   5.795   2.595   0.688  0.7675  1.0967  1.7402
13532TIP3    H262012   5.887   2.533   0.791  0.9808 -1.2021  0.1964
13533TIP3   OH262013   0.233   3.121   1.469 -0.3723  0.2775  0.7080
13533TIP3    H162014   0.182   3.193   1.507  0.3042  2.2683 -1.9433
13533TIP3    H262015   0.324   3.148   1.481 -0.1127 -0.1713 -0.1863
13534TIP3   OH262016   0.618   6.727   3.958 -0.0406 -0.2548 -0.1123
13534TIP3    H162017   0.563   6.655   3.988  0.1150 -0.1024  0.5542
13534TIP3    H262018   0.624   6.785   4.034 -0.1056  0.4213 -0.6210
13535TIP3   OH262019   3.784   4.483  11.232 -0.2392 -0.0254  0.0589
13535TIP3    H162020   3.745   4.460  11.148 -0.0414 -0.0302 -0.0328
13535TIP3    H262021   3.778   4.403  11.284 -1.3231  0.2874  0.4204
13536TIP3   OH262022   2.052   1.735   5.152 -0.2839  0.3037 -0.2903
13536TIP3    H162023   1.963   1.763   5.130 -0.5485 -0.0289  0.3488
13536TIP3    H262024   2.041   1.657   5.206  0.3902  0.3005 -0.1452
13537TIP3   OH262025   2.704   0.046   2.946 -0.0592  0.0883 -0.1222
13537TIP3    H162026   2.702  -0.048   2.928  1.9555 -0.0270  0.1115
13537TIP3    H262027   2.765   0.081   2.881  0.9531  0.8747  1.2270
13538TIP3   OH262028   3.814   0.922  13.728 -0.4585  0.2049  0.2116
13538TIP3    H162029   3.867   1.000  13.712 -0.5206  0.2129  0.0472
13538TIP3    H262030   3.818   0.910  13.823  0.2307 -0.0752  0.1485
13539TIP3   OH262031   2.086   4.481   5.345 -0.5546 -0.0229  0.1288
13539TIP3    H162032   2.041   4.399   5.326  1.5957 -1.2537  0.2694
13539TIP3    H262033   2.018   4.548   5.334 -1.6995 -1.5445 -2.6186
13540TIP3   OH262034   4.988   5.948  16.495 -0.3986 -0.2663  0.4535
13540TIP3    H162035   4.898   5.915  16.493 -1.3408  2.1865  0.9125
13540TIP3    H262036   5.023   5.927  16.408 -1.5419 -0.8833  0.1324
13541TIP3   OH262037   0.923   3.211  12.667  0.1235  0.7978  0.2075
13541TIP3    H162038   0.888   3.201  12.578  1.3210  0.3990 -0.2188
13541TIP3    H262039   0.855   3.174  12.723 -0.4753  0.6993 -0.5660
13542TIP3   OH262040   3.493   3.860   4.401  0.3011  0.1344  0.3022
13542TIP3    H162041   3.427   3.908   4.452  2.4532  3.3184  0.2214
13542TIP3    H262042   3.556   3.829   4.465  0.6308  0.2471  0.0362
13543TIP3   OH262043   1.577   0.345  15.148 -0.3256 -0.5573  0.1178
13543TIP3    H162044   1.664   0.334  15.186 -1.0690 -1.6915  1.5138
13543TIP3    H262045   1.594   0.366  15.056  1.5287  3.2255  1.2100
13544TIP3   OH262046   5.261   0.905   0.847  0.2865  0.2935  0.2824
13544TIP3    H162047   5.271   0.865   0.760 -0.2373  1.3655 -0.2830
13544TIP3    H262048   5.348   0.900   0.886  0.2845 -1.1753  0.1300
13545TIP3   OH262049   1.010   2.213  14.158 -0.6050  0.4478 -0.8926
13545TIP3    H162050   0.964   2.147  14.105 -0.5869  0.6752 -1.1956
13545TIP3    H262051   1.098   2.217  14.119  0.0850 -0.9032  0.4827
13546TIP3   OH262052   0.771   2.048  15.730 -0.4045  0.5243 -0.4962
13546TIP3    H162053   0.777   2.109  15.657  0.1268  0.7581 -0.2619
13546TIP3    H262054   0.816   2.092  15.802 -0.8161  0.2457 -0.0586
13547TIP3   OH262055   6.624   2.124   1.783 -0.0289  0.4207  0.1827
13547TIP3    H162056   6.690   2.058   1.760  0.2486  0.0446  1.9923
13547TIP3    H262057   6.599   2.163   1.699  0.2881 -1.5177 -0.8406
13548TIP3   OH262058   2.050   4.978  15.300  0.4587 -0.2138 -0.1678
13548TIP3    H162059   2.067   4.944  15.388 -1.6139 -0.4651  0.1614
13548TIP3    H262060   2.073   5.071  15.306 -1.4799  0.2290  1.2340
13549TIP3   OH262061   3.068   4.600   6.211  0.4376  0.1411  0.1797
13549TIP3    H162062   3.120   4.671   6.172 -0.3610  0.5177 -0.2203
13549TIP3    H262063   2.996   4.587   6.150  1.1524 -1.7646 -0.2837
13550TIP3   OH262064   6.261   1.055  15.989 -0.6605  0.0116  0.6870
13550TIP3    H162065   6.203   1.020  15.922 -0.6707  0.6790  0.3395
13550TIP3    H262066   6.344   1.010  15.976 -1.0785 -0.9126  1.1500
13551TIP3   OH262067   3.340   6.692  16.251 -0.3903  0.2538  0.1241
13551TIP3    H162068   3.391   6.770  16.275 -0.8187  0.5933 -0.0632
13551TIP3    H262069   3.293   6.668  16.330  1.8470 -1.4498  0.9827
13552TIP3   OH262070   2.944   4.846  11.831  0.1613 -0.1515  0.3898
13552TIP3    H162071   2.989   4.840  11.915  1.5432  1.9897 -0.1542
13552TIP3    H262072   2.988   4.780  11.776  0.4209 -0.3387  0.8169
13553TIP3   OH262073   6.448   1.375  15.166  0.0073  0.1934  0.4485
13553TIP3    H162074   6.380   1.357  15.232 -0.5947 -0.0132 -0.2276
13553TIP3    H262075   6.528   1.389  15.218 -0.4090 -0.2044  1.2101
13554TIP3   OH262076   0.444   0.877   2.512 -0.5081 -0.1402  0.1888
13554TIP3    H162077   0.405   0.835   2.435  0.0409 -0.0865 -0.1173
13554TIP3    H262078   0.501   0.810   2.550 -3.5233 -1.4545  2.6555
13555TIP3   OH262079   0.078   3.504  11.673 -0.0861  0.5548  0.0358
13555TIP3    H162080   0.090   3.484  11.580  1.2299  1.3405  0.0345
13555TIP3    H262081   0.156   3.552  11.698 -0.0412 -0.3783  1.7727
13556TIP3   OH262082   2.652   6.205   1.897  0.2331 -0.4573  0.2044
13556TIP3    H162083   2.614   6.119   1.917  2.7344 -1.4147  1.0933
13556TIP3    H262084   2.684   6.196   1.807  0.1128 -0.3391  0.1514
13557TIP3   OH262085   3.881   4.751   3.791  0.5344  0.0289  0.1449
13557TIP3    H162086   3.934   4.782   3.718  1.4316 -1.3784  0.1848
13557TIP3    H262087   3.881   4.825   3.853  3.6405 -0.4060  0.7656
13558TIP3   OH262088   1.851   2.063   5.915  0.0846 -0.5369 -0.2684
13558TIP3    H162089   1.806   2.146   5.897  1.8243  0.3000 -0.9256
13558TIP3    H262090   1.860   2.060   6.010 -0.1936 -0.0701 -0.2277
13559TIP3   OH262091   5.107   2.334   4.756 -0.0885 -0.7913 -0.1450
13559TIP3    H162092   5.071   2.255   4.797 -0.9873 -0.2609  0.0838
13559TIP3    H262093   5.191   2.347   4.800 -0.8488 -0.4741  1.2385
13560TIP3   OH262094   0.373   6.505  10.358  0.5068  0.2848  0.1576
13560TIP3    H162095   0.336   6.440  10.299  0.0260  2.2644 -1.7763
13560TIP3    H262096   0.436   6.456  10.412 -1.1380 -2.0802 -0.0264
13561TIP3   OH262097   1.375   0.706   5.148  0.2180  0.1779 -0.6787
13561TIP3    H162098   1.355   0.654   5.226 -1.4552  0.7647 -0.7017
13561TIP3    H262099   1.366   0.644   5.075 -0.9422  0.2821 -0.6339
13562TIP3   OH262100   4.365   3.916  14.812  0.1702  0.0635  0.6882
13562TIP3    H162101   4.289   3.907  14.754 -0.0461  1.7361  0.6908
13562TIP3    H262102   4.419   3.982  14.769  1.0504 -0.2672  1.2938
13563TIP3   OH262103   1.559   3.485   0.740 -0.3537  0.4925 -0.4151
13563TIP3    H162104   1.478   3.500   0.788  0.1024  0.6992  0.2971
13563TIP3    H262105   1.628   3.515   0.799  0.3258 -0.8973 -0.4796
13564TIP3   OH262106   5.588   1.303  14.880 -0.2752  0.0227  0.2486
13564TIP3    H162107   5.580   1.241  14.952  1.2727  1.7859  1.9920
13564TIP3    H262108   5.546   1.383  14.913 -1.6376  0.1410 -1.6967
13565TIP3   OH262109   4.685   5.370   3.605 -0.0128  0.0645 -0.2399
13565TIP3    H162110   4.594   5.379   3.634 -0.1899  0.4511 -0.9252
13565TIP3    H262111   4.736   5.372   3.687 -0.8369 -3.3211  0.4193
13566TIP3   OH262112   2.152   0.963   5.763 -0.0018  0.4318 -0.2025
13566TIP3    H162113   2.092   0.894   5.734  0.1230  0.4026 -0.3880
13566TIP3    H262114   2.129   0.977   5.855 -0.2154  0.3380 -0.2413
13567TIP3   OH262115   2.265   0.234   4.091  0.5672 -0.1406  0.4329
13567TIP3    H162116   2.221   0.268   4.014  0.4689  0.8127  0.9037
13567TIP3    H262117   2.343   0.288   4.101  1.0171 -0.7907  0.5335
13568TIP3   OH262118   3.714   3.867  15.776  0.2301 -0.4380  0.2292
13568TIP3    H162119   3.730   3.913  15.858  0.7866 -0.2412  0.0105
13568TIP3    H262120   3.695   3.777  15.802  0.9011 -0.4897  0.5407
13569TIP3   OH262121   3.281   3.107   1.745 -0.5966 -0.2089  0.4008
13569TIP3    H162122   3.256   3.137   1.657  0.1954  0.0014  0.2440
13569TIP3    H262123   3.345   3.172   1.775  0.4248 -1.2345  0.4365
13570TIP3   OH262124   1.148   4.372  13.387  0.0926  0.2848 -0.1977
13570TIP3    H162125   1.233   4.408  13.363 -0.1760  0.4402 -0.9261
13570TIP3    H262126   1.087   4.412  13.325 -0.4211 -0.3011 -0.0693
13571TIP3   OH262127   3.263   4.839  10.682 -0.4930  0.3512 -0.5744
13571TIP3    H162128   3.325   4.767  10.687 -1.8615 -0.7416  1.6041
13571TIP3    H262129   3.309   4.914  10.719  0.8027  0.5197 -2.4846
13572TIP3   OH262130   0.311   4.053  15.290  0.2115  0.2783 -0.1058
13572TIP3    H162131   0.335   4.005  15.211  0.2173  0.1414 -0.0214
13572TIP3    H262132   0.357   4.137  15.282  0.8120 -0.0300  0.1125
13573TIP3   OH262133   5.757   2.695   5.606 -0.4501 -0.0066  0.5486
13573TIP3    H162134   5.703   2.676   5.529  0.2020 -1.2209  0.3895
13573TIP3    H262135   5.738   2.787   5.626  0.1997  0.6287 -1.6951
13574TIP3   OH262136   2.473   4.065  15.582 -0.4843  0.0581 -0.5059
13574TIP3    H162137   2.446   3.988  15.531  0.8294 -0.8870  0.1944
13574TIP3    H262138   2.430   4.139  15.538 -1.2633 -0.9978 -1.5634
13575TIP3   OH262139   1.493   6.051  14.795  0.2967  0.0215  0.4571
13575TIP3    H162140   1.503   5.992  14.720  0.9113 -0.2481  0.7477
13575TIP3    H262141   1.581   6.055  14.834  0.0819  0.5168  0.8945
13576TIP3   OH262142   5.026   5.718   4.335  0.1903  0.2764  0.0506
13576TIP3    H162143   5.070   5.754   4.412 -2.4309  0.1456  1.7023
13576TIP3    H262144   4.940   5.689   4.369 -0.0446 -2.0988 -2.4047
13577TIP3   OH262145   5.119   5.737  15.352  0.0183  0.0147  0.1284
13577TIP3    H162146   5.125   5.642  15.349  1.6312  0.0938  0.4302
13577TIP3    H262147   5.144   5.766  15.264  1.3589  0.2292  0.5671
13578TIP3   OH262148   5.215   6.556   0.610 -0.6495  0.2722 -0.2164
13578TIP3    H162149   5.308   6.572   0.625 -0.5518  0.0099 -0.5412
13578TIP3    H262150   5.210   6.464   0.587 -1.0453  0.1775  0.2422
13579TIP3   OH262151   5.369   0.986  13.887  0.1557 -0.8714  0.7665
13579TIP3    H162152   5.373   1.069  13.839 -1.0948 -0.7353  0.8733
13579TIP3    H262153   5.379   1.011  13.979 -1.9429 -0.6258  0.9563
13580TIP3   OH262154   5.402   5.996  12.976 -0.0091  0.0693  0.1056
13580TIP3    H162155   5.359   6.070  13.019  0.1599 -0.7123  1.6706
13580TIP3    H262156   5.455   6.036  12.907 -0.6917  1.3193  0.2890
13581TIP3   OH262157   3.125   1.582   5.058 -0.3097 -0.0184  0.0182
13581TIP3    H162158   3.185   1.637   5.108 -1.8957  1.6832  0.1067
13581TIP3    H262159   3.076   1.643   5.003 -2.4825 -1.2490  0.5035
13582TIP3   OH262160   5.426   5.176  11.286 -0.2700  0.3812 -0.2848
13582TIP3    H162161   5.432   5.252  11.345 -1.2513  2.3484 -2.6019
13582TIP3    H262162   5.494   5.193  11.221  0.9179 -1.8559  0.3436
13583TIP3   OH262163   0.496   1.969   0.179 -0.4956 -0.4775  0.1479
13583TIP3    H162164   0.570   1.935   0.229 -0.1309 -2.4733 -1.6839
13583TIP3    H262165   0.437   2.005   0.246  1.2604 -0.5241  1.7690
13584TIP3   OH262166   4.585   2.933   0.815  0.2181 -0.0848  0.2731
13584TIP3    H162167   4.655   2.867   0.818  0.7272  0.4571  0.4065
13584TIP3    H262168   4.628   3.012   0.782 -0.8029 -0.3093 -1.5896
13585TIP3   OH262169   0.561   2.452  13.886  0.1787  0.3419 -0.6904
13585TIP3    H162170   0.518   2.418  13.964 -1.2314  3.5542 -0.0049
13585TIP3    H262171   0.646   2.484  13.918  0.1078  0.5548 -0.7173
13586TIP3   OH262172   4.900   6.327  15.767 -0.3788 -0.0501  0.1031
13586TIP3    H162173   4.907   6.264  15.838 -0.7847 -1.1013 -0.7702
13586TIP3    H262174   4.884   6.274  15.689 -0.2800  1.1004 -0.7244
13587TIP3   OH262175   3.194   1.223  16.982 -0.0891 -0.4711 -0.1764
13587TIP3    H162176   3.260   1.244  16.917 -1.0657  2.4228 -0.2949
13587TIP3    H262177   3.138   1.158  16.939  1.2355 -1.0912 -0.9755
13588TIP3   OH262178   3.474   6.491   4.127  0.1923 -0.4518 -0.3496
13588TIP3    H162179   3.562   6.505   4.093  0.7426  1.0118  1.5540
13588TIP3    H262180   3.482   6.413   4.182  0.0535 -0.9156 -0.9810
13589TIP3   OH262181   2.877   2.644  13.858 -0.0464  0.1210  0.1953
13589TIP3    H162182   2.954   2.694  13.884  0.5525  0.9933 -3.0282
13589TIP3    H262183   2.806   2.681  13.911  1.2109  1.2536  1.1449
13590TIP3   OH262184   1.218   4.792   1.802  1.0541  0.4550 -0.3403
13590TIP3    H162185   1.289   4.742   1.761  1.6567  0.5450  0.5828
13590TIP3    H262186   1.236   4.883   1.777  1.7564  0.5818  0.5927
13591TIP3   OH262187   4.265   4.909   3.371 -0.2416 -0.0476 -0.1224
13591TIP3    H162188   4.191   4.878   3.423 -0.0457  2.0137  1.4409
13591TIP3    H262189   4.342   4.879   3.419 -0.0623 -0.2955 -0.5645
13592TIP3   OH262190   4.466   0.373   2.154 -0.0534 -0.1168  0.0481
13592TIP3    H162191   4.560   0.357   2.148  0.1181  0.4759  0.9660
13592TIP3    H262192   4.439   0.393   2.065  0.5884 -0.8641 -0.3128
13593TIP3   OH262193   2.123   6.481  15.827 -0.0724  0.1923 -0.3387
13593TIP3    H162194   2.033   6.475  15.793 -0.5079  0.8194  0.6840
13593TIP3    H262195   2.159   6.560  15.785 -0.0132 -0.0290 -0.7082
13594TIP3   OH262196   0.130   2.286  15.715  0.1774  0.4399 -0.7043
13594TIP3    H162197   0.043   2.267  15.680  0.4178 -1.4455 -0.3835
13594TIP3    H262198   0.164   2.355  15.659 -1.6212  1.3911 -0.6636
13595TIP3   OH262199   1.079   5.955  14.008  0.0140  0.2284  0.3815
13595TIP3    H162200   1.170   5.947  14.036  0.2534  0.7119 -0.2655
13595TIP3    H262201   1.074   6.040  13.966 -0.6552  0.0474  0.0918
13596TIP3   OH262202   6.119   0.691  11.007  0.3887  0.6331 -0.4955
13596TIP3    H162203   6.039   0.668  11.054  0.4493 -0.3866 -0.8760
13596TIP3    H262204   6.178   0.723  11.074  0.0208  0.4163 -0.0648
13597TIP3   OH262205   4.129   6.511  15.953 -0.0303  0.3055 -0.3185
13597TIP3    H162206   4.145   6.584  15.893 -1.4296 -0.1361 -1.2299
13597TIP3    H262207   4.080   6.550  16.025  2.9093  1.1555  1.3153
13598TIP3   OH262208   4.548   3.587   5.731 -0.0960  0.1527  0.3165
13598TIP3    H162209   4.635   3.594   5.692 -0.0698 -1.3408  0.0661
13598TIP3    H262210   4.500   3.663   5.700  0.5222 -0.0356 -1.0998
13599TIP3   OH262211   3.646   5.599  16.017 -0.2494 -0.1419 -0.1629
13599TIP3    H162212   3.561   5.560  16.038 -1.9254  2.2820 -2.1618
13599TIP3    H262213   3.673   5.555  15.937  0.2098 -0.6421  0.2645
13600TIP3   OH262214   1.692   2.077  14.008  0.5438 -0.2485 -0.5503
13600TIP3    H162215   1.744   1.997  14.013  0.6784 -0.1600 -0.5475
13600TIP3    H262216   1.661   2.091  14.097 -0.7119 -1.1204 -0.8309
13601TIP3   OH262217   5.090   0.108   3.468  0.0877 -0.4816  0.3975
13601TIP3    H162218   5.173   0.153   3.454 -0.1898 -0.1052 -0.0880
13601TIP3    H262219   5.026   0.162   3.421 -0.5910 -0.2044  1.6163
13602TIP3   OH262220   1.901   2.568   5.096  0.3660 -0.1967  0.4675
13602TIP3    H162221   1.990   2.552   5.064  0.5143 -0.2001  0.8750
13602TIP3    H262222   1.860   2.481   5.096 -0.8658  0.3157 -3.3156
13603TIP3   OH262223   0.589   1.970   3.709  0.3437 -0.0825 -0.7507
13603TIP3    H162224   0.517   1.942   3.651  1.3471  0.2024 -2.1788
13603TIP3    H262225   0.563   2.056   3.740 -0.9776 -0.9305  0.5714
13604TIP3   OH262226   0.314   2.440   3.575  0.4399 -0.4175  0.3175
13604TIP3    H162227   0.231   2.458   3.531  1.6326  1.0510 -1.3903
13604TIP3    H262228   0.302   2.475   3.664 -0.4220  0.6974 -0.2261
13605TIP3   OH262229   5.035   1.637  15.102 -0.0624 -0.8714  0.0170
13605TIP3    H162230   5.017   1.722  15.062  0.1681 -0.9966 -0.3492
13605TIP3    H262231   5.043   1.657  15.196  2.6765 -0.0429 -0.3529
13606TIP3   OH262232   2.622   2.444  14.039 -0.2073  0.2724 -0.6596
13606TIP3    H162233   2.585   2.492  14.113  0.2614  0.0639 -0.2907
13606TIP3    H262234   2.653   2.513  13.980  0.1075  0.4343 -0.3101
13607TIP3   OH262235   0.453   5.388  14.003 -0.3605 -0.7551  0.5352
13607TIP3    H162236   0.505   5.430  13.935 -0.0681 -0.8144  0.7211
13607TIP3    H262237   0.371   5.437  14.003 -0.3699 -0.7643  0.1303
13608TIP3   OH262238   5.627   2.296  10.713  0.2496 -0.1841 -0.6257
13608TIP3    H162239   5.556   2.337  10.764  0.1777 -0.7792 -0.2411
13608TIP3    H262240   5.587   2.218  10.675  1.3054 -1.8608  1.5569
13609TIP3   OH262241   4.858   2.769   4.733 -0.5344 -0.1394 -0.0783
13609TIP3    H162242   4.869   2.834   4.803  1.5724 -0.0285 -0.4942
13609TIP3    H262243   4.921   2.700   4.755  0.4636  0.1037 -2.0942
13610TIP3   OH262244   1.750   6.766  12.802  0.7571 -0.0092  0.0679
13610TIP3    H162245   1.703   6.792  12.722  1.0591  0.2570 -0.0235
13610TIP3    H262246   1.753   6.670  12.797  0.4877 -0.0128 -0.0737
13611TIP3   OH262247   4.609   2.938  13.577  0.0458 -0.6137 -0.0505
13611TIP3    H162248   4.526   2.904  13.545 -0.7676  1.2578  0.0180
13611TIP3    H262249   4.597   3.033  13.579  0.8329 -0.5256  3.6581
13612TIP3   OH262250   2.045   2.167  11.980  0.1081 -0.3486 -0.7774
13612TIP3    H162251   1.999   2.146  12.062  1.0907  0.4721  0.0053
13612TIP3    H262252   2.022   2.096  11.921 -0.4015 -1.1146  0.3122
13613TIP3   OH262253   3.279   5.025  16.311 -0.1249 -0.1036 -0.1034
13613TIP3    H162254   3.349   5.005  16.248  0.2292 -1.0079  0.5530
13613TIP3    H262255   3.247   5.111  16.286  1.4372  0.4587 -0.2473
13614TIP3   OH262256   4.551   6.300   5.538 -0.0404  0.1853  0.1292
13614TIP3    H162257   4.621   6.356   5.506 -1.7452  2.4576  0.2338
13614TIP3    H262258   4.475   6.324   5.486 -1.1349 -1.1226  1.0647
13615TIP3   OH262259   5.459   1.438  14.312 -0.2499  1.1669  0.3533
13615TIP3    H162260   5.478   1.473  14.399 -0.4682 -0.4744  1.0663
13615TIP3    H262261   5.365   1.418  14.315 -0.4568  1.9889 -0.5750
13616TIP3   OH262262   0.375   2.130   4.732 -0.2172 -0.4419 -0.1503
13616TIP3    H162263   0.316   2.084   4.791  0.1985 -0.1519  0.4920
13616TIP3    H262264   0.460   2.128   4.776 -0.4917  2.1813  0.5556
13617TIP3   OH262265   3.784   6.033  12.886 -0.0067  0.3284  0.2353
13617TIP3    H162266   3.779   6.048  12.791 -0.5902  0.6647  0.3175
13617TIP3    H262267   3.692   6.026  12.914  0.2039 -1.6833  0.4687
13618TIP3   OH262268   2.689   5.866  15.605  0.7895 -0.0660 -0.1960
13618TIP3    H162269   2.716   5.785  15.563  1.0376  0.3672 -0.8892
13618TIP3    H262270   2.747   5.933  15.569 -0.3019  0.6463 -0.6640
13619TIP3   OH262271   2.548   4.638   2.540 -0.1319  0.2074  0.1808
13619TIP3    H162272   2.598   4.557   2.528  0.6512  0.8647 -1.1450
13619TIP3    H262273   2.523   4.637   2.632  0.3143 -1.2904  0.3057
13620TIP3   OH262274   3.984   6.125   4.675  0.1251  0.1759  0.2449
13620TIP3    H162275   4.042   6.107   4.601  0.5399 -1.7368  1.0051
13620TIP3    H262276   3.904   6.159   4.635  0.1175 -1.3963 -1.1308
13621TIP3   OH262277   5.871   0.328   0.102  0.5258  0.0163 -0.0325
13621TIP3    H162278   5.796   0.385   0.119 -0.0076 -0.4552 -0.7578
13621TIP3    H262279   5.904   0.305   0.189  0.9006  1.6113  0.2691
13622TIP3   OH262280   4.382   2.760   1.476 -0.0951  0.7730 -0.4934
13622TIP3    H162281   4.419   2.842   1.442  1.1550  0.1185 -0.7386
13622TIP3    H262282   4.288   2.774   1.475  0.0762  1.9066 -1.3194
13623TIP3   OH262283   6.728   2.515  13.516 -0.0106 -0.2992  0.2081
13623TIP3    H162284   6.646   2.486  13.478  0.2627  1.0640 -1.5030
13623TIP3    H262285   6.709   2.528  13.609 -1.5728 -0.5050 -0.0757
13624TIP3   OH262286   2.843   1.630   1.336  0.0310  0.5338  0.1226
13624TIP3    H162287   2.878   1.636   1.247 -0.3291  0.3783 -0.0324
13624TIP3    H262288   2.748   1.629   1.324 -0.0348  1.1647  0.5482
13625TIP3   OH262289   3.786   2.798  11.584  0.0321 -0.4406  0.2985
13625TIP3    H162290   3.830   2.842  11.656  4.7045 -0.4524 -2.3457
13625TIP3    H262291   3.832   2.828  11.505 -2.0361 -3.6590 -2.3027
13626TIP3   OH262292   1.001   5.664   5.691  0.2689  0.1859 -0.3238
13626TIP3    H162293   1.046   5.610   5.756 -1.7695 -0.4281  0.5986
13626TIP3    H262294   1.031   5.630   5.607 -0.2155 -1.7317  0.2609
13627TIP3   OH262295   0.713   5.608  13.980 -0.0094 -0.2951  0.3890
13627TIP3    H162296   0.748   5.696  13.978 -2.4141  0.7342  1.4275
13627TIP3    H262297   0.676   5.595  13.893  0.7546 -0.4675  0.0866
13628TIP3   OH262298   0.701   1.402  15.265  0.6590  0.0707  0.1214
13628TIP3    H162299   0.608   1.418  15.246  0.1611 -0.7717  1.7541
13628TIP3    H262300   0.710   1.307  15.264  1.5011  0.1452  0.0219
13629TIP3   OH262301   6.755   2.774  13.489 -0.2209 -0.2813 -0.0132
13629TIP3    H162302   6.768   2.685  13.456 -1.2590 -0.0858 -0.9529
13629TIP3    H262303   6.744   2.762  13.584 -0.1207 -1.1217 -0.0977
13630TIP3   OH262304   1.845   5.914  11.869 -0.7956  0.0548  0.3679
13630TIP3    H162305   1.824   5.965  11.947 -0.2415  1.2012 -0.2287
13630TIP3    H262306   1.933   5.882  11.885 -0.7417  0.1584  0.2722
13631TIP3   OH262307   6.194   2.088  13.220  0.3973  0.6986 -0.0226
13631TIP3    H162308   6.197   2.070  13.314 -1.7508  2.8216  0.4973
13631TIP3    H262309   6.183   2.001  13.179  0.4621 -0.1516  1.7252
13632TIP3   OH262310   2.139   4.265  15.173  0.1493  0.0607  0.0132
13632TIP3    H162311   2.133   4.172  15.195 -1.6788  0.2686  0.4488
13632TIP3    H262312   2.067   4.281  15.112  0.1535  1.2835  0.3066
13633TIP3   OH262313   0.969   0.792   5.968 -0.6400  0.5130  0.0533
13633TIP3    H162314   1.023   0.868   5.948 -0.4756  0.4641  0.3212
13633TIP3    H262315   0.917   0.819   6.044  0.8048 -0.3199  1.3597
13634TIP3   OH262316   1.805   6.584  16.051  0.6688 -0.3037 -0.5456
13634TIP3    H162317   1.758   6.508  16.086  0.8339 -0.9810 -1.7780
13634TIP3    H262318   1.747   6.658  16.070  0.1471 -0.8367 -0.0194
13635TIP3   OH262319   5.178   0.349  17.025 -0.1446 -0.7328  0.5920
13635TIP3    H162320   5.231   0.356  17.104  0.6738 -1.1695  0.0933
13635TIP3    H262321   5.233   0.300  16.964 -0.4290  0.3193 -0.5336
13636TIP3   OH262322   2.062   5.065  12.951  0.2746 -0.1554  0.8276
13636TIP3    H162323   2.127   5.003  12.982  0.1736 -0.9713 -0.5354
13636TIP3    H262324   1.986   5.011  12.930  0.1575  0.4219 -0.2798
13637TIP3   OH262325   0.446   5.928  12.081 -0.5652  0.1407 -0.2651
13637TIP3    H162326   0.429   5.852  12.026 -0.7446  0.1759 -0.2574
13637TIP3    H262327   0.541   5.942  12.073 -0.3665 -0.7081  0.5575
13638TIP3   OH262328   0.131   5.667  11.985  0.2852  0.2205 -0.2030
13638TIP3    H162329   0.106   5.740  12.042 -0.4286 -0.6691  0.6399
13638TIP3    H262330   0.057   5.656  11.926  0.8284  0.8371 -1.0098
13639TIP3   OH262331   5.309   0.424  16.552 -0.4143  0.4082  0.0109
13639TIP3    H162332   5.388   0.409  16.603 -0.3134 -0.6752 -0.4425
13639TIP3    H262333   5.290   0.517  16.564 -0.2515  0.2290  1.7841
13640TIP3   OH262334   2.718   3.889  16.270  0.1574 -0.6063 -0.1062
13640TIP3    H162335   2.682   3.977  16.280  1.1124 -0.0522 -1.4086
13640TIP3    H262336   2.771   3.876  16.349  1.0942  0.5298 -0.5281
13641TIP3   OH262337   0.839   3.066  14.754 -0.2095  0.5465 -0.6278
13641TIP3    H162338   0.879   2.985  14.786 -0.6661  0.2678 -0.7625
13641TIP3    H262339   0.858   3.131  14.821  0.8007  0.5033 -0.8687
13642TIP3   OH262340   2.496   0.512  12.699 -0.1389 -0.0455 -0.5431
13642TIP3    H162341   2.449   0.593  12.720  0.8091  1.0207 -2.4143
13642TIP3    H262342   2.561   0.538  12.634  0.3112 -2.2866 -1.0298
13643TIP3   OH262343   4.403   1.574  12.310  0.2722  0.1986 -0.1360
13643TIP3    H162344   4.312   1.605  12.305  0.4313  0.5742 -0.6652
13643TIP3    H262345   4.456   1.652  12.294  0.7146  0.2669  1.5183
13644TIP3   OH262346   1.743   3.281  16.977 -0.0757  0.0560  0.1804
13644TIP3    H162347   1.732   3.345  16.907  0.8649 -0.4059 -0.3895
13644TIP3    H262348   1.832   3.247  16.966 -1.1960 -2.7135 -0.6594
13645TIP3   OH262349   0.389   3.615  12.304 -0.5088 -0.0996 -0.1571
13645TIP3    H162350   0.458   3.659  12.256 -0.3255  0.8742  0.9992
13645TIP3    H262351   0.314   3.616  12.245 -0.3808  1.3901 -0.3060
13646TIP3   OH262352   2.516   5.213   1.036  0.2249  0.1128 -0.1567
13646TIP3    H162353   2.481   5.266   0.965  1.4208  0.0843 -0.7875
13646TIP3    H262354   2.443   5.158   1.063 -0.8319  1.5962  0.0532
13647TIP3   OH262355   0.996   3.097   4.512 -0.6363 -0.3237  0.5001
13647TIP3    H162356   0.975   3.172   4.566  0.4278 -0.2803  0.8636
13647TIP3    H262357   1.061   3.048   4.563 -0.6002 -0.9681 -0.1586
13648TIP3   OH262358   3.073   3.287  10.626 -0.2967 -0.3524 -0.3484
13648TIP3    H162359   3.005   3.292  10.693 -0.5111 -0.1199 -0.5788
13648TIP3    H262360   3.043   3.348  10.558  0.6664  0.5468  0.0192
13649TIP3   OH262361   5.713   2.401  11.766 -0.0167  0.2273  0.8266
13649TIP3    H162362   5.776   2.466  11.795  1.2719 -0.0240 -1.3718
13649TIP3    H262363   5.765   2.334  11.721 -1.3187 -2.2697  2.8428
13650TIP3   OH262364   2.719   3.411   3.515  0.2407  0.0428  0.0018
13650TIP3    H162365   2.806   3.447   3.531 -0.1869  0.9112  0.4257
13650TIP3    H262366   2.675   3.416   3.600 -0.0881 -0.7651 -0.1159
13651TIP3   OH262367   4.692   0.569  13.160  0.1803 -0.0360  0.3103
13651TIP3    H162368   4.660   0.658  13.172 -0.0984 -0.2023  0.7821
13651TIP3    H262369   4.766   0.561  13.220  1.2726  0.4207 -0.9309
13652TIP3   OH262370   6.733   2.565   3.646  0.6209 -0.3267  0.0784
13652TIP3    H162371   6.798   2.553   3.576 -0.1990  0.7103 -0.8727
13652TIP3    H262372   6.665   2.500   3.627 -0.7161  1.4503 -1.4312
13653TIP3   OH262373   2.773   3.823  15.487  0.0350  0.0242 -0.2286
13653TIP3    H162374   2.788   3.768  15.410 -1.5837 -1.0743  0.2099
13653TIP3    H262375   2.710   3.889  15.458 -2.4782 -1.8345  0.7094
13654TIP3   OH262376   0.928   6.438   5.558 -0.0803 -0.2030 -0.2109
13654TIP3    H162377   0.909   6.502   5.627 -3.1651 -0.2814 -0.9436
13654TIP3    H262378   0.965   6.363   5.605 -1.5308  0.0078  1.3194
13655TIP3   OH262379   4.270   3.375  13.415 -0.4107  0.3064 -0.3974
13655TIP3    H162380   4.254   3.468  13.398 -0.2556  0.1960 -1.2005
13655TIP3    H262381   4.360   3.361  13.386 -1.0715 -0.5143 -2.1738
13656TIP3   OH262382   2.505   4.042   5.865  0.1927 -0.1094 -0.1625
13656TIP3    H162383   2.596   4.026   5.891 -0.0247 -0.3114  0.4980
13656TIP3    H262384   2.511   4.111   5.799  0.6567  1.5490  1.5482
13657TIP3   OH262385   0.885   5.274  13.924 -0.5325  0.5594 -0.2741
13657TIP3    H162386   0.857   5.199  13.871  0.6520 -0.0992  0.0088
13657TIP3    H262387   0.815   5.286  13.988  0.1210 -1.4930  0.8649
13658TIP3   OH262388   3.465   2.382   0.532  0.4568 -0.3424 -0.2981
13658TIP3    H162389   3.556   2.400   0.506  0.1732  0.7373 -0.5799
13658TIP3    H262390   3.412   2.434   0.472 -0.1956  2.7918  2.8128
13659TIP3   OH262391   6.598   2.429  14.020  0.3544 -0.1157 -0.2940
13659TIP3    H162392   6.654   2.446  14.095 -0.8254  1.9204  0.1569
13659TIP3    H262393   6.518   2.391  14.058  0.0490  0.2312 -0.5819
13660TIP3   OH262394   3.192   0.766  12.035 -1.3098  0.7316 -0.0140
13660TIP3    H162395   3.255   0.838  12.033  1.0616 -1.2875 -1.3162
13660TIP3    H262396   3.119   0.795  11.981 -0.1845  1.9914 -0.8848
13661TIP3   OH262397   0.089   3.236   6.062  0.1875  0.3128 -0.5331
13661TIP3    H162398   0.061   3.283   6.141  1.0289 -0.3006  0.1251
13661TIP3    H262399   0.149   3.297   6.018 -0.0792  0.5458 -0.5831
13662TIP3   OH262400   5.802   0.251   0.557  0.2010 -0.0034 -0.0281
13662TIP3    H162401   5.708   0.260   0.572  0.2639  0.1204  0.2932
13662TIP3    H262402   5.842   0.262   0.643  0.4734 -0.6494 -0.0677
13663TIP3   OH262403   1.731   3.628  11.262 -0.5112  0.3094 -0.4281
13663TIP3    H162404   1.797   3.685  11.301 -1.9732  1.5301  0.2940
13663TIP3    H262405   1.734   3.548  11.314 -0.3426  0.7659  0.2625
13664TIP3   OH262406   1.400   3.326  16.789 -0.2348 -0.7969 -0.0634
13664TIP3    H162407   1.305   3.315  16.789 -0.3401  0.0809  0.2264
13664TIP3    H262408   1.424   3.329  16.882  0.1325 -1.4299 -0.1326
13665TIP3   OH262409   4.950   4.707  11.982  0.5606 -0.1061 -0.8127
13665TIP3    H162410   4.900   4.683  12.060  1.9619  0.5754  0.3356
13665TIP3    H262411   4.938   4.634  11.921 -0.9829 -0.4013 -0.1703
13666TIP3   OH262412   0.605   0.253  13.076 -0.2626  0.3493 -0.3122
13666TIP3    H162413   0.696   0.268  13.104 -0.6348  1.1018  0.4964
13666TIP3    H262414   0.612   0.242  12.981  0.7786 -0.4424 -0.1559
13667TIP3   OH262415   0.850   3.241  12.996 -0.0278 -0.2077  0.1142
13667TIP3    H162416   0.830   3.187  12.920 -0.4459  0.5858 -0.3509
13667TIP3    H262417   0.896   3.183  13.056 -0.3312 -1.0301 -0.4461
13668TIP3   OH262418   4.810   5.646  10.914 -0.7578  1.0195  0.1250
13668TIP3    H162419   4.737   5.611  10.965 -0.2519  2.5208  1.9232
13668TIP3    H262420   4.769   5.687  10.838 -1.6531  0.3019  0.2177
13669TIP3   OH262421   5.886   3.889   0.583 -0.5846  0.0193 -0.3134
13669TIP3    H162422   5.879   3.795   0.564  0.5044  0.0906 -1.1532
13669TIP3    H262423   5.932   3.925   0.507  0.0163  1.0407  0.5177
13670TIP3   OH262424   4.681   2.921  14.047 -0.1602 -0.2503  0.1324
13670TIP3    H162425   4.684   2.852  13.981  0.8574  0.3912 -0.5149
13670TIP3    H262426   4.680   3.002  13.997  3.3349  0.3485  0.8519
13671TIP3   OH262427   4.019   6.766  16.755 -0.0188 -0.0812 -0.7184
13671TIP3    H162428   4.039   6.683  16.797  1.8363  0.7212  0.0642
13671TIP3    H262429   3.931   6.789  16.786 -1.4367 -2.7258 -2.6131
13672TIP3   OH262430   0.270   1.922   2.436 -0.1511  1.2368 -0.0595
13672TIP3    H162431   0.244   2.012   2.458  0.2908  0.7928  2.3107
13672TIP3    H262432   0.233   1.868   2.506  0.4262 -0.3306 -0.9454
13673TIP3   OH262433   4.710   2.691  14.320  0.1362 -0.0800  0.6742
13673TIP3    H162434   4.781   2.726  14.266 -1.2146  0.8483 -0.5382
13673TIP3    H262435   4.749   2.618  14.367  1.6766 -0.1020 -0.6080
13674TIP3   OH262436   5.090   0.452  14.293  0.2828 -0.2524  0.0274
13674TIP3    H162437   5.032   0.384  14.328  0.7155 -0.6330  0.0011
13674TIP3    H262438   5.099   0.515  14.364 -0.5297  0.0467 -0.1175
13675TIP3   OH262439   4.491   4.151  11.905 -0.3025 -0.1728 -0.5694
13675TIP3    H162440   4.440   4.075  11.879 -1.0305  0.4870 -1.0805
13675TIP3    H262441   4.442   4.226  11.872  0.9953  0.4734 -1.0694
13676TIP3   OH262442   0.348   5.484   4.068 -0.1112 -0.2730  0.8262
13676TIP3    H162443   0.362   5.534   3.988 -0.2558 -0.9447  0.3829
13676TIP3    H262444   0.322   5.550   4.133 -0.8819  0.1485  0.0956
13677TIP3   OH262445   4.991   5.487  15.687  0.6319  0.0084 -0.3696
13677TIP3    H162446   4.957   5.426  15.622  0.4302 -0.2980  0.0170
13677TIP3    H262447   5.077   5.513  15.654  0.6819 -0.4217 -0.5776
13678TIP3   OH262448   6.048   0.843  13.447 -0.2172  0.1044  0.0392
13678TIP3    H162449   6.100   0.923  13.446  0.6908 -0.4933 -0.7594
13678TIP3    H262450   6.083   0.790  13.376 -1.7137 -0.4380 -0.3119
13679TIP3   OH262451   4.609   4.584  14.334  0.4779 -0.5140 -0.1741
13679TIP3    H162452   4.642   4.673  14.322  0.6719 -0.6192 -0.4220
13679TIP3    H262453   4.658   4.531  14.270  0.1428 -0.7443 -0.2399
13680TIP3   OH262454   2.815   5.344  13.261 -0.5300 -0.2135  0.5653
13680TIP3    H162455   2.787   5.325  13.351  0.4670 -1.9725  0.5409
13680TIP3    H262456   2.816   5.258  13.218  1.4163  0.2652 -0.4042
13681TIP3   OH262457   3.349   2.253   5.559  0.1856 -0.2145 -0.1932
13681TIP3    H162458   3.313   2.341   5.562  0.9402  0.0438  2.4137
13681TIP3    H262459   3.419   2.253   5.625  1.3086 -2.2754 -1.3091
13682TIP3   OH262460   3.992   4.334  12.413  1.1691  0.7532  0.4920
13682TIP3    H162461   3.923   4.401  12.415  0.2144 -0.2705  2.4292
13682TIP3    H262462   3.978   4.288  12.330  1.9052  2.9852 -0.9310
13683TIP3   OH262463   3.798   0.169   1.066  0.3946 -0.4691 -0.2737
13683TIP3    H162464   3.790   0.074   1.057  1.8284 -0.6772  0.3904
13683TIP3    H262465   3.892   0.183   1.079  0.4268  1.2023 -2.1268
13684TIP3   OH262466   3.952   6.026   2.331  0.4639 -0.7279  0.0583
13684TIP3    H162467   3.933   5.942   2.287 -0.0004 -0.2499 -0.6718
13684TIP3    H262468   4.045   6.041   2.314  0.1937 -0.3400 -1.1538
13685TIP3   OH262469   1.059   3.709   0.392 -0.0082  0.3377  0.0018
13685TIP3    H162470   0.980   3.740   0.346 -0.4230 -1.9853 -0.9382
13685TIP3    H262471   1.125   3.701   0.323 -0.2355 -1.8600  0.0037
13686TIP3   OH262472   4.457   1.212   4.045 -0.1457 -0.3152 -0.0287
13686TIP3    H162473   4.373   1.170   4.067 -0.2433 -0.1722 -0.1342
13686TIP3    H262474   4.453   1.297   4.089  0.2991 -0.6583  0.6806
13687TIP3   OH262475   2.253   3.415  12.101  0.1292 -0.0411  0.6053
13687TIP3    H162476   2.173   3.453  12.137 -0.2528 -0.1785 -0.0831
13687TIP3    H262477   2.316   3.487  12.098 -0.8646  0.7716 -1.5201
13688TIP3   OH262478   1.416   5.577   3.747  0.2967  0.0706 -0.8088
13688TIP3    H162479   1.509   5.599   3.738  0.4251 -0.8286 -1.7102
13688TIP3    H262480   1.372   5.662   3.748  1.4679  0.7791  4.1412
13689TIP3   OH262481   4.449   6.624  13.655  0.5140 -0.3645  0.4757
13689TIP3    H162482   4.467   6.684  13.582 -1.6994 -0.3756 -0.0883
13689TIP3    H262483   4.404   6.677  13.720  0.0967 -0.9935  0.7064
13690TIP3   OH262484   4.670   5.278  11.338  0.0819 -0.0828  0.2544
13690TIP3    H162485   4.607   5.274  11.266 -0.6606 -1.1750  0.9469
13690TIP3    H262486   4.755   5.263  11.297 -0.0476  1.7401 -0.7403
13691TIP3   OH262487   4.852   4.923   5.776 -0.5751 -0.2584 -0.4180
13691TIP3    H162488   4.800   4.915   5.696  1.0742  0.7445 -1.6416
13691TIP3    H262489   4.891   5.010   5.771  0.2537 -0.5202  1.0569
13692TIP3   OH262490   1.502   3.548   6.044 -0.0213 -0.0263 -0.4013
13692TIP3    H162491   1.431   3.610   6.059  1.1972  0.8127  2.2809
13692TIP3    H262492   1.462   3.462   6.061 -0.0915  0.5368  2.6212
13693TIP3   OH262493   1.200   0.841  16.263 -0.2063  0.0003 -0.4856
13693TIP3    H162494   1.272   0.905  16.267 -0.3181  0.2861 -2.6731
13693TIP3    H262495   1.172   0.843  16.172 -0.1911 -3.2304 -0.5918
13694TIP3   OH262496   3.337   5.764   4.236 -0.1121  0.3502  0.0932
13694TIP3    H162497   3.431   5.749   4.236 -0.1605  0.0580  0.4035
13694TIP3    H262498   3.327   5.854   4.268  0.0719  0.4509 -0.1301
13695TIP3   OH262499   3.138   6.018   3.448 -0.2670  0.4105  0.2322
13695TIP3    H162500   3.180   6.103   3.438  0.2366  0.3936  2.0242
13695TIP3    H262501   3.186   5.960   3.388  0.1052  1.1305 -0.1714
13696TIP3   OH262502   6.100   4.116  15.520  0.1030 -0.0410 -0.0689
13696TIP3    H162503   6.048   4.109  15.600 -1.8154  1.2126 -1.1759
13696TIP3    H262504   6.052   4.063  15.456  1.3821 -0.6688 -0.5248
13697TIP3   OH262505   3.851   1.012   0.804  0.1677 -0.0925  0.4980
13697TIP3    H162506   3.848   1.063   0.724  0.3231 -0.7571  0.0635
13697TIP3    H262507   3.790   1.056   0.863 -3.5462 -2.2071 -1.5522
13698TIP3   OH262508   4.132   4.191   4.200 -0.6986 -0.4022  0.1239
13698TIP3    H162509   4.101   4.136   4.271 -0.5676  0.3906  0.8063
13698TIP3    H262510   4.058   4.195   4.138 -0.2901 -2.3041 -0.5291
13699TIP3   OH262511   3.584   1.217   0.648 -0.2453 -0.1699 -0.5023
13699TIP3    H162512   3.599   1.144   0.589  0.1802  0.4694 -1.1991
13699TIP3    H262513   3.586   1.294   0.591  2.5120  0.6782  0.6675
13700TIP3   OH262514   1.607   4.203   6.302 -0.0258  0.7176 -0.0206
13700TIP3    H162515   1.600   4.290   6.341  0.9616  0.0176  1.7705
13700TIP3    H262516   1.638   4.219   6.212  0.9230  2.1722  0.5523
13701TIP3   OH262517   1.447   2.067   4.199  0.3552 -0.2402 -0.3437
13701TIP3    H162518   1.483   2.108   4.277  2.0451  1.0895 -1.7737
13701TIP3    H262519   1.352   2.076   4.208  0.5084 -0.5463  1.7650
13702TIP3   OH262520   6.368   6.774   4.139  0.0669  0.0609 -0.1368
13702TIP3    H162521   6.307   6.847   4.127  0.3408  0.0880 -1.4823
13702TIP3    H262522   6.313   6.696   4.144 -0.1885  0.2886  0.6606
13703TIP3   OH262523   0.800   5.794   1.510  0.0412  0.1278  0.1616
13703TIP3    H162524   0.756   5.829   1.588 -0.9212 -1.2895  0.2799
13703TIP3    H262525   0.872   5.742   1.544  0.8784  1.1735  0.0188
13704TIP3   OH262526   1.553   1.538   0.961  0.0549  0.5415 -0.3860
13704TIP3    H162527   1.470   1.489   0.952 -0.2911  1.0831 -0.1590
13704TIP3    H262528   1.531   1.627   0.933 -0.0949  1.3289  2.1276
13705TIP3   OH262529   1.735   5.244   1.244  0.5365 -0.3188  0.6581
13705TIP3    H162530   1.685   5.265   1.324  0.6925 -1.4520  1.0621
13705TIP3    H262531   1.817   5.207   1.276  1.8020  1.7994 -0.0005
13706TIP3   OH262532   0.911   3.706  16.689  0.2699  0.8997  0.2989
13706TIP3    H162533   0.879   3.733  16.602  0.4137  0.5123  0.1273
13706TIP3    H262534   0.898   3.784  16.744  1.7614  1.7396 -0.4859
13707TIP3   OH262535   1.285   6.113   3.070  0.0628 -0.0682  0.4503
13707TIP3    H162536   1.290   6.075   2.982 -1.7476  0.6267  0.0160
13707TIP3    H262537   1.373   6.101   3.107  0.7889 -0.5423 -1.3786
13708TIP3   OH262538   4.260   0.463   2.649  0.1380  0.9554 -0.2268
13708TIP3    H162539   4.233   0.555   2.646  0.1520  0.9332 -1.1203
13708TIP3    H262540   4.308   0.455   2.732 -0.0443  1.7036 -0.0452
13709TIP3   OH262541   0.500   3.797   1.049 -0.2290  0.3701  0.4270
13709TIP3    H162542   0.527   3.724   1.104 -1.5454 -0.0583  0.5272
13709TIP3    H262543   0.405   3.803   1.062 -0.5130  0.4851 -1.5013
13710TIP3   OH262544   6.397   0.822  13.809  0.3690  0.2375 -0.1858
13710TIP3    H162545   6.463   0.770  13.855 -1.4365 -1.3511  0.6562
13710TIP3    H262546   6.362   0.763  13.742 -0.5308  0.9119 -0.3129
13711TIP3   OH262547   4.910   2.202  15.924  0.0804  0.3069  0.1260
13711TIP3    H162548   4.820   2.200  15.892  0.7758 -1.2576 -1.8696
13711TIP3    H262549   4.932   2.110  15.939  1.6724  0.5781 -0.3881
13712TIP3   OH262550   6.643   4.913   0.701 -0.5798  0.0662 -0.1143
13712TIP3    H162551   6.710   4.895   0.635 -0.1741  0.1561  0.2677
13712TIP3    H262552   6.666   5.000   0.735  0.6759 -1.0025  1.8784
13713TIP3   OH262553   5.797   1.134  15.606 -0.2490  0.1135 -0.2597
13713TIP3    H162554   5.794   1.105  15.515 -0.1964  1.0501 -0.5619
13713TIP3    H262555   5.772   1.226  15.603  0.0448  0.2272  0.6374
13714TIP3   OH262556   5.289   6.145   4.068  0.3305  0.1650  0.3024
13714TIP3    H162557   5.235   6.114   4.141  1.3622  1.3862  1.6055
13714TIP3    H262558   5.347   6.071   4.048 -0.8882 -0.6682 -0.2184
13715TIP3   OH262559   3.889   4.414  15.101 -0.3344  0.1352  0.7299
13715TIP3    H162560   3.897   4.399  15.007 -0.0500  2.3901  0.3676
13715TIP3    H262561   3.795   4.418  15.117 -0.3677  1.0873  0.3113
13716TIP3   OH262562   3.550   5.731   3.293 -0.0375 -0.1764 -0.0906
13716TIP3    H162563   3.590   5.698   3.212 -0.5757 -0.3555 -0.2886
13716TIP3    H262564   3.624   5.758   3.347  0.3674 -0.8141 -0.3167
13717TIP3   OH262565   3.054   2.069   3.203 -0.1911 -0.2956 -0.6161
13717TIP3    H162566   2.978   2.065   3.261 -1.9908  1.1061 -2.7626
13717TIP3    H262567   3.128   2.089   3.260 -1.2318 -2.5832  1.6604
13718TIP3   OH262568   2.925   3.100  16.811 -0.2547 -0.0634 -0.1741
13718TIP3    H162569   2.867   3.027  16.789 -2.5670  1.3567  0.9637
13718TIP3    H262570   2.894   3.172  16.756 -0.6340  1.1630  1.6103
13719TIP3   OH262571   6.338   1.269   5.246  0.0405  0.4793 -0.2990
13719TIP3    H162572   6.286   1.216   5.186  0.2446  0.2421 -0.2679
13719TIP3    H262573   6.428   1.243   5.229  0.0203 -0.4646  0.9439
13720TIP3   OH262574   5.036   3.402   5.222  0.3830  0.6698  0.0948
13720TIP3    H162575   5.039   3.497   5.212  1.5186  0.3706 -2.7225
13720TIP3    H262576   5.118   3.380   5.267  0.3662  0.9689  0.2725
13721TIP3   OH262577   5.337   0.549  13.001 -0.0184  0.8712 -0.1294
13721TIP3    H162578   5.277   0.489  12.956 -0.2799  0.5648  0.6181
13721TIP3    H262579   5.283   0.588  13.071  0.9151 -0.1408  1.1677
13722TIP3   OH262580   4.981   6.037   4.741 -0.2385 -0.5125 -0.1390
13722TIP3    H162581   4.969   6.114   4.686 -1.8038 -1.1542 -0.7221
13722TIP3    H262582   5.038   6.067   4.812  0.5258  0.7288 -1.2634
13723TIP3   OH262583   4.991   0.065  12.545 -0.5601  0.3124 -0.3653
13723TIP3    H162584   4.988   0.147  12.496  0.5888  0.3471 -0.3882
13723TIP3    H262585   4.992   0.092  12.637  1.2449  0.3860 -0.3900
13724TIP3   OH262586   5.874   5.417   1.057  0.0888 -0.2998 -0.2543
13724TIP3    H162587   5.918   5.336   1.085 -2.2725 -0.9908  1.5863
13724TIP3    H262588   5.796   5.387   1.010 -0.9763  0.9033  0.7126
13725TIP3   OH262589   3.167   1.274  12.713  0.4453 -0.0502  0.9351
13725TIP3    H162590   3.214   1.326  12.648  2.1455 -1.5046  0.9597
13725TIP3    H262591   3.154   1.189  12.671 -3.1569  0.6321  0.5334
13726TIP3   OH262592   3.050   6.175  14.226  0.0042  0.1585 -0.3537
13726TIP3    H162593   3.074   6.139  14.311 -0.7392 -0.4121 -0.3749
13726TIP3    H262594   2.958   6.150  14.214  0.3992 -0.6748 -1.7832
13727TIP3   OH262595   1.718   0.498   3.593  0.0221  0.4071  0.1965
13727TIP3    H162596   1.652   0.470   3.656  0.8462  1.5221  1.5834
13727TIP3    H262597   1.746   0.417   3.549 -1.1037 -0.2722  0.7299
13728TIP3   OH262598   6.200   4.795   1.954 -0.0679 -0.0545 -0.2492
13728TIP3    H162599   6.255   4.729   1.997  0.4883  0.4190 -0.2224
13728TIP3    H262600   6.111   4.765   1.968  0.1559 -0.4618  0.3188
13729TIP3   OH262601   4.105   3.289   6.215 -0.2020  0.1356  0.6591
13729TIP3    H162602   4.024   3.320   6.176  0.5648 -0.6704 -1.6628
13729TIP3    H262603   4.169   3.357   6.194  0.6200 -1.1424 -1.1194
13730TIP3   OH262604   5.141   2.338  16.464 -0.5139  0.3015 -0.6511
13730TIP3    H162605   5.092   2.359  16.544 -0.6486 -0.9760 -0.3797
13730TIP3    H262606   5.173   2.422  16.432  0.1046  0.7505  1.1090
13731TIP3   OH262607   5.579   0.382  16.013  0.0957 -0.2631  0.3842
13731TIP3    H162608   5.639   0.392  16.087  1.6266 -0.3325 -0.8180
13731TIP3    H262609   5.530   0.302  16.032  1.1827 -0.8282  0.8343
13732TIP3   OH262610   1.964   4.822   4.897  0.3545 -0.3917 -0.0448
13732TIP3    H162611   1.880   4.866   4.887  0.0208 -0.8546  0.6401
13732TIP3    H262612   1.977   4.815   4.992  1.7366  0.7327 -0.1298
13733TIP3   OH262613   6.232   0.894  11.765 -0.0473 -0.3923 -0.1660
13733TIP3    H162614   6.326   0.909  11.776 -0.4644  0.4541  2.5639
13733TIP3    H262615   6.195   0.982  11.752 -0.3538 -0.8255 -2.4484
13734TIP3   OH262616   3.436   6.424  16.504 -0.0778  0.3656  0.2981
13734TIP3    H162617   3.483   6.506  16.491 -0.1839  0.5452  1.0358
13734TIP3    H262618   3.415   6.394  16.415  1.5920  0.1691 -0.0422
13735TIP3   OH262619   1.265   6.411  12.724 -0.3333  0.5751  0.5593
13735TIP3    H162620   1.206   6.336  12.723 -0.3874  0.6316 -0.9445
13735TIP3    H262621   1.292   6.423  12.633  0.2357  1.9377  0.8854
13736TIP3   OH262622   5.395   3.216  12.970 -0.5449  1.2688  0.0220
13736TIP3    H162623   5.353   3.290  13.013 -0.3505  0.7599  1.1067
13736TIP3    H262624   5.472   3.197  13.024  0.1782  1.1551 -1.0250
13737TIP3   OH262625   1.866   0.175   6.542 -0.2219 -0.0631  0.5652
13737TIP3    H162626   1.911   0.212   6.466 -0.6081  0.9786  0.8383
13737TIP3    H262627   1.927   0.109   6.576 -0.0337 -0.5123 -0.6246
13738TIP3   OH262628   6.141   1.612  13.475 -0.2705 -0.6468 -0.2865
13738TIP3    H162629   6.107   1.526  13.500  1.5406 -0.7956  1.8437
13738TIP3    H262630   6.234   1.607  13.495 -0.3940  2.2654  1.2120
13739TIP3   OH262631   2.723   3.869  11.486  0.2823 -0.2924 -0.1834
13739TIP3    H162632   2.818   3.854  11.494  0.6636  1.5498 -0.9878
13739TIP3    H262633   2.713   3.913  11.401 -1.1908  0.4078  0.3357
13740TIP3   OH262634   0.087   0.949  11.922 -0.5892 -0.4745  0.4216
13740TIP3    H162635   0.138   1.028  11.940  0.5281 -1.4316  1.5225
13740TIP3    H262636   0.043   0.930  12.005 -0.4796 -1.2755  0.2965
13741TIP3   OH262637   1.780   6.674  11.306  0.3563  0.3492 -0.3361
13741TIP3    H162638   1.741   6.614  11.369 -1.3376  2.2434  0.4798
13741TIP3    H262639   1.868   6.640  11.291 -0.7942 -2.7122 -0.4394
13742TIP3   OH262640   1.822   6.619  13.649  0.2948  0.0715 -0.0095
13742TIP3    H162641   1.811   6.712  13.628  0.4843 -0.0821 -0.7980
13742TIP3    H262642   1.778   6.573  13.577 -2.3863 -0.4298  1.8717
13743TIP3   OH262643   2.296   3.819   1.750 -0.2749  0.1730  0.5905
13743TIP3    H162644   2.254   3.874   1.816  0.7821  2.2382 -0.3901
13743TIP3    H262645   2.233   3.815   1.678 -0.0090  0.8057  0.3214
13744TIP3   OH262646   5.618   6.280  15.381 -0.2512 -0.1659  0.8365
13744TIP3    H162647   5.538   6.248  15.423 -1.6942  0.8354 -1.0745
13744TIP3    H262648   5.639   6.214  15.316 -1.7539  1.4183 -1.3179
13745TIP3   OH262649   0.403   6.666   5.453  0.1290  0.1394  0.0306
13745TIP3    H162650   0.404   6.689   5.360 -0.1235  0.4260  0.0970
13745TIP3    H262651   0.347   6.733   5.494  0.0074 -0.1506  0.3428
13746TIP3   OH262652   4.737   2.171  16.612  0.2098 -0.1945  0.3642
13746TIP3    H162653   4.710   2.080  16.600 -0.3731  0.0156  0.0533
13746TIP3    H262654   4.678   2.221  16.556 -0.7735  0.5633  2.0209
13747TIP3   OH262655   4.954   6.529   3.089 -0.0849 -0.4986  0.0054
13747TIP3    H162656   4.914   6.567   3.167  0.2539  0.0253 -0.0666
13747TIP3    H262657   4.880   6.505   3.034 -0.3595 -2.4093  1.1886
13748TIP3   OH262658   0.070   4.115  12.665 -0.0468 -0.1755 -0.0067
13748TIP3    H162659   0.041   4.092  12.577  0.5152  0.3439 -0.3296
13748TIP3    H262660   0.124   4.193  12.653 -0.6658  0.4076  0.8949
13749TIP3   OH262661   6.420   0.069   1.443 -0.2047  0.5439  0.0059
13749TIP3    H162662   6.445   0.161   1.432  0.7475  0.2576 -0.2917
13749TIP3    H262663   6.496   0.020   1.411 -0.6186 -0.3447  0.3783
13750TIP3   OH262664   1.309   6.197  11.874  0.2607  0.5057  0.2616
13750TIP3    H162665   1.233   6.226  11.924 -0.3169 -0.0490 -0.2895
13750TIP3    H262666   1.290   6.106  11.851  1.8066 -0.1369  1.4933
13751TIP3   OH262667   5.045   2.130   5.367 -0.2453  0.1611  0.3313
13751TIP3    H162668   5.021   2.091   5.451 -0.4844  0.7380  0.5335
13751TIP3    H262669   5.111   2.195   5.390  0.0738 -0.0469  0.0070
13752TIP3   OH262670   6.109   6.181   2.356  0.1146 -0.0077 -0.1978
13752TIP3    H162671   6.195   6.145   2.375 -0.1379 -0.4366  0.1698
13752TIP3    H262672   6.080   6.136   2.277 -0.1158 -0.4737  0.1472
13753TIP3   OH262673   2.103   0.358  12.601  0.3698 -0.4028  0.0321
13753TIP3    H162674   2.090   0.362  12.696  4.5690 -0.0432  0.7057
13753TIP3    H262675   2.075   0.444  12.569  0.3358  0.0046  1.1442
13754TIP3   OH262676   0.374   3.598  12.573 -0.0922  0.5331  0.7429
13754TIP3    H162677   0.327   3.648  12.640 -2.9900 -1.0985  0.0337
13754TIP3    H262678   0.354   3.643  12.491 -0.3017 -0.0832  0.4534
13755TIP3   OH262679   5.233   0.336  13.220  0.3225  0.7295  0.1708
13755TIP3    H162680   5.238   0.275  13.294  1.4034 -0.2036 -0.6438
13755TIP3    H262681   5.283   0.292  13.150  1.5153  2.7466 -0.2833
13756TIP3   OH262682   0.562   0.688  13.257 -0.8331 -0.0008  1.0328
13756TIP3    H162683   0.575   0.772  13.301  1.2278 -0.3097  1.1009
13756TIP3    H262684   0.558   0.711  13.164  0.9318  0.1049  0.9515
13757TIP3   OH262685   2.182   6.335  17.153 -0.4312 -0.4829 -0.6821
13757TIP3    H162686   2.250   6.311  17.215 -0.0218 -0.4682 -1.1221
13757TIP3    H262687   2.216   6.307  17.068 -1.0698 -0.6831 -0.8797
13758TIP3   OH262688   1.774   5.598   3.450  0.3122 -0.3868 -0.4039
13758TIP3    H162689   1.762   5.656   3.524 -0.7640  1.6127 -2.1048
13758TIP3    H262690   1.860   5.621   3.415  0.3363 -0.5523 -0.4537
13759TIP3   OH262691   0.927   6.275  12.647  0.0757  0.8167 -0.1998
13759TIP3    H162692   0.968   6.273  12.734 -0.9271  2.0465  0.3129
13759TIP3    H262693   0.886   6.189  12.639  1.2288  0.2329  0.0202
13760TIP3   OH262694   1.685   6.616  13.953  0.6785  0.2818  0.0621
13760TIP3    H162695   1.740   6.619  13.875 -0.7100 -0.1961 -0.9417
13760TIP3    H262696   1.601   6.652  13.925 -0.4089 -1.5658  0.8377
13761TIP3   OH262697   3.749   3.378   1.885 -0.0029 -0.0461  0.0454
13761TIP3    H162698   3.839   3.364   1.856 -0.8622 -0.9660 -2.2725
13761TIP3    H262699   3.733   3.308   1.948  0.3935 -0.8491 -0.7362
13762TIP3   OH262700   0.372   6.329  11.470  0.0516  0.0570 -0.7833
13762TIP3    H162701   0.335   6.375  11.545 -0.8953  0.3522 -1.4198
13762TIP3    H262702   0.466   6.335  11.482 -0.0930 -0.2869  0.6185
13763TIP3   OH262703   2.756   4.602   5.357  0.1864  0.0490  0.1541
13763TIP3    H162704   2.699   4.677   5.374 -0.0116 -0.1035  0.1525
13763TIP3    H262705   2.815   4.632   5.288  0.4874  0.4047  0.5568
13764TIP3   OH262706   0.691   4.589  14.415  0.0546  0.4670  0.0027
13764TIP3    H162707   0.724   4.540  14.490  1.2677  0.2212 -0.6772
13764TIP3    H262708   0.722   4.678  14.428  1.8772  0.0202 -1.1429
13765TIP3   OH262709   4.441   5.633   3.534  0.2141  0.2918  0.3470
13765TIP3    H162710   4.465   5.648   3.626 -0.6297 -0.3966  0.6879
13765TIP3    H262711   4.361   5.580   3.538 -0.2181  0.8389 -0.7859
13766TIP3   OH262712   4.391   2.218   3.231 -0.5874 -0.5208 -0.6526
13766TIP3    H162713   4.415   2.127   3.247 -0.8911 -0.6533 -0.9428
13766TIP3    H262714   4.332   2.241   3.303 -1.0069 -0.7459 -0.9262
13767TIP3   OH262715   0.931   2.766  14.617  0.3639 -0.1648  0.1521
13767TIP3    H162716   0.886   2.778  14.701  0.9323  1.2945  0.2629
13767TIP3    H262717   1.016   2.728  14.641  0.2830 -0.3252  0.1848
13768TIP3   OH262718   5.419   2.793   0.840  0.2585  0.1468  0.2573
13768TIP3    H162719   5.354   2.760   0.778  0.6577  0.1413 -0.1656
13768TIP3    H262720   5.403   2.745   0.921  0.1104 -0.2724 -0.0183
13769TIP3   OH262721   3.899   0.563   1.785  0.2523  0.1951  0.2807
13769TIP3    H162722   3.945   0.508   1.722  0.5629  0.4570  0.2736
13769TIP3    H262723   3.930   0.533   1.871 -0.3705 -0.3374  0.3193
13770TIP3   OH262724   4.938   0.884  15.587 -0.3332 -0.0445 -1.0030
13770TIP3    H162725   4.869   0.882  15.653 -0.1797 -1.9139 -0.8734
13770TIP3    H262726   4.902   0.936  15.515 -0.9536  1.0062  0.0478
13771TIP3   OH262727   6.374   6.572   4.929  0.4940 -0.1052  0.1446
13771TIP3    H162728   6.335   6.491   4.897 -1.3247 -0.3709  2.8957
13771TIP3    H262729   6.411   6.613   4.851 -2.8094 -1.2128 -2.1051
13772TIP3   OH262730   1.330   4.973   5.177 -0.4496 -0.1576  0.2445
13772TIP3    H162731   1.253   4.917   5.167 -0.4485  0.3484 -3.3639
13772TIP3    H262732   1.403   4.916   5.153  0.1556 -0.1824  2.0970
13773TIP3   OH262733   1.706   4.042  17.111 -0.4362 -0.0256  0.2081
13773TIP3    H162734   1.748   4.050  17.025  1.4965  0.2788  1.1487
13773TIP3    H262735   1.675   3.952  17.115 -1.0410  0.1251 -1.0351
13774TIP3   OH262736   1.946   1.174   3.441  0.2338  0.1579 -0.2024
13774TIP3    H162737   1.889   1.232   3.492 -0.3429 -1.5656  1.1635
13774TIP3    H262738   1.965   1.101   3.500  0.3973 -1.3756 -2.1124
13775TIP3   OH262739   1.796   0.732   2.942 -0.2472  0.1821 -0.1917
13775TIP3    H162740   1.797   0.734   2.847  0.5362  0.4382 -0.1797
13775TIP3    H262741   1.705   0.709   2.965  0.3371 -3.3803 -1.0695
13776TIP3   OH262742   6.614   1.498   5.272  0.4437  0.2301 -0.2739
13776TIP3    H162743   6.620   1.454   5.357 -0.1050  0.1541 -0.2742
13776TIP3    H262744   6.592   1.588   5.293 -0.9043 -0.0696 -0.3938
13777TIP3   OH262745   0.610   1.410   4.857 -0.1014  0.0753  0.1479
13777TIP3    H162746   0.533   1.458   4.886 -0.0453 -0.6223  1.5214
13777TIP3    H262747   0.670   1.477   4.824 -1.5105  0.5602 -1.4689
13778TIP3   OH262748   5.406   2.023   4.056  0.5180 -0.2564 -0.3393
13778TIP3    H162749   5.392   1.928   4.047 -1.3728 -0.4057  3.0726
13778TIP3    H262750   5.334   2.062   4.006  0.1053 -0.6753 -0.0870
13779TIP3   OH262751   4.367   4.499   3.156 -0.4727  0.0603  0.0047
13779TIP3    H162752   4.322   4.415   3.152  0.7584 -0.5722 -1.1885
13779TIP3    H262753   4.303   4.563   3.125 -1.0049 -0.6189 -0.3037
13780TIP3   OH262754   6.444   0.310   3.511 -0.2719  0.6619 -0.4985
13780TIP3    H162755   6.366   0.333   3.460  0.6043 -0.1010 -2.1927
13780TIP3    H262756   6.497   0.257   3.452  1.0293  0.2381  1.0188
13781TIP3   OH262757   5.551   6.785  15.519  0.5490  0.4850  0.0035
13781TIP3    H162758   5.491   6.852  15.485 -0.2327 -0.5425 -0.6402
13781TIP3    H262759   5.621   6.781  15.453  0.1573  0.0531 -0.3832
13782TIP3   OH262760   3.834   0.396   0.345 -0.1560  0.0462 -0.1118
13782TIP3    H162761   3.834   0.320   0.403 -0.5153 -0.4566 -0.7599
13782TIP3    H262762   3.908   0.381   0.286 -0.5744 -0.0874 -0.6066
13783TIP3   OH262763   1.189   0.978  16.508 -0.6332  0.0618 -0.0381
13783TIP3    H162764   1.157   1.057  16.464  0.4183  0.3390 -0.3099
13783TIP3    H262765   1.217   0.921  16.437 -2.6224 -1.1139  0.0867
13784TIP3   OH262766   4.083   3.308  14.885  0.8545 -0.5042 -0.2900
13784TIP3    H162767   4.033   3.382  14.918  2.3667 -0.4945  2.0580
13784TIP3    H262768   4.175   3.334  14.896  1.3959 -2.0755 -0.9224
13785TIP3   OH262769   0.375   0.173   1.379  0.2441 -0.3818 -0.0965
13785TIP3    H162770   0.456   0.129   1.405 -0.9009 -3.0811 -0.9639
13785TIP3    H262771   0.383   0.261   1.416  3.5291 -0.5977 -0.1032
13786TIP3   OH262772   5.404   3.778   4.451 -0.5653 -0.0981  0.7712
13786TIP3    H162773   5.404   3.688   4.484 -1.2298 -0.7878 -1.0353
13786TIP3    H262774   5.475   3.821   4.499  0.6370 -1.9337  0.7059
13787TIP3   OH262775   4.949   0.219   3.069  0.2888  0.1820  0.1118
13787TIP3    H162776   4.865   0.249   3.035  1.0709  0.6828 -1.4149
13787TIP3    H262777   4.997   0.299   3.090  1.6126  0.0218 -2.0961
13788TIP3   OH262778   3.835   0.754   0.793 -0.4443 -0.9215  0.2439
13788TIP3    H162779   3.840   0.848   0.805 -1.9586 -1.2453  3.8790
13788TIP3    H262780   3.903   0.718   0.850  1.1680 -2.0240 -2.2539
13789TIP3   OH262781   2.276   6.784  16.030  0.4612 -0.2837  0.0969
13789TIP3    H162782   2.193   6.740  16.050  0.7131 -1.1648 -0.7449
13789TIP3    H262783   2.255   6.877  16.033 -0.5588 -0.4988 -0.1023
13790TIP3   OH262784   2.745   4.997  14.133 -0.0723 -0.2907  0.0470
13790TIP3    H162785   2.810   4.952  14.079  1.5158 -0.2191  1.8449
13790TIP3    H262786   2.769   5.090  14.127  0.8705 -0.4097  1.8405
13791TIP3   OH262787   5.472   4.398  14.890  0.2274 -0.4534 -0.2474
13791TIP3    H162788   5.491   4.443  14.808  0.4274 -0.4799 -0.2149
13791TIP3    H262789   5.450   4.308  14.863  1.3301 -0.7536 -0.1914
13792TIP3   OH262790   5.977   1.814  15.435 -0.1229 -0.2270  0.8296
13792TIP3    H162791   5.987   1.872  15.510  1.2865  1.0381 -0.2848
13792TIP3    H262792   5.931   1.867  15.370 -1.3763 -1.3204  0.8057
13793TIP3   OH262793   2.660   0.417   0.993 -0.0673  0.0204 -0.0030
13793TIP3    H162794   2.564   0.421   0.990 -0.0760  0.0881  0.3123
13793TIP3    H262795   2.687   0.508   1.000 -0.0156 -0.0539  0.8138
13794TIP3   OH262796   2.800   0.244  14.550 -0.4425  0.3717  0.0921
13794TIP3    H162797   2.711   0.216  14.529 -0.1120 -0.1911 -0.5910
13794TIP3    H262798   2.836   0.275  14.467  0.5069 -0.8535  0.0220
13795TIP3   OH262799   3.185   3.253  11.897 -0.5867 -0.1512 -0.3727
13795TIP3    H162800   3.280   3.254  11.891 -0.5989  2.7526 -1.1124
13795TIP3    H262801   3.164   3.174  11.946  2.1063 -1.6219 -1.5027
13796TIP3   OH262802   1.100   2.692  11.326  0.4351 -0.0653  0.5351
13796TIP3    H162803   1.135   2.660  11.409 -0.3086 -0.2045  0.8014
13796TIP3    H262804   1.134   2.631  11.261  2.6668  1.2119  0.4687
13797TIP3   OH262805   5.288   3.075  10.770  0.0526 -0.7328 -0.4626
13797TIP3    H162806   5.379   3.095  10.794 -0.4646 -0.9261  1.7292
13797TIP3    H262807   5.252   3.160  10.744  1.3694 -0.9636 -3.1754
13798TIP3   OH262808   2.217   5.728  12.910 -0.3115 -0.3034 -0.8075
13798TIP3    H162809   2.270   5.717  12.831 -1.1613  0.3101 -1.4771
13798TIP3    H262810   2.160   5.803  12.890  0.0429  0.3688  0.7096
13799TIP3   OH262811   5.378   1.266   5.280 -0.2443 -0.0364  0.1829
13799TIP3    H162812   5.434   1.199   5.242 -0.4401 -1.3540  2.1310
13799TIP3    H262813   5.290   1.229   5.277 -0.2663 -0.1719  1.8379
13800TIP3   OH262814   1.435   0.481  12.241 -0.2317 -0.1841 -0.4740
13800TIP3    H162815   1.519   0.469  12.285  1.4268 -2.1789 -4.0142
13800TIP3    H262816   1.431   0.575  12.221  0.7350  0.0605  0.4711
13801TIP3   OH262817   4.004   5.513  15.400 -0.0265 -0.3043  0.0456
13801TIP3    H162818   3.913   5.492  15.422  0.0511 -0.2668  0.4074
13801TIP3    H262819   4.040   5.549  15.481 -0.4211  2.1607 -0.8304
13802TIP3   OH262820   4.932   1.994   0.211  0.0106  0.3133 -0.1803
13802TIP3    H162821   4.994   2.033   0.273 -0.3369 -1.0974  1.1147
13802TIP3    H262822   4.987   1.954   0.144  0.6108 -1.9328  1.5703
13803TIP3   OH262823   1.565   1.451   4.893  0.2842 -0.1246  0.5217
13803TIP3    H162824   1.656   1.422   4.895  0.0462 -0.8866  0.2820
13803TIP3    H262825   1.528   1.410   4.816  0.0190  1.0558  0.0128
13804TIP3   OH262826   1.312   1.874   0.152  0.3725 -0.0763 -0.0231
13804TIP3    H162827   1.313   1.816   0.228 -0.0822 -1.1627 -0.8308
13804TIP3    H262828   1.392   1.926   0.161  1.8204 -2.1752 -0.2876
13805TIP3   OH262829   5.894   5.978  16.303  0.3066  0.3207 -0.0977
13805TIP3    H162830   5.860   5.970  16.213 -0.4860  0.8263  0.1588
13805TIP3    H262831   5.840   5.919  16.354  1.1654 -0.4437 -0.0513
13806TIP3   OH262832   4.457   0.242   5.779  0.1010 -0.0790 -1.2089
13806TIP3    H162833   4.538   0.223   5.826 -1.1962 -1.5200  0.5286
13806TIP3    H262834   4.485   0.265   5.691  2.3887 -0.6815 -0.6717
13807TIP3   OH262835   1.159   5.669   4.723 -0.4353  0.3556 -0.6052
13807TIP3    H162836   1.195   5.608   4.659 -0.5821 -0.2150 -0.1504
13807TIP3    H262837   1.183   5.756   4.690  2.5524 -0.0189  0.3665
13808TIP3   OH262838   2.538   6.682  13.443 -0.3148 -0.0113  0.3492
13808TIP3    H162839   2.453   6.677  13.401  0.1979  0.3776 -0.7398
13808TIP3    H262840   2.600   6.692  13.372  0.4960  1.3934  1.2285
13809TIP3   OH262841   1.391   4.094   5.019  0.4473 -0.3527  0.6245
13809TIP3    H162842   1.403   4.005   5.051  1.7800  0.0712  1.3276
13809TIP3    H262843   1.421   4.150   5.091  0.2398  0.6566 -0.0550
13810TIP3   OH262844   2.040   3.818   4.221  0.3887 -0.0231 -0.3454
13810TIP3    H162845   2.123   3.778   4.196 -0.7856 -2.2838 -0.7526
13810TIP3    H262846   2.055   3.850   4.310  1.2511 -1.7820  0.1685
13811TIP3   OH262847   1.978   1.495   1.339 -0.2325  0.8886 -0.1370
13811TIP3    H162848   1.959   1.475   1.431  0.1127  1.2755  0.0182
13811TIP3    H262849   2.061   1.542   1.342 -0.4946  1.3701 -0.6054
13812TIP3   OH262850   2.705   4.880  11.379  1.1508 -0.8525 -0.6618
13812TIP3    H162851   2.639   4.883  11.310  0.2717 -0.9002  0.1690
13812TIP3    H262852   2.773   4.822  11.344 -0.8365 -3.5697 -0.1397
13813TIP3   OH262853   5.838   4.317   1.886  0.2978  0.2658  0.4928
13813TIP3    H162854   5.934   4.320   1.892  0.2919 -0.3311  0.9206
13813TIP3    H262855   5.816   4.388   1.826  1.3429 -2.6287 -3.4696
13814TIP3   OH262856   0.944   0.043   3.571  0.2509 -0.3337  0.2818
13814TIP3    H162857   0.902  -0.039   3.598 -0.4866  1.1554  3.9954
13814TIP3    H262858   0.871   0.102   3.552  0.7265  0.1669  0.0028
13815TIP3   OH262859   1.738   0.473   3.962  0.3554  0.3526  0.8283
13815TIP3    H162860   1.700   0.556   3.936 -1.0019 -0.3435  0.5218
13815TIP3    H262861   1.677   0.438   4.028  0.4251 -0.7887  0.3132
13816TIP3   OH262862   2.776   3.164   4.179 -0.2481 -0.6313 -0.7531
13816TIP3    H162863   2.690   3.144   4.142 -1.0380  0.6452  0.3335
13816TIP3    H262864   2.786   3.259   4.168  0.8761 -0.7166 -0.5584
13817TIP3   OH262865   6.301   4.136  10.543  0.0666  0.1647 -0.6770
13817TIP3    H162866   6.321   4.226  10.568  0.8705 -0.0311 -0.6068
13817TIP3    H262867   6.366   4.083  10.588 -1.6563 -0.6473  0.9238
13818TIP3   OH262868   5.125   6.618   2.682  0.0084 -0.2848 -0.6440
13818TIP3    H162869   5.176   6.554   2.731  1.7675  1.1299 -0.5794
13818TIP3    H262870   5.056   6.645   2.743  1.2934  0.3755  0.5406
13819TIP3   OH262871   5.673   1.609   0.365  0.0163  0.2673 -0.0125
13819TIP3    H162872   5.747   1.566   0.323 -2.0409 -1.7531 -1.7323
13819TIP3    H262873   5.711   1.682   0.414  2.9150  0.2847 -2.2006
13820TIP3   OH262874   5.425   4.290  12.458  0.6436 -0.4524 -0.2135
13820TIP3    H162875   5.366   4.219  12.432 -0.4016 -0.4979  2.2228
13820TIP3    H262876   5.483   4.251  12.523 -0.8015  1.2567  2.1390
13821TIP3   OH262877   1.635   1.665   0.256  0.1250  0.5676  0.0690
13821TIP3    H162878   1.640   1.756   0.286 -0.7456  0.7918 -0.4308
13821TIP3    H262879   1.606   1.616   0.333  2.4451  0.4167  0.8559
13822TIP3   OH262880   3.065   2.601   1.944 -0.4471  0.1465 -0.4274
13822TIP3    H162881   3.005   2.675   1.955 -0.2898  0.2235 -0.0805
13822TIP3    H262882   3.093   2.606   1.853 -0.8368  0.2118 -0.5473
13823TIP3   OH262883   2.583   1.646   3.041  0.4325  0.0401  0.0406
13823TIP3    H162884   2.636   1.633   2.963 -0.2997  2.8699 -1.0021
13823TIP3    H262885   2.616   1.728   3.079  0.0715 -0.7428  2.1279
13824TIP3   OH262886   1.247   5.189  15.449 -0.9427 -0.4409  0.1512
13824TIP3    H162887   1.284   5.125  15.388  0.4059  0.2144  0.2489
13824TIP3    H262888   1.277   5.159  15.535 -1.6751 -0.5787  0.3649
13825TIP3   OH262889   1.657   3.390  14.646 -0.0827  0.0985 -0.8550
13825TIP3    H162890   1.739   3.397  14.598  0.5023  0.9797  0.2509
13825TIP3    H262891   1.683   3.368  14.735 -0.9969  1.1819 -0.3093
13826TIP3   OH262892   1.473   2.680   4.822  0.2212  0.0846  0.2844
13826TIP3    H162893   1.566   2.657   4.829  0.1444  0.0849  1.6207
13826TIP3    H262894   1.427   2.596   4.829  0.1167  0.1272  0.0823
13827TIP3   OH262895   5.627   5.712   4.264 -0.1255 -0.5909 -0.1261
13827TIP3    H162896   5.532   5.706   4.263 -0.3565  2.3184 -1.2886
13827TIP3    H262897   5.658   5.627   4.235 -2.3992 -1.2200 -0.7293
13828TIP3   OH262898   4.803   1.884  10.897  0.3067 -0.1652 -0.2711
13828TIP3    H162899   4.867   1.946  10.863  0.9171 -0.5309  0.2116
13828TIP3    H262900   4.774   1.835  10.820  0.9371 -0.3080 -0.4207
13829TIP3   OH262901   2.537   4.307   2.981  0.3285  0.2024 -0.2226
13829TIP3    H162902   2.571   4.351   3.059  2.8219 -0.9459 -0.6388
13829TIP3    H262903   2.533   4.215   3.006 -1.8819  0.2236 -0.4201
13830TIP3   OH262904   3.718   5.937   1.013  0.7223 -0.2828 -0.0988
13830TIP3    H162905   3.629   5.967   1.036  0.6132 -1.4385  1.0254
13830TIP3    H262906   3.727   5.853   1.057  2.8180  0.3674  0.7885
13831TIP3   OH262907   4.090   0.033  15.026  0.2542  0.3038 -0.4282
13831TIP3    H162908   4.170   0.059  14.980  1.0306 -2.3724 -0.6339
13831TIP3    H262909   4.066   0.111  15.076  2.1872  1.6247 -1.4758
13832TIP3   OH262910   6.627   1.104   0.551 -0.0528  0.2777 -0.5981
13832TIP3    H162911   6.643   1.196   0.531 -3.1128  0.4513 -2.5377
13832TIP3    H262912   6.570   1.073   0.481 -0.7458 -2.5746  1.1255
13833TIP3   OH262913   2.285   3.650   0.339 -0.4436  0.0195 -0.7726
13833TIP3    H162914   2.210   3.650   0.398  0.6987 -3.5792  0.7879
13833TIP3    H262915   2.267   3.578   0.278  1.1529 -0.0809 -1.1461
13834TIP3   OH262916   4.007   3.059   1.085  0.6187 -0.5170  0.0018
13834TIP3    H162917   3.940   3.106   1.035  1.1892  1.2456  0.8182
13834TIP3    H262918   3.980   3.071   1.176  0.2629 -2.6306  0.1833
13835TIP3   OH262919   3.864   3.501   3.863  0.4805 -0.2139  0.0270
13835TIP3    H162920   3.827   3.418   3.891  1.3130 -0.0917  1.5102
13835TIP3    H262921   3.829   3.514   3.774  0.4835 -2.2157 -0.2884
13836TIP3   OH262922   3.833   2.673  15.828  0.2282  0.0989 -0.1944
13836TIP3    H162923   3.751   2.641  15.791 -0.4216  2.6469 -1.0453
13836TIP3    H262924   3.835   2.636  15.917 -1.2297 -0.9827 -0.5865
13837TIP3   OH262925   0.838   3.070   1.109 -0.0619 -0.1110 -0.5966
13837TIP3    H162926   0.870   3.033   1.027  1.1754  0.8426 -0.5621
13837TIP3    H262927   0.838   2.996   1.170  1.3408 -0.3212 -0.8198
13838TIP3   OH262928   1.535   4.480   5.129 -0.2182  0.0743 -0.0193
13838TIP3    H162929   1.582   4.515   5.054  0.7506  1.3846  1.1584
13838TIP3    H262930   1.560   4.388   5.133  1.9316  0.6592  0.3384
13839TIP3   OH262931   4.152   1.333   3.522 -0.2851  0.5848 -0.5051
13839TIP3    H162932   4.184   1.414   3.562 -3.6782  1.3096  0.9477
13839TIP3    H262933   4.112   1.284   3.595 -2.5449 -0.1618 -2.1661
13840TIP3   OH262934   0.688   1.125  13.807  0.1559 -0.0436 -0.1783
13840TIP3    H162935   0.595   1.108  13.816  0.1242 -1.3461 -2.3605
13840TIP3    H262936   0.716   1.157  13.893 -2.4950  1.4775  0.1726
13841TIP3   OH262937   0.091   6.064  14.242 -0.0471 -0.3985 -0.2616
13841TIP3    H162938   0.054   6.143  14.203  1.1772  0.2464 -0.1439
13841TIP3    H262939   0.175   6.052  14.196  0.6306 -0.5645  1.0107
13842TIP3   OH262940   0.332   0.328   5.405 -0.5738 -0.0256  0.2932
13842TIP3    H162941   0.273   0.396   5.436 -2.2956 -1.3812  0.0860
13842TIP3    H262942   0.345   0.347   5.312  2.5845  2.5860  1.1604
13843TIP3   OH262943   5.916   0.364  15.297 -0.7362 -0.2388 -0.0846
13843TIP3    H162944   5.975   0.397  15.366 -0.4860  1.0049 -0.8614
13843TIP3    H262945   5.828   0.385  15.329 -0.6251  0.2504 -0.0862
13844TIP3   OH262946   1.399   3.573  16.622  0.2659  0.2978 -0.9070
13844TIP3    H162947   1.311   3.611  16.628  1.0474  2.1247 -0.8034
13844TIP3    H262948   1.396   3.498  16.682 -1.1456  0.4722 -0.7303
13845TIP3   OH262949   5.024   2.187  13.894 -0.0200 -0.3246  0.2299
13845TIP3    H162950   5.078   2.252  13.938 -0.0802 -0.8087  1.0382
13845TIP3    H262951   4.934   2.213  13.913 -0.1291  1.1589 -2.1001
13846TIP3   OH262952   3.018   3.402  13.594 -0.1856 -0.2053 -0.4264
13846TIP3    H162953   3.066   3.332  13.638  0.4357  0.4600 -0.0240
13846TIP3    H262954   2.930   3.398  13.632  0.7912  1.4207  2.1776
13847TIP3   OH262955   6.679   2.587  13.792  0.3320 -0.1540  0.0423
13847TIP3    H162956   6.743   2.652  13.820  3.6688 -2.8065 -1.0810
13847TIP3    H262957   6.681   2.520  13.861 -0.1614 -0.9753 -0.7289
13848TIP3   OH262958   5.951   0.932  10.296  0.2260  0.1588 -0.5415
13848TIP3    H162959   5.910   0.846  10.304  0.5799  0.0089 -0.3393
13848TIP3    H262960   6.038   0.914  10.259  0.1107  0.4749 -0.9706
13849TIP3   OH262961   2.864   2.207   1.191  0.6888 -0.0782 -0.4496
13849TIP3    H162962   2.901   2.197   1.103  1.4234 -0.7265 -0.0741
13849TIP3    H262963   2.865   2.302   1.206 -0.1498  0.0969 -1.4301
13850TIP3   OH262964   2.326   1.334  13.004  0.1200  0.0539 -0.0723
13850TIP3    H162965   2.387   1.270  12.970  1.2068 -0.1735  2.2109
13850TIP3    H262966   2.348   1.416  12.959 -0.4394 -0.8649 -2.0455
13851TIP3   OH262967   0.273   4.046   0.876  1.2366  0.1570  0.1318
13851TIP3    H162968   0.258   3.998   0.958  2.4344 -1.0697 -0.3584
13851TIP3    H262969   0.341   4.110   0.898  0.7573  0.6015  0.3654
13852TIP3   OH262970   1.476   3.608  15.117 -0.2256  0.2331  0.2140
13852TIP3    H162971   1.470   3.693  15.161 -1.9865 -0.3809  1.2074
13852TIP3    H262972   1.505   3.629  15.028  0.0018  1.8041  0.6365
13853TIP3   OH262973   1.167   5.585  10.869  0.6141  0.3989  0.2226
13853TIP3    H162974   1.103   5.558  10.803  1.0796  0.3830 -0.2282
13853TIP3    H262975   1.231   5.636  10.820  1.2980 -0.1353  0.5519
13854TIP3   OH262976   0.344   6.605  13.726  0.3395 -0.1373  0.3318
13854TIP3    H162977   0.382   6.527  13.685  0.1984 -1.4146  2.5669
13854TIP3    H262978   0.416   6.643  13.776  0.4109  1.2144 -0.7530
13855TIP3   OH262979   2.806   0.938   4.059 -0.2338  0.3862 -0.4852
13855TIP3    H162980   2.840   0.850   4.044  0.0654  0.8965 -2.9413
13855TIP3    H262981   2.877   0.985   4.104  0.8284  0.3063 -2.0648
13856TIP3   OH262982   2.273   5.955  17.116  0.1056 -0.0630 -0.1130
13856TIP3    H162983   2.263   5.859  17.118  0.3176 -0.0804  0.0420
13856TIP3    H262984   2.201   5.987  17.170  1.0289 -0.2034  1.2319
13857TIP3   OH262985   1.524   4.419   5.733  1.0218  0.1589 -0.4915
13857TIP3    H162986   1.506   4.405   5.826  0.3729 -0.0011 -0.6395
13857TIP3    H262987   1.599   4.478   5.732  1.5672 -0.5082  0.1382
13858TIP3   OH262988   3.291   1.749  14.056  0.6069 -0.0653 -0.4533
13858TIP3    H162989   3.230   1.688  14.015  0.5587 -0.3880  0.0955
13858TIP3    H262990   3.251   1.771  14.139  0.4927  0.9394 -0.7682
13859TIP3   OH262991   0.915   5.065  15.279  0.0216 -0.0514  0.1278
13859TIP3    H162992   0.936   5.116  15.358 -1.8816 -0.2084  0.7727
13859TIP3    H262993   0.891   4.979  15.313 -3.1438  0.5704 -0.3854
13860TIP3   OH262994   1.292   1.824   3.443 -0.4035  0.0199  0.0178
13860TIP3    H162995   1.335   1.896   3.397 -0.0765 -0.2464 -0.0943
13860TIP3    H262996   1.296   1.751   3.381  0.6593 -0.5389  0.7537
13861TIP3   OH262997   4.557   2.271   0.923 -0.0227 -0.0917  0.3155
13861TIP3    H162998   4.539   2.295   1.014  0.0126 -0.0698  0.3168
13861TIP3    H262999   4.505   2.192   0.908  0.2219 -0.2776  0.4500
13862TIP3   OH263000   3.135   5.293   2.126  0.5092 -0.5590 -0.5315
13862TIP3    H163001   3.154   5.200   2.118 -0.3561 -0.8373  0.6611
13862TIP3    H263002   3.079   5.300   2.203 -0.0886  0.8530 -1.0867
13863TIP3   OH263003   5.336   5.002   0.755  0.3775  0.6730  0.5341
13863TIP3    H163004   5.241   5.009   0.768  0.2646  1.9761 -0.9537
13863TIP3    H263005   5.362   5.088   0.722  1.9581  0.0381  0.1135
13864TIP3   OH263006   4.465   0.612   6.328  0.1546 -0.0957 -0.1265
13864TIP3    H163007   4.474   0.666   6.407 -0.5769  1.6032 -1.1642
13864TIP3    H263008   4.448   0.524   6.361 -3.2195  1.1238  1.6231
13865TIP3   OH263009   0.587   4.229   5.493 -0.1075 -0.7622 -0.6621
13865TIP3    H163010   0.580   4.274   5.410 -1.0857  0.8755  0.2911
13865TIP3    H263011   0.522   4.271   5.549 -0.1221 -2.4783  0.6401
13866TIP3   OH263012   4.463   3.821  16.380  0.4787  0.2353  0.5248
13866TIP3    H163013   4.515   3.824  16.460  1.0789  1.6762  0.0944
13866TIP3    H263014   4.402   3.895  16.388  0.7636  0.5863 -0.4830
13867TIP3   OH263015   2.336   2.606   2.867  0.0331 -0.1683 -0.0242
13867TIP3    H163016   2.273   2.552   2.820  0.1667  0.8133 -1.3550
13867TIP3    H263017   2.284   2.652   2.932 -0.6210  0.5596 -1.0534
13868TIP3   OH263018   4.116   5.394   2.535 -0.2268 -0.3663 -0.0644
13868TIP3    H163019   4.204   5.366   2.508  0.0662  0.1866  0.3165
13868TIP3    H263020   4.129   5.431   2.622 -0.5260  1.4254 -0.7617
13869TIP3   OH263021   6.303   0.181  13.346 -0.2722  0.2817 -0.1231
13869TIP3    H163022   6.395   0.162  13.362 -0.3297  0.8557  0.8897
13869TIP3    H263023   6.261   0.094  13.344  0.5942 -0.1280 -2.6956
13870TIP3   OH263024   4.663   6.390  10.912  0.9684  0.5097  0.0074
13870TIP3    H163025   4.735   6.329  10.896  0.1699 -0.3607 -0.3153
13870TIP3    H263026   4.600   6.373  10.842 -0.3258  0.0780  1.2301
13871TIP3   OH263027   3.432   2.835   5.034  0.0308 -0.4117  0.2903
13871TIP3    H163028   3.369   2.792   4.977 -0.0763 -0.9875  0.8362
13871TIP3    H263029   3.516   2.793   5.014  0.5302  1.3999 -1.5211
13872TIP3   OH263030   1.731   0.897  16.131 -0.7720  0.0497  0.2380
13872TIP3    H163031   1.642   0.875  16.104 -1.2063  1.4636  0.4543
13872TIP3    H263032   1.727   0.901  16.226 -0.6441  0.7549  0.2188
13873TIP3   OH263033   1.031   6.110  15.247  0.1586  0.2093 -0.2222
13873TIP3    H163034   0.958   6.162  15.213 -0.9546 -0.6701  0.7959
13873TIP3    H263035   1.062   6.061  15.171  0.0456  0.9935 -0.7814
13874TIP3   OH263036   3.275   4.495  15.295  0.5378 -0.3317  0.2562
13874TIP3    H163037   3.298   4.528  15.208  0.2992  1.6868  0.9253
13874TIP3    H263038   3.185   4.526  15.309  0.5611 -0.6804  1.2120
13875TIP3   OH263039   1.166   2.490  14.096  0.0470 -0.2038 -0.1361
13875TIP3    H163040   1.258   2.513  14.113  0.2241 -0.3668 -0.8439
13875TIP3    H263041   1.120   2.512  14.177  0.7431 -0.2861  0.2857
13876TIP3   OH263042   3.536   2.672  16.254 -0.0933 -0.4955 -0.0784
13876TIP3    H163043   3.468   2.607  16.236  1.2872 -1.3445 -2.6392
13876TIP3    H263044   3.584   2.678  16.171  2.3765  0.7307  1.4098
13877TIP3   OH263045   0.571   1.072   4.344  0.1157  0.1102  0.3273
13877TIP3    H163046   0.570   1.079   4.439  1.7856  0.2403  0.3603
13877TIP3    H263047   0.504   1.007   4.323  1.3107 -1.6459  1.7718
13878TIP3   OH263048   1.941   3.017  15.417  0.0176 -0.5996  0.0366
13878TIP3    H163049   1.874   3.082  15.396  0.7227  0.1034 -0.0534
13878TIP3    H263050   2.010   3.032  15.353  0.4428 -1.0519  0.3845
13879TIP3   OH263051   5.694   2.963   5.648  0.2591  0.3881  0.3626
13879TIP3    H163052   5.605   2.965   5.683  0.0642  0.8049 -0.1518
13879TIP3    H263053   5.748   3.002   5.717 -0.1851  1.6308  0.0209
13880TIP3   OH263054   2.586   6.189  10.892  0.2122 -0.5776  1.0714
13880TIP3    H163055   2.662   6.242  10.867  0.4386 -0.8935  1.0880
13880TIP3    H263056   2.511   6.245  10.872  0.4528 -0.2068  1.1948
13881TIP3   OH263057   0.226   3.044   5.749 -0.0994  0.5600 -0.0050
13881TIP3    H163058   0.222   2.993   5.830  1.5175 -0.0169 -0.2710
13881TIP3    H263059   0.143   3.028   5.705 -1.5234  1.8543  2.1229
13882TIP3   OH263060   4.076   2.644  15.340 -0.2920 -0.3534  0.2114
13882TIP3    H163061   4.093   2.665  15.248 -0.0007 -0.1098  0.3179
13882TIP3    H263062   4.118   2.559  15.353 -0.1267 -0.2781  0.1797
13883TIP3   OH263063   6.740   2.084  14.535  0.2638  0.0552 -0.0140
13883TIP3    H163064   6.680   2.084  14.609  0.4285  0.0828  0.1196
13883TIP3    H263065   6.729   2.171  14.496  0.8792  0.3893  0.5483
13884TIP3   OH263066   1.321   0.134   1.095  0.0835  1.1815 -0.3718
13884TIP3    H163067   1.317   0.228   1.074  1.4724  1.4454  0.4394
13884TIP3    H263068   1.395   0.102   1.044 -0.4131  0.5173 -0.6688
13885TIP3   OH263069   2.088   3.320  10.996 -0.2127  0.7647  0.0932
13885TIP3    H163070   2.015   3.359  10.948 -0.5267  1.2317  0.9413
13885TIP3    H263071   2.081   3.226  10.977 -1.2750  0.7558  0.4777
13886TIP3   OH263072   5.938   2.759  14.439  0.1785  0.1034  0.2843
13886TIP3    H163073   5.926   2.681  14.493  0.1978 -0.1059 -0.0103
13886TIP3    H263074   6.017   2.741  14.387  0.0168  0.1919  0.0032
13887TIP3   OH263075   5.728   6.185  13.727 -0.1343 -0.4927 -0.4118
13887TIP3    H163076   5.774   6.257  13.770 -1.7405  0.7113 -0.6640
13887TIP3    H263077   5.722   6.212  13.636  0.2074 -1.4583 -0.7226
13888TIP3   OH263078   1.521   5.951   5.807 -0.6900 -0.7752  0.0571
13888TIP3    H163079   1.598   5.897   5.786 -0.2516 -0.1886  0.1301
13888TIP3    H263080   1.448   5.908   5.763 -0.2190 -1.0131 -0.4964
13889TIP3   OH263081   0.351   6.175  14.574  0.5869  0.2561 -0.1456
13889TIP3    H163082   0.278   6.147  14.629  0.6023 -1.3876 -0.9521
13889TIP3    H263083   0.429   6.142  14.619  0.5912 -1.2021 -1.1986
13890TIP3   OH263084   6.599   5.223  16.808  0.4385 -0.4015 -0.6132
13890TIP3    H163085   6.653   5.194  16.734  0.1345  0.5639 -1.2277
13890TIP3    H263086   6.509   5.216  16.776  0.2015 -1.6614  0.2821
13891TIP3   OH263087   1.663   2.871   5.042 -0.1935  0.7710 -0.4756
13891TIP3    H163088   1.690   2.833   5.126 -0.2076 -1.0785 -1.2901
13891TIP3    H263089   1.587   2.925   5.064 -0.6752 -0.3150  0.5943
13892TIP3   OH263090   1.033   1.184   0.106 -0.4674  0.0143  0.0944
13892TIP3    H163091   0.983   1.142   0.036 -0.9077  2.2870 -1.0069
13892TIP3    H263092   0.970   1.239   0.152  0.2176 -0.0207  1.0956
13893TIP3   OH263093   3.065   1.242   0.574 -0.1229  0.6118 -0.0230
13893TIP3    H163094   2.984   1.226   0.525  0.5739  0.1173 -1.0322
13893TIP3    H263095   3.132   1.193   0.526  0.0869 -2.2796  2.9880
13894TIP3   OH263096   3.890   2.014   1.492  0.0769 -0.0501  0.0018
13894TIP3    H163097   3.965   2.067   1.463 -1.2004  2.0450  0.3868
13894TIP3    H263098   3.879   2.038   1.584 -0.2076 -1.4108  0.3286
13895TIP3   OH263099   1.753   3.427  15.733  0.7021  0.1233 -0.1717
13895TIP3    H163100   1.771   3.408  15.825 -4.3075  0.6571  1.1006
13895TIP3    H263101   1.738   3.342  15.693 -0.8079  0.0590  0.4755
13896TIP3   OH263102   6.066   2.037   3.041 -0.9603 -0.0037  0.1851
13896TIP3    H163103   5.975   2.015   3.061 -1.1607  0.0546 -0.6499
13896TIP3    H263104   6.070   2.040   2.945 -0.1464  0.2738  0.2212
13897TIP3   OH263105   5.039   1.011  15.907  0.0986 -1.0831  0.4917
13897TIP3    H163106   5.094   0.949  15.953 -0.5855 -2.3162 -0.3383
13897TIP3    H263107   4.952   0.970  15.905 -0.7887  0.6818  1.5010
13898TIP3   OH263108   0.869   5.232  16.970 -0.1884 -0.1633 -0.1204
13898TIP3    H163109   0.920   5.252  16.892 -0.8739 -1.3963 -0.9058
13898TIP3    H263110   0.851   5.138  16.964 -0.0069 -0.3281  1.6720
13899TIP3   OH263111   4.668   1.009  16.659  0.2539 -0.3202 -0.0400
13899TIP3    H163112   4.671   1.105  16.651  1.2495 -0.3166  0.3439
13899TIP3    H263113   4.574   0.988  16.660  0.0348  0.5996 -0.7123
13900TIP3   OH263114   2.279   0.606  17.124 -0.7049  0.2675  0.3995
13900TIP3    H163115   2.274   0.550  17.046 -2.5359 -0.4626  1.0109
13900TIP3    H263116   2.200   0.660  17.120  0.0147  1.3852  0.9047
13901TIP3   OH263117   5.070   2.753  14.651  0.2142  0.7330  0.1558
13901TIP3    H163118   4.983   2.778  14.617  0.9067  2.6112 -0.2616
13901TIP3    H263119   5.108   2.700  14.580 -0.8622 -0.7355  0.6414
13902TIP3   OH263120   4.914   1.388  14.466 -0.9836  0.0862  0.3017
13902TIP3    H163121   4.956   1.302  14.461 -2.4128 -0.5012 -2.6611
13902TIP3    H263122   4.841   1.376  14.527 -1.3319 -0.9015 -0.2892
13903TIP3   OH263123   5.431   0.402  12.250 -0.2047  0.8679  0.3709
13903TIP3    H163124   5.376   0.335  12.289  0.3227 -0.0973 -0.5235
13903TIP3    H263125   5.448   0.464  12.321 -1.4828  0.5695  0.9492
13904TIP3   OH263126   3.088   2.368  11.397  0.2147  0.5328 -0.3487
13904TIP3    H163127   3.077   2.416  11.316  1.6846  0.6876 -0.4726
13904TIP3    H263128   3.164   2.312  11.382 -1.3015 -1.6567 -0.1244
13905TIP3   OH263129   3.620   6.133  12.454 -0.1174 -0.1138  0.3764
13905TIP3    H163130   3.527   6.156  12.462  0.3059  0.8589  2.5607
13905TIP3    H263131   3.666   6.216  12.465  1.0117 -0.4339 -1.6693
13906TIP3   OH263132   5.448   1.236  11.653 -0.0713  0.3342 -0.0564
13906TIP3    H163133   5.486   1.162  11.701 -0.7130  0.4972  0.7038
13906TIP3    H263134   5.356   1.213  11.643 -0.2637  1.0144  0.1445
13907TIP3   OH263135   0.090   3.068  13.074  0.6112 -0.3033  0.5501
13907TIP3    H163136   0.136   3.150  13.055  0.1755 -0.1459  0.1821
13907TIP3    H263137   0.160   3.006  13.092  0.9212  0.3542  1.6438
13908TIP3   OH263138   5.154   5.175  15.039 -0.3468 -0.1106  0.3559
13908TIP3    H163139   5.127   5.245  14.979 -1.1684 -0.9901 -0.3088
13908TIP3    H263140   5.123   5.095  14.998 -1.0146 -0.7238  2.0182
13909TIP3   OH263141   3.581   2.956  12.533  0.1248  0.1548 -0.0898
13909TIP3    H163142   3.669   2.964  12.496 -0.1009 -0.7120 -0.8229
13909TIP3    H263143   3.591   2.984  12.624  0.8486  1.5249 -0.5639
13910TIP3   OH263144   5.974   6.301  11.304  0.4769  0.5546 -0.4781
13910TIP3    H163145   5.926   6.381  11.281  0.2241  0.0911 -1.6302
13910TIP3    H263146   5.980   6.253  11.221  1.2833 -0.2688  0.0536
13911TIP3   OH263147   0.007   5.416   3.175 -0.5112 -0.9199 -0.9887
13911TIP3    H163148  -0.061   5.349   3.188 -0.8605 -0.4484 -0.3229
13911TIP3    H263149   0.048   5.393   3.092 -0.5218 -2.0537 -0.6826
13912TIP3   OH263150   4.255   1.051  15.552 -0.6703 -0.3261  0.2196
13912TIP3    H163151   4.180   1.108  15.567  0.1722  0.6549  0.8352
13912TIP3    H263152   4.312   1.067  15.628  0.7917 -0.0189 -0.9224
13913TIP3   OH263153   6.009   4.751  15.977  0.0713 -0.4068 -0.3177
13913TIP3    H163154   5.988   4.670  16.022 -1.0504  0.2636  0.3863
13913TIP3    H263155   5.953   4.750  15.899 -1.0235  0.3496  0.4334
13914TIP3   OH263156   1.147   5.705   2.844 -0.3902 -0.2293 -0.2556
13914TIP3    H163157   1.136   5.730   2.752 -0.4502  3.3431  0.6261
13914TIP3    H263158   1.226   5.753   2.872  0.1537 -1.9936  1.3327
13915TIP3   OH263159   1.740   5.930  12.953 -0.4325 -0.5529  0.2449
13915TIP3    H163160   1.779   5.871  12.888 -0.2368 -0.3059  0.1383
13915TIP3    H263161   1.699   5.999  12.901  0.9107  0.3937  0.4128
13916TIP3   OH263162   6.563   4.332  15.137 -0.2230  0.4691 -0.6421
13916TIP3    H163163   6.590   4.302  15.050  0.1422 -0.8663 -0.0902
13916TIP3    H263164   6.603   4.269  15.197 -0.4215  1.4086  0.5018
13917TIP3   OH263165   6.471   2.164   3.386 -0.2370  0.4692 -0.5261
13917TIP3    H163166   6.525   2.101   3.339 -0.0107 -0.2162  0.6557
13917TIP3    H263167   6.529   2.203   3.452  0.2132  3.4169 -2.5470
13918TIP3   OH263168   3.636   2.533   1.886 -0.6232 -0.2221 -0.5124
13918TIP3    H163169   3.577   2.459   1.898 -0.4810  0.0528  2.0426
13918TIP3    H263170   3.595   2.585   1.817 -3.6009  0.1381  1.4328
13919TIP3   OH263171   2.884   4.400   0.886  0.1110  0.2311  0.4772
13919TIP3    H163172   2.886   4.431   0.796  1.4133  0.3010  0.5201
13919TIP3    H263173   2.848   4.473   0.937 -0.1748  0.3609  0.0907
13920TIP3   OH263174   1.821   2.829  17.174  0.0856  0.2178 -0.0806
13920TIP3    H163175   1.760   2.777  17.226 -0.4394  2.1639  1.2728
13920TIP3    H263176   1.769   2.860  17.099  0.6083 -1.8243 -1.3341
13921TIP3   OH263177   1.136   5.775   3.440 -0.0357 -0.3783 -0.1850
13921TIP3    H163178   1.107   5.730   3.360 -2.3743  1.2943 -0.3394
13921TIP3    H263179   1.125   5.709   3.509 -2.0779 -0.5321 -0.6164
13922TIP3   OH263180   1.978   3.038   2.391  0.0378 -0.2639 -0.2972
13922TIP3    H163181   2.016   3.075   2.470 -0.5701 -0.1023 -0.0746
13922TIP3    H263182   2.038   3.064   2.321  0.1183  0.3390 -0.0085
13923TIP3   OH263183   3.531   0.898   1.537 -0.5721 -0.5738 -0.7187
13923TIP3    H163184   3.588   0.822   1.522  0.7607 -0.6733  4.1029
13923TIP3    H263185   3.590   0.973   1.530 -1.3012 -0.1411 -2.5129
13924TIP3   OH263186   0.286   4.188  13.029  0.2572 -0.3257  0.6356
13924TIP3    H163187   0.215   4.172  13.093 -0.3669  0.0929  0.0566
13924TIP3    H263188   0.267   4.275  12.995 -0.3913 -1.2318 -1.3674
13925TIP3   OH263189   1.310   2.887  12.727 -0.1356  0.0033  0.5494
13925TIP3    H163190   1.374   2.843  12.673  1.6575  1.0421  1.7766
13925TIP3    H263191   1.360   2.925  12.799 -2.3829 -0.9797  2.7321
13926TIP3   OH263192   1.272   1.915   6.341  0.3207  0.1185  0.0900
13926TIP3    H163193   1.189   1.908   6.388  0.7884  0.6617  1.0100
13926TIP3    H263194   1.291   2.009   6.341  0.0039  0.2008 -1.7590
13927TIP3   OH263195   2.198   1.153   2.806  0.2665  0.1839  0.0906
13927TIP3    H163196   2.121   1.209   2.815 -1.2444 -2.1411  2.2121
13927TIP3    H263197   2.234   1.147   2.894  0.6099 -1.8720 -0.1697
13928TIP3   OH263198   1.683   4.969  12.971 -0.3277 -0.0114  0.1277
13928TIP3    H163199   1.743   4.965  12.896  0.3383  0.3412  0.6393
13928TIP3    H263200   1.599   4.993  12.932 -0.1318 -0.4394 -0.5872
13929TIP3   OH263201   1.740   6.534  12.442  0.0553 -0.3766  0.5280
13929TIP3    H163202   1.787   6.618  12.437  2.3291 -1.6682 -0.4445
13929TIP3    H263203   1.658   6.550  12.395 -0.1499  1.6916  1.5410
13930TIP3   OH263204   1.438   3.261   3.329  0.5182 -0.0800 -0.2675
13930TIP3    H163205   1.356   3.246   3.376  1.4362  0.0026  1.3811
13930TIP3    H263206   1.477   3.174   3.321  0.3899 -0.0860 -0.8283
13931TIP3   OH263207   5.346   5.739   0.733  0.4439  0.2550  0.1309
13931TIP3    H163208   5.358   5.748   0.639  1.5436  0.6617  0.3027
13931TIP3    H263209   5.435   5.736   0.769  0.0611 -1.2656  1.0289
13932TIP3   OH263210   1.531   3.001  14.034 -0.1554 -0.4859  0.3696
13932TIP3    H163211   1.623   3.016  14.012 -0.5880 -0.7865 -1.7828
13932TIP3    H263212   1.497   3.088  14.056  0.2590 -0.1117 -0.4321
13933TIP3   OH263213   6.074   5.500   6.039  0.4955  0.1636  0.3646
13933TIP3    H163214   6.105   5.421   6.084 -2.0114 -2.0659 -1.5894
13933TIP3    H263215   6.042   5.557   6.108  2.4699 -0.4660  1.8343
13934TIP3   OH263216   5.555   2.102  15.859 -0.4490 -0.0216  0.8655
13934TIP3    H163217   5.556   2.191  15.823 -0.0208 -0.5910 -0.5874
13934TIP3    H263218   5.528   2.113  15.950 -4.2185  1.2683 -0.2874
13935TIP3   OH263219   3.453   4.587  14.498 -0.0447 -0.3016  0.1381
13935TIP3    H163220   3.502   4.560  14.421 -0.8198 -0.7070 -0.2251
13935TIP3    H263221   3.465   4.682  14.501  1.0967 -0.4449  0.3020
13936TIP3   OH263222   0.728   4.256  15.828 -0.5266  0.0346 -0.0988
13936TIP3    H163223   0.659   4.317  15.802 -1.5412 -1.4960 -1.0673
13936TIP3    H263224   0.809   4.295  15.794 -1.4788 -0.4930 -3.1538
13937TIP3   OH263225   4.617   5.832   2.426 -0.0791 -0.0594 -0.1883
13937TIP3    H163226   4.652   5.902   2.371 -0.8722  2.0982  1.9441
13937TIP3    H263227   4.533   5.866   2.456 -0.7091 -2.1747  0.4867
13938TIP3   OH263228   2.713   2.666  14.694 -0.5523 -0.2434 -0.0282
13938TIP3    H163229   2.710   2.751  14.650 -1.3585  0.4297  1.2667
13938TIP3    H263230   2.623   2.633  14.688 -0.7729  0.0409  1.4043
13939TIP3   OH263231   1.261   0.509  11.871 -0.9392 -0.0891  0.3958
13939TIP3    H163232   1.236   0.557  11.792 -0.6719 -0.9071 -0.1977
13939TIP3    H263233   1.226   0.561  11.943 -2.0501  0.1409 -0.3033
13940TIP3   OH263234   2.105   2.025   2.074 -0.3308 -0.7733  0.1343
13940TIP3    H163235   2.120   1.991   2.162  0.6243  0.3941  0.4435
13940TIP3    H263236   2.112   1.948   2.017  3.2539 -0.9464  0.6641
13941TIP3   OH263237   5.604   2.199   6.191 -0.5134  0.3946 -0.7881
13941TIP3    H163238   5.510   2.193   6.174 -0.8595  0.4594  1.0208
13941TIP3    H263239   5.618   2.148   6.271  0.8286  1.1669 -0.5116
13942TIP3   OH263240   1.798   4.743   2.528 -0.5221  0.3420 -0.5062
13942TIP3    H163241   1.869   4.807   2.530  1.1581 -1.4641 -1.2426
13942TIP3    H263242   1.776   4.728   2.620  0.5869  0.3360 -0.2354
13943TIP3   OH263243   6.751   1.387  14.514 -0.2963  0.2765  0.1861
13943TIP3    H163244   6.675   1.330  14.519 -1.4176  1.5090 -1.8270
13943TIP3    H263245   6.797   1.358  14.434  1.0934 -0.1455  1.1205
13944TIP3   OH263246   5.369   1.543  12.648  0.2313 -0.2756  0.0327
13944TIP3    H163247   5.341   1.452  12.643  2.5915 -1.2696  3.0510
13944TIP3    H263248   5.459   1.543  12.617  0.8660  0.6563  1.7769
13945TIP3   OH263249   3.898   4.649  11.630  0.4195  0.1990 -0.9792
13945TIP3    H163250   3.947   4.714  11.680  0.6927 -0.9350  0.2234
13945TIP3    H263251   3.962   4.613  11.568  1.7266 -2.7599  1.9602
13946TIP3   OH263252   2.323   6.135  16.512 -0.0897 -0.6399 -0.6415
13946TIP3    H163253   2.258   6.172  16.452 -2.0827 -1.9397  0.6425
13946TIP3    H263254   2.362   6.063  16.463  0.1131 -0.1139 -1.2713
13947TIP3   OH263255   5.266   5.665  14.134  0.4943 -0.3037 -0.5682
13947TIP3    H163256   5.237   5.705  14.053 -0.7997  1.4898  0.7239
13947TIP3    H263257   5.218   5.583  14.140 -0.4355  0.2057 -0.9728
13948TIP3   OH263258   3.184   0.531   4.250  0.2123  0.0462  0.0069
13948TIP3    H163259   3.158   0.556   4.339  0.1078 -1.7472  0.4934
13948TIP3    H263260   3.265   0.579   4.235  0.8396 -0.5151  1.4953
13949TIP3   OH263261   3.961   5.866  11.935 -0.2943  0.4170  0.1459
13949TIP3    H163262   4.004   5.934  11.883  1.4180 -0.6102  0.1869
13949TIP3    H263263   4.024   5.844  12.003 -2.6233  1.9702  2.9291
13950TIP3   OH263264   5.962   0.179  16.293  0.3833  0.4374 -0.0246
13950TIP3    H163265   5.948   0.089  16.323 -1.5766  0.9517  0.6643
13950TIP3    H263266   5.973   0.230  16.373  0.4587  0.9686 -0.3678
13951TIP3   OH263267   5.743   1.788   0.108  0.6181  0.3167  0.3244
13951TIP3    H163268   5.820   1.732   0.112  0.8377  0.5929 -0.0089
13951TIP3    H263269   5.769   1.861   0.052 -0.2285 -0.1237 -0.6502
13952TIP3   OH263270   3.933   0.454   3.550  0.2534 -0.1002  0.3638
13952TIP3    H163271   3.971   0.397   3.483  0.2013  0.5931 -0.2659
13952TIP3    H263272   3.904   0.394   3.619  0.1694 -0.8330 -0.2995
13953TIP3   OH263273   3.654   5.127   3.877  0.3558  0.3482  0.3164
13953TIP3    H163274   3.631   5.119   3.785  1.0328 -0.0793  0.1780
13953TIP3    H263275   3.703   5.047   3.897 -0.1781  0.2316  1.1662
13954TIP3   OH263276   6.167   6.740  13.369 -0.0805  0.3297  0.2328
13954TIP3    H163277   6.210   6.726  13.453 -0.0382  0.0542  0.1626
13954TIP3    H263278   6.074   6.723  13.387  0.2140 -2.0520 -0.3262
13955TIP3   OH263279   0.238   2.713  15.323  0.1045 -0.0764 -0.2608
13955TIP3    H163280   0.219   2.670  15.406  0.5406 -0.5359 -0.4005
13955TIP3    H263281   0.333   2.705  15.312  0.3018  1.5823  0.0811
13956TIP3   OH263282   1.963   3.683   6.312 -0.0133  0.0656 -1.1987
13956TIP3    H163283   1.983   3.647   6.398  1.4964  0.0075 -1.5662
13956TIP3    H263284   1.974   3.610   6.252 -1.8601 -0.0968 -1.3590
13957TIP3   OH263285   1.942   3.413   2.618  0.1215 -0.7835  0.3775
13957TIP3    H163286   1.927   3.494   2.666  1.3749  0.0784 -0.6290
13957TIP3    H263287   1.959   3.441   2.528  0.6191 -2.1620  0.0203
13958TIP3   OH263288   1.001   0.983  12.237 -0.7604  0.2132  0.6137
13958TIP3    H163289   0.960   0.937  12.163 -2.5228  1.2760  0.9117
13958TIP3    H263290   1.033   1.064  12.199 -0.3729  0.1103  0.7233
13959TIP3   OH263291   6.411   3.917  13.936 -0.2632  0.2004  0.1438
13959TIP3    H163292   6.341   3.974  13.901 -1.4501 -0.6171  1.1475
13959TIP3    H263293   6.398   3.833  13.892 -1.1591 -0.5441  1.7716
13960TIP3   OH263294   5.560   5.509   5.470 -0.3895 -0.0750 -0.0637
13960TIP3    H163295   5.481   5.500   5.523  0.8599 -0.5253  1.7615
13960TIP3    H263296   5.582   5.601   5.476 -0.7380  0.0389 -0.5200
13961TIP3   OH263297   1.866   0.836  15.904  0.2922 -0.4491 -0.7032
13961TIP3    H163298   1.958   0.831  15.932  0.1789  1.3082  0.0249
13961TIP3    H263299   1.818   0.856  15.984 -0.4746  0.9033 -1.4979
13962TIP3   OH263300   5.755   4.616  14.723 -0.1994 -0.4546  0.4178
13962TIP3    H163301   5.734   4.614  14.816 -0.5122 -0.3805  0.3502
13962TIP3    H263302   5.848   4.596  14.719  0.2592  1.5287  0.8924
13963TIP3   OH263303   2.087   1.739  11.654 -0.8108  0.2142 -0.6562
13963TIP3    H163304   2.022   1.786  11.601 -1.4252  0.4008  0.2617
13963TIP3    H263305   2.171   1.767  11.618 -1.2366 -0.2751 -2.0554
13964TIP3   OH263306   6.405   2.802  11.944  0.4834  0.2378  0.1890
13964TIP3    H163307   6.381   2.880  11.994 -0.9690  0.8384 -1.4142
13964TIP3    H263308   6.365   2.730  11.992 -1.5635  0.8902 -0.4773
13965TIP3   OH263309   0.091   1.810  13.884 -0.3736 -0.0879  0.0399
13965TIP3    H163310   0.035   1.793  13.960  0.3675 -0.7358  0.4395
13965TIP3    H263311   0.170   1.849  13.920  0.4106 -1.3554 -0.2900
13966TIP3   OH263312   5.753   0.922   4.440  0.3443 -0.4640 -0.2861
13966TIP3    H163313   5.658   0.918   4.426  0.0064  2.1581  1.0203
13966TIP3    H263314   5.788   0.949   4.355 -0.1777 -0.2868 -0.4497
13967TIP3   OH263315   2.109   3.549   3.504 -0.2166 -0.4965  0.4246
13967TIP3    H163316   2.038   3.589   3.454 -0.2241 -0.8239  0.1717
13967TIP3    H263317   2.181   3.539   3.441 -0.5724 -1.8428  0.2174
13968TIP3   OH263318   2.424   3.133   5.684  0.0038 -0.1139  0.2176
13968TIP3    H163319   2.357   3.199   5.666  0.1391 -0.3248 -1.1494
13968TIP3    H263320   2.486   3.177   5.743 -0.7067  0.4791  0.5262
13969TIP3   OH263321   5.098   0.063   3.744  0.4923  0.0910 -0.8219
13969TIP3    H163322   5.020   0.029   3.788  0.6833 -1.2535 -1.4757
13969TIP3    H263323   5.071   0.075   3.653  1.4811 -2.0339 -1.4495
13970TIP3   OH263324   0.490   0.802  13.006  0.1321 -0.0126  0.0336
13970TIP3    H163325   0.532   0.726  12.966  1.1572 -0.8162  2.5378
13970TIP3    H263326   0.399   0.799  12.975  0.4653 -1.5306 -0.8522
13971TIP3   OH263327   3.090   3.332  15.624  0.7032 -0.4011  0.1254
13971TIP3    H163328   3.116   3.374  15.542 -0.3990  0.5190  0.2339
13971TIP3    H263329   3.066   3.405  15.681 -0.4057 -1.1351  0.6041
13972TIP3   OH263330   0.250   1.060   1.951 -0.3443 -0.3254 -0.1987
13972TIP3    H163331   0.207   1.077   2.035  0.8215  0.7627  0.1970
13972TIP3    H263332   0.273   1.147   1.918 -1.7117 -0.6904 -2.1429
13973TIP3   OH263333   2.288   4.555  14.221 -0.1427 -0.0498 -0.6717
13973TIP3    H163334   2.325   4.637  14.253  0.1435 -0.0918 -0.8845
13973TIP3    H263335   2.324   4.546  14.132  1.8221 -1.6204  0.2306
13974TIP3   OH263336   3.309   6.466  12.269  0.4347  0.5010 -0.1119
13974TIP3    H163337   3.247   6.524  12.314  1.3448  1.4563 -0.0423
13974TIP3    H263338   3.388   6.520  12.260  1.6431 -1.0786  0.8822
13975TIP3   OH263339   5.852   3.504   2.480  0.2682  0.3487 -0.2557
13975TIP3    H163340   5.921   3.528   2.419  1.5268 -0.6875  0.7224
13975TIP3    H263341   5.857   3.409   2.485 -0.8564  0.3134  0.2486
13976TIP3   OH263342   1.090   2.340   0.895 -0.1191  0.5290 -0.4059
13976TIP3    H163343   1.010   2.293   0.870 -0.2283 -0.0483  0.9540
13976TIP3    H263344   1.093   2.332   0.991  2.2926 -0.6515 -0.5399
13977TIP3   OH263345   2.652   4.023   3.061  0.3401  0.1059  0.3728
13977TIP3    H163346   2.734   4.072   3.054  0.0059  0.7327  0.7874
13977TIP3    H263347   2.677   3.932   3.048  1.0875  0.3064  0.3958
13978TIP3   OH263348   4.165   0.752  15.557 -0.0269 -0.3751  0.1938
13978TIP3    H163349   4.184   0.841  15.529 -0.9692 -0.9754 -2.5711
13978TIP3    H263350   4.070   0.750  15.569  0.1495 -0.6493  1.5714
13979TIP3   OH263351   0.903   6.178  11.384  0.0674  0.0160  0.3367
13979TIP3    H163352   0.907   6.270  11.410 -0.8106 -0.6480  2.9262
13979TIP3    H263353   0.829   6.142  11.432  1.4704 -2.4585  0.7338
13980TIP3   OH263354   1.524   6.552  16.049  0.0688 -0.3808 -0.2470
13980TIP3    H163355   1.505   6.480  16.109  2.9097 -0.8769  0.1388
13980TIP3    H263356   1.465   6.538  15.975 -0.3512 -2.3429  0.4254
13981TIP3   OH263357   0.598   1.894  14.213  0.3585  0.5874 -0.4716
13981TIP3    H163358   0.621   1.918  14.123  0.8748 -3.0956 -1.4177
13981TIP3    H263359   0.658   1.823  14.234 -1.3256 -0.1671  1.9458
13982TIP3   OH263360   2.859   2.895   4.052 -0.0793 -0.5580  0.1416
13982TIP3    H163361   2.898   2.917   3.968 -0.9989 -0.8589 -0.3736
13982TIP3    H263362   2.844   2.979   4.095  2.3045 -0.4856  0.9061
13983TIP3   OH263363   4.340   6.415   1.987 -0.1449 -0.2539  0.0875
13983TIP3    H163364   4.383   6.444   2.068 -0.8396 -0.0502  0.3852
13983TIP3    H263365   4.284   6.342   2.014  0.6016 -1.0329 -0.4397
13984TIP3   OH263366   0.852   5.448  12.172 -0.1021 -0.3658  0.0488
13984TIP3    H163367   0.763   5.476  12.190  0.3955 -0.1759  2.3275
13984TIP3    H263368   0.852   5.354  12.190  0.3010 -0.2497  0.6750
13985TIP3   OH263369   3.724   5.568  14.973 -0.0768  0.3032  0.7454
13985TIP3    H163370   3.738   5.662  14.980 -0.5645  0.3635  0.9115
13985TIP3    H263371   3.758   5.532  15.055  1.3152  0.1938  0.1259
13986TIP3   OH263372   0.716   6.022  15.351  0.5295  0.3071  0.0076
13986TIP3    H163373   0.693   5.955  15.287  1.2331 -0.7544  0.8534
13986TIP3    H263374   0.766   6.086  15.301  1.3730 -0.6895 -0.4529
13987TIP3   OH263375   3.033   1.926  16.070  0.0175  0.3317 -0.1266
13987TIP3    H163376   3.114   1.914  16.020  0.2321 -0.4112  0.4001
13987TIP3    H263377   3.058   1.910  16.161 -0.0380  3.1399  0.4298
13988TIP3   OH263378   2.820   2.489   1.257 -0.4214  0.9494 -0.1407
13988TIP3    H163379   2.873   2.566   1.278 -0.3594  1.1177 -0.8906
13988TIP3    H263380   2.730   2.521   1.254 -0.5508  0.6956  0.9754
13989TIP3   OH263381   1.534   3.805  12.528 -0.6929  0.1909 -0.3090
13989TIP3    H163382   1.556   3.815  12.621 -0.4677 -0.3257 -0.3056
13989TIP3    H263383   1.544   3.711  12.511 -1.1250  0.2226 -0.7568
13990TIP3   OH263384   1.099   5.955  12.063 -0.4841 -0.0042  0.6039
13990TIP3    H163385   1.015   5.936  12.021 -1.2548 -0.7787  2.4576
13990TIP3    H263386   1.093   6.047  12.089  0.1685  0.6129 -1.3005
13991TIP3   OH263387   2.983   5.023  10.593  0.2108 -0.4090 -0.1357
13991TIP3    H163388   2.922   5.084  10.634  0.3077 -0.6900  0.4485
13991TIP3    H263389   3.064   5.073  10.582  0.2859 -0.4254  0.3279
13992TIP3   OH263390   5.790   4.727   4.836 -1.0028  0.0290  0.3412
13992TIP3    H163391   5.728   4.783   4.883 -1.6660  0.4527 -1.0324
13992TIP3    H263392   5.876   4.758   4.864 -1.3588  1.6716 -0.3249
13993TIP3   OH263393   6.696   4.550   0.548 -0.5891  0.4124  0.6764
13993TIP3    H163394   6.716   4.615   0.480 -0.8511  0.6555  0.8259
13993TIP3    H263395   6.619   4.504   0.515 -1.5646  1.4659  1.4249
13994TIP3   OH263396   3.950   0.652  12.439  0.0604 -0.3838 -0.0015
13994TIP3    H163397   4.007   0.579  12.464  0.6107  0.6627  1.8890
13994TIP3    H263398   3.984   0.727  12.487 -0.2894  1.2272 -2.2166
13995TIP3   OH263399   5.951   1.607   2.387  0.1219  0.4632  0.2178
13995TIP3    H163400   5.988   1.529   2.429 -1.4334 -0.7747 -0.6402
13995TIP3    H263401   6.025   1.668   2.381  1.0673 -0.4280  2.0697
13996TIP3   OH263402   6.444   4.040  13.591 -0.0691 -0.1828  0.3170
13996TIP3    H163403   6.532   4.043  13.630  0.4300 -0.7891 -0.7453
13996TIP3    H263404   6.396   4.111  13.635  1.1216  0.5294  0.4978
13997TIP3   OH263405   2.305   2.002  12.361 -0.0599 -1.2212 -0.2874
13997TIP3    H163406   2.336   2.047  12.439  1.4327 -0.3223 -1.3767
13997TIP3    H263407   2.229   2.054  12.332 -1.3861 -2.2620  1.2256
13998TIP3   OH263408   0.481   3.819  17.229  0.2906 -0.1077  0.7242
13998TIP3    H163409   0.543   3.881  17.267 -0.0419  1.1933 -0.8052
13998TIP3    H263410   0.395   3.855  17.250  0.0539 -1.0863  1.4906
13999TIP3   OH263411   5.432   2.605   1.326  0.1624  0.3419 -0.3846
13999TIP3    H163412   5.522   2.613   1.358  0.3693 -0.6479 -0.6852
13999TIP3    H263413   5.402   2.695   1.316  0.8564  0.6744  0.4534
14000TIP3   OH263414   4.404   3.560  11.589 -0.4909 -0.0462 -0.0698
14000TIP3    H163415   4.401   3.615  11.667 -0.2673  0.8217 -0.6579
14000TIP3    H263416   4.314   3.527  11.580 -0.8935  1.0763 -0.2963
14001TIP3   OH263417   4.057   2.593   0.179  0.4503  0.5119  0.7496
14001TIP3    H163418   4.147   2.572   0.204  0.2671  0.2934  1.2279
14001TIP3    H263419   4.045   2.549   0.094  1.1158  1.3753  0.1932
14002TIP3   OH263420   6.451   4.302   4.154  0.6097  0.2023  0.4080
14002TIP3    H163421   6.506   4.224   4.151  1.2081  0.6637 -1.2467
14002TIP3    H263422   6.439   4.327   4.062 -0.1491  1.6426  0.8752
14003TIP3   OH263423   6.339   6.448  12.100 -0.1483  0.3240  0.0278
14003TIP3    H163424   6.302   6.491  12.024 -0.1417  1.0804  0.4428
14003TIP3    H263425   6.274   6.461  12.169  0.3455  0.6120  0.4426
14004TIP3   OH263426   3.146   6.446  16.668 -0.0221 -0.8312  0.4509
14004TIP3    H163427   3.092   6.500  16.609 -0.4133  1.4387  2.7774
14004TIP3    H263428   3.234   6.449  16.630 -0.6195 -0.8040 -0.9364
14005TIP3   OH263429   0.722   1.231  14.058 -0.1859 -0.6875  0.0638
14005TIP3    H163430   0.680   1.192  14.135  0.4041  0.1503  0.8167
14005TIP3    H263431   0.816   1.213  14.071  0.3936  2.9639  1.6220
14006TIP3   OH263432   1.200   2.079   5.700 -0.0918  0.1149  0.3863
14006TIP3    H163433   1.247   1.996   5.712  0.3234  0.0325 -1.5756
14006TIP3    H263434   1.195   2.116   5.788  1.2406 -1.1803  1.0468
14007TIP3   OH263435   3.202   3.106  12.412 -0.2461 -0.5631 -0.2393
14007TIP3    H163436   3.220   3.088  12.319 -0.1440 -1.4779 -0.0478
14007TIP3    H263437   3.238   3.194  12.427 -0.5332 -0.2843 -1.1386
14008TIP3   OH263438   1.901   2.989  10.856  0.2283 -0.4586  0.2823
14008TIP3    H163439   1.906   2.914  10.797  1.4662 -0.4779  0.4122
14008TIP3    H263440   1.817   3.031  10.834  1.4794  0.5795 -2.7469
14009TIP3   OH263441   0.151   5.325   3.399 -0.0187 -0.0017  0.3518
14009TIP3    H163442   0.190   5.279   3.326 -0.4988  0.8407 -0.4464
14009TIP3    H263443   0.078   5.374   3.361 -1.0057 -0.4892  1.5899
14010TIP3   OH263444   0.492   4.966   0.835  0.3216 -0.1581  0.0056
14010TIP3    H163445   0.437   4.960   0.913  0.0485  1.2222 -0.0532
14010TIP3    H263446   0.547   5.043   0.851  0.2024  0.1873 -1.1846
14011TIP3   OH263447   6.344   4.557  12.857 -0.4041  0.2586 -0.8509
14011TIP3    H163448   6.424   4.525  12.899  0.5091  1.9791 -1.2564
14011TIP3    H263449   6.323   4.638  12.904 -0.6377  1.0073 -2.2316
14012TIP3   OH263450   0.829   0.150   4.488 -0.4612 -0.1323  0.2514
14012TIP3    H163451   0.743   0.188   4.507 -0.6129  1.2669 -2.9672
14012TIP3    H263452   0.810   0.065   4.449 -0.2820 -1.0070  2.0374
14013TIP3   OH263453   5.701   6.350  16.164  0.2599 -0.6546  0.5717
14013TIP3    H163454   5.777   6.330  16.219 -0.4581  1.2050  2.3045
14013TIP3    H263455   5.626   6.335  16.221 -0.6748 -2.0475 -0.9936
14014TIP3   OH263456   5.798   2.430  10.931  0.4338  0.2446  0.3700
14014TIP3    H163457   5.876   2.385  10.898 -0.3521 -1.4192  0.7253
14014TIP3    H263458   5.725   2.389  10.884 -0.3509  0.7473  1.1441
14015TIP3   OH263459   4.126   2.420  15.477 -0.4468 -0.3026  0.5132
14015TIP3    H163460   4.045   2.417  15.529 -1.3112 -0.4110 -0.8264
14015TIP3    H263461   4.134   2.333  15.439  0.3705 -0.3270  0.7352
14016TIP3   OH263462   5.794   1.567   5.924  0.6701 -0.2184  0.4151
14016TIP3    H163463   5.847   1.611   5.857  2.9506 -1.1333  1.5572
14016TIP3    H263464   5.801   1.624   6.000 -1.0735  0.2999  0.2006
14017TIP3   OH263465   0.271   4.702  16.042 -0.4553  0.1111  0.5784
14017TIP3    H163466   0.216   4.721  15.966  1.4156  1.1029 -0.5643
14017TIP3    H263467   0.269   4.782  16.094  0.4576  0.4042  0.1725
14018TIP3   OH263468   2.784   2.601  10.631 -0.3454 -0.0205 -0.2146
14018TIP3    H163469   2.854   2.658  10.600 -1.6563  1.9618  0.3463
14018TIP3    H263470   2.709   2.623  10.577 -1.2838 -0.1291  1.0215
14019TIP3   OH263471   5.409   6.527  12.455 -0.5205  0.0166  0.1856
14019TIP3    H163472   5.343   6.487  12.399 -1.3505  1.0023  0.4528
14019TIP3    H263473   5.365   6.541  12.539 -0.2025  1.2955  0.1609
14020TIP3   OH263474   5.411   1.934   4.640 -0.8202 -0.3332  0.1638
14020TIP3    H163475   5.404   1.866   4.573 -0.5972 -0.5530  0.3657
14020TIP3    H263476   5.350   2.002   4.611  0.7296  0.4506 -1.2954
14021TIP3   OH263477   2.382   4.189  13.485  0.2481 -0.2189 -0.4100
14021TIP3    H163478   2.389   4.162  13.393 -1.8761  0.9703 -0.9661
14021TIP3    H263479   2.375   4.107  13.534 -0.1165 -0.8325 -1.4708
14022TIP3   OH263480   3.007   5.416  16.773 -0.7117  0.1974 -0.1607
14022TIP3    H163481   2.927   5.370  16.796 -0.1112  0.2669  2.2289
14022TIP3    H263482   3.059   5.351  16.726 -0.9323 -0.7966  0.9318
14023TIP3   OH263483   2.261   4.750  14.594  0.2287  0.1970  0.0776
14023TIP3    H163484   2.183   4.720  14.549  0.9477 -0.7639 -0.5310
14023TIP3    H263485   2.235   4.755  14.686 -1.3773  2.6158 -0.4468
14024TIP3   OH263486   2.116   2.505  16.156 -0.4450  0.6322 -0.3225
14024TIP3    H163487   2.196   2.556  16.144 -1.0533  1.4857 -0.7894
14024TIP3    H263488   2.103   2.502  16.251 -0.8479  2.0632 -0.3199
14025TIP3   OH263489   4.954   4.460   2.544 -0.1142  0.2943  0.1075
14025TIP3    H163490   4.979   4.381   2.496 -1.4862 -0.6513  0.9217
14025TIP3    H263491   4.928   4.428   2.631 -0.7439  1.6190  0.4159
14026TIP3   OH263492   4.999   2.012   4.144  0.8158  0.1933  1.1930
14026TIP3    H163493   5.004   1.920   4.117  1.1636  0.4592  0.3444
14026TIP3    H263494   4.907   2.025   4.168  0.5473 -0.0990  0.3282
14027TIP3   OH263495   2.318   4.624  14.894  0.4692  0.3880  0.0334
14027TIP3    H163496   2.392   4.564  14.907  0.0666 -0.2026 -0.3605
14027TIP3    H263497   2.266   4.617  14.973 -0.0629 -0.4739 -0.3919
14028TIP3   OH263498   3.834   0.209   5.681 -0.5262  0.6335 -0.1290
14028TIP3    H163499   3.808   0.301   5.676 -1.3661  0.2926 -2.2297
14028TIP3    H263500   3.912   0.202   5.626  0.4298  0.3728  1.2221
14029TIP3   OH263501   0.314   6.375  12.407  0.0183  0.2077 -0.2696
14029TIP3    H163502   0.305   6.290  12.363 -0.5160  0.2048 -0.1626
14029TIP3    H263503   0.338   6.353  12.497  2.0013  0.2401 -0.7731
14030TIP3   OH263504   6.234   3.502  11.219  0.1544  0.2185 -0.1106
14030TIP3    H163505   6.189   3.443  11.158  1.9614 -1.1783 -0.1168
14030TIP3    H263506   6.287   3.559  11.164  1.5211 -0.8185  0.0980
14031TIP3   OH263507   0.583   2.461  14.852 -0.0487  0.4677 -0.0804
14031TIP3    H163508   0.645   2.463  14.779  0.7131 -2.4190  0.4095
14031TIP3    H263509   0.503   2.499  14.816  0.6717  0.1835 -2.0695
14032TIP3   OH263510   1.760   6.243   0.505  0.3651 -0.3063  0.5183
14032TIP3    H163511   1.739   6.182   0.434 -1.8900 -1.2065  1.8802
14032TIP3    H263512   1.824   6.197   0.558  0.1438 -0.6947  0.4555
14033TIP3   OH263513   2.537   2.209   4.552 -0.0239  0.0815  0.2086
14033TIP3    H163514   2.587   2.287   4.576 -0.5231  0.2651  0.6424
14033TIP3    H263515   2.603   2.148   4.518  0.4994  0.3194  0.7941
14034TIP3   OH263516   1.478   1.821  10.662 -0.0568 -0.3223  0.2273
14034TIP3    H163517   1.548   1.785  10.607  0.3759 -1.1043  1.2747
14034TIP3    H263518   1.522   1.884  10.719 -0.7412  1.6146 -1.3097
14035TIP3   OH263519   2.110   5.046  11.488  0.2346  0.3144  0.4179
14035TIP3    H163520   2.061   4.966  11.504  0.6735 -0.2163 -0.9014
14035TIP3    H263521   2.087   5.072  11.399  2.5223 -0.0770 -0.3223
14036TIP3   OH263522   4.410   2.344   2.222 -0.7438  0.2174  0.3357
14036TIP3    H163523   4.484   2.373   2.169 -1.1221  0.2200 -0.1934
14036TIP3    H263524   4.376   2.424   2.262  1.6511 -0.1780  3.3433
14037TIP3   OH263525   4.508   4.790   0.740  0.7069 -0.1133  0.1553
14037TIP3    H163526   4.584   4.841   0.766 -0.0707  1.1536  0.0219
14037TIP3    H263527   4.437   4.854   0.734 -0.1002 -1.0659 -0.8685
14038TIP3   OH263528   3.450   0.521  12.614 -0.8027 -0.0975 -0.3642
14038TIP3    H163529   3.507   0.577  12.666 -0.0631 -1.6566  0.5400
14038TIP3    H263530   3.489   0.521  12.527 -0.0611 -0.2638 -0.0309
14039TIP3   OH263531   0.278   2.017  12.854 -0.0009  0.4845  0.4452
14039TIP3    H163532   0.305   1.952  12.919 -1.6923 -1.0186 -0.2952
14039TIP3    H263533   0.281   1.971  12.771  1.0867  2.0826 -0.4280
14040TIP3   OH263534   1.663   3.806  12.755  0.5339  0.5477 -0.6999
14040TIP3    H163535   1.683   3.759  12.836  3.2325 -1.9384 -2.7038
14040TIP3    H263536   1.725   3.878  12.753 -1.1357  2.0523  0.5687
14041TIP3   OH263537   2.890   2.535  13.577  0.0842  0.1063 -0.2627
14041TIP3    H163538   2.826   2.575  13.518  0.2245  0.2595 -0.3141
14041TIP3    H263539   2.867   2.569  13.664 -0.2430 -0.2729 -0.1981
14042TIP3   OH263540   5.134   3.774   3.221  0.3350  0.2307 -0.0148
14042TIP3    H163541   5.170   3.806   3.304  1.3256 -2.2485  0.5366
14042TIP3    H263542   5.049   3.819   3.214  0.6581  1.2100  1.8501
14043TIP3   OH263543   5.705   3.138   3.143 -0.2824  0.2148  0.4608
14043TIP3    H163544   5.741   3.204   3.083  0.3015 -0.2793  0.2664
14043TIP3    H263545   5.749   3.156   3.226  0.4711 -0.4469  0.1996
14044TIP3   OH263546   5.086   5.114   2.807  0.1556 -0.0519  0.3115
14044TIP3    H163547   5.179   5.138   2.808  0.8457 -2.5648 -0.4002
14044TIP3    H263548   5.067   5.095   2.715 -1.2546  1.0986  0.3520
14045TIP3   OH263549   2.886   2.106  14.263 -0.0326 -0.3534 -0.2319
14045TIP3    H163550   2.817   2.128  14.200  1.6719  0.6316 -1.8224
14045TIP3    H263551   2.952   2.175  14.251  1.4302 -1.5224  0.9175
14046TIP3   OH263552   0.186   6.070   2.679 -0.2980 -0.3810 -0.0941
14046TIP3    H163553   0.199   6.144   2.619  0.4503 -0.2200  0.2640
14046TIP3    H263554   0.093   6.074   2.701 -0.5327 -0.2997 -1.0576
14047TIP3   OH263555   6.507   5.403  11.341  0.6424  0.5459 -0.3288
14047TIP3    H163556   6.473   5.484  11.379 -1.2508  1.2600 -3.4429
14047TIP3    H263557   6.582   5.431  11.288 -0.2019  0.3255 -1.6532
14048TIP3   OH263558   5.019   6.509   5.264 -0.4265  0.0150 -0.5402
14048TIP3    H163559   5.079   6.435   5.268 -0.5862 -0.1978 -2.0806
14048TIP3    H263560   4.942   6.480   5.313 -0.0013 -0.3602 -0.0833
14049TIP3   OH263561   2.146   4.824   3.534  0.1516  0.3211 -0.0618
14049TIP3    H163562   2.237   4.822   3.503  0.9539  1.1054  2.1921
14049TIP3    H263563   2.149   4.873   3.616 -2.1965 -0.3020  0.4346
14050TIP3   OH263564   6.361   5.911   3.463  0.3734 -0.2585  0.5927
14050TIP3    H163565   6.414   5.981   3.427  0.0892  0.9569  2.4580
14050TIP3    H263566   6.278   5.917   3.416  1.2553 -1.0602 -1.1092
14051TIP3   OH263567   6.031   3.427   6.204  0.2924 -0.4832  0.0657
14051TIP3    H163568   6.029   3.354   6.266  2.3708 -0.9998 -0.4427
14051TIP3    H263569   6.055   3.503   6.257 -0.5194 -0.4119  0.3437
14052TIP3   OH263570   2.484   4.755  16.379 -0.3734 -0.2034  0.2534
14052TIP3    H163571   2.573   4.743  16.349 -1.2423 -0.8882 -2.1129
14052TIP3    H263572   2.448   4.825  16.324 -1.4226 -0.2149  0.8951
14053TIP3   OH263573   3.403   4.526  12.051  0.5026 -0.0885 -0.4209
14053TIP3    H163574   3.482   4.483  12.019  0.8817  0.8733 -0.7855
14053TIP3    H263575   3.433   4.611  12.083 -0.0652 -0.5309  1.3498
14054TIP3   OH263576   6.392   5.140  15.303 -0.2452 -0.6987 -0.0852
14054TIP3    H163577   6.442   5.181  15.373  0.6142 -2.0347  0.0830
14054TIP3    H263578   6.361   5.214  15.250  1.3421  0.1732  0.1706
14055TIP3   OH263579   0.459   0.985  13.891 -0.1998 -0.3983  0.2394
14055TIP3    H163580   0.478   0.899  13.927 -1.4292 -0.4739  0.7436
14055TIP3    H263581   0.439   1.039  13.967 -1.7686 -0.2862 -0.2235
14056TIP3   OH263582   6.257   0.076  16.292 -0.0766  0.4848  0.3172
14056TIP3    H163583   6.260  -0.010  16.251 -1.8830 -0.0393  1.2281
14056TIP3    H263584   6.202   0.128  16.233 -1.4452  0.1473  1.2553
14057TIP3   OH263585   0.310   2.100   1.068  0.0780 -0.1733 -0.1078
14057TIP3    H163586   0.316   2.017   1.116  0.0737 -0.0673  0.0738
14057TIP3    H263587   0.332   2.076   0.978 -0.1561 -0.4174 -0.1034
14058TIP3   OH263588   6.784   0.598   0.003  0.4821 -0.1061 -0.0614
14058TIP3    H163589   6.701   0.640  -0.021 -0.0180 -1.3987 -0.6264
14058TIP3    H263590   6.843   0.671   0.021 -0.8313  0.8342  0.5428
14059TIP3   OH263591   4.263   5.059   4.140  0.2510  0.1037  0.2045
14059TIP3    H163592   4.348   5.099   4.121 -0.4348  1.6516  0.2709
14059TIP3    H263593   4.217   5.126   4.192 -1.5368 -0.1216 -1.0638
14060TIP3   OH263594   2.567   3.074   1.081  0.2548 -0.4806 -0.0528
14060TIP3    H163595   2.569   3.038   0.992 -2.6847 -0.8469 -0.0041
14060TIP3    H263596   2.557   3.169   1.067 -1.4330 -0.6554 -0.1336
14061TIP3   OH263597   6.052   3.106  11.132  0.6333 -0.1469  0.1032
14061TIP3    H163598   6.086   3.194  11.116 -0.9309  0.9043  2.3586
14061TIP3    H263599   5.967   3.105  11.090 -0.3703  0.2567  2.0290
14062TIP3   OH263600   4.794   2.667  12.316 -0.1784  0.0488 -0.3294
14062TIP3    H163601   4.885   2.665  12.289 -0.3384  0.9572 -0.9580
14062TIP3    H263602   4.773   2.576  12.337  1.3954  0.1251  1.6125
14063TIP3   OH263603   0.232   4.395   5.540  0.6621  0.0141  0.7644
14063TIP3    H163604   0.154   4.448   5.521  0.2727 -0.1639  1.8453
14063TIP3    H263605   0.203   4.305   5.530  0.6511 -0.0603  1.4708
14064TIP3   OH263606   3.867   3.373   1.531 -0.0494  0.3168  0.0204
14064TIP3    H163607   3.835   3.398   1.444  1.1792  1.0056 -0.2538
14064TIP3    H263608   3.948   3.424   1.542  0.5834 -0.8741  0.9653
14065TIP3   OH263609   0.541   6.693   0.517  0.8339 -0.0520 -0.3351
14065TIP3    H163610   0.549   6.786   0.538  1.7262 -0.0051 -0.8509
14065TIP3    H263611   0.591   6.648   0.585  0.9388 -0.1123 -0.4522
14066TIP3   OH263612   0.480   6.768  14.408  0.6812  0.0303 -0.1530
14066TIP3    H163613   0.441   6.687  14.377 -1.5255  0.4700  1.4105
14066TIP3    H263614   0.530   6.801  14.333 -1.7943 -0.6312 -2.1611
14067TIP3   OH263615   3.056   5.892   0.588 -0.2620 -0.0298 -0.3930
14067TIP3    H163616   3.106   5.911   0.508  1.6373  0.8712  0.9630
14067TIP3    H263617   2.998   5.967   0.599 -1.0896 -0.5258 -1.3464
14068TIP3   OH263618   0.579   0.929   3.625 -0.3085 -0.0165  0.1390
14068TIP3    H163619   0.528   0.884   3.559  1.4973 -2.0990  0.1341
14068TIP3    H263620   0.666   0.939   3.587  1.0420 -2.1300  2.5178
14069TIP3   OH263621   4.792   2.187   0.488 -0.0400 -0.0912  0.3896
14069TIP3    H163622   4.803   2.224   0.576  0.5226  0.7527 -0.0261
14069TIP3    H263623   4.880   2.188   0.451 -0.1835 -0.9788  0.0186
14070TIP3   OH263624   4.710   5.962   4.573  0.2423 -0.2310 -0.1874
14070TIP3    H163625   4.775   5.976   4.504  1.1287 -1.3685  0.4054
14070TIP3    H263626   4.720   6.037   4.631  0.4925 -0.0183 -0.5046
14071TIP3   OH263627   3.945   3.366  14.277  0.2686 -0.0999 -0.0683
14071TIP3    H163628   3.860   3.332  14.304 -0.2848  1.9770  0.9196
14071TIP3    H263629   3.982   3.403  14.357  2.4672 -1.6882 -0.3081
14072TIP3   OH263630   0.888   1.996  12.614  0.2077 -0.0220 -0.1060
14072TIP3    H163631   0.944   2.053  12.561  0.6431 -1.2283 -0.9740
14072TIP3    H263632   0.819   2.053  12.647  1.7133  1.4045  0.6234
14073TIP3   OH263633   2.173   2.533  12.831 -0.4506 -0.1559 -0.4313
14073TIP3    H163634   2.112   2.470  12.793  0.7031  0.0527 -2.7211
14073TIP3    H263635   2.259   2.493  12.820 -0.0700  0.0102  1.8335
14074TIP3   OH263636   0.744   0.446   5.420  0.4395 -0.0054  0.2512
14074TIP3    H163637   0.839   0.457   5.424  0.6873 -1.5564 -1.2474
14074TIP3    H263638   0.715   0.512   5.357  0.8546 -1.4241 -1.4514
14075TIP3   OH263639   0.331   5.611   2.915 -0.3145  0.6335  0.2443
14075TIP3    H163640   0.308   5.694   2.873  0.5959  1.1435  0.7430
14075TIP3    H263641   0.426   5.608   2.914 -0.3190 -0.0374  0.9366
14076TIP3   OH263642   4.148   2.647  12.839  0.0379 -0.2410 -0.1281
14076TIP3    H163643   4.153   2.731  12.883 -0.2315  0.0012 -0.5576
14076TIP3    H263644   4.166   2.582  12.907 -1.3999  0.0682  0.5501
14077TIP3   OH263645   2.915   1.283   1.224  0.2702 -0.7111  0.2773
14077TIP3    H163646   2.845   1.232   1.264 -0.9223 -0.1394 -1.0364
14077TIP3    H263647   2.948   1.229   1.153 -1.1223  0.3851 -1.2368
14078TIP3   OH263648   5.175   1.394   1.214  0.2021  0.1883  0.2361
14078TIP3    H163649   5.230   1.465   1.245  0.0832  0.3704  0.0319
14078TIP3    H263650   5.094   1.437   1.185 -0.4872 -0.1745  1.5586
14079TIP3   OH263651   6.237   5.448   4.462 -0.0492 -0.2464  0.8201
14079TIP3    H163652   6.294   5.408   4.397 -1.3612  0.4846 -0.8228
14079TIP3    H263653   6.260   5.541   4.461 -0.2768 -0.1849  1.1874
14080TIP3   OH263654   4.739   3.575  12.321 -0.3371  0.0319  0.0201
14080TIP3    H163655   4.797   3.551  12.393  0.2350 -2.3186 -1.1516
14080TIP3    H263656   4.696   3.656  12.349 -0.7827 -1.2973  3.3560
14081TIP3   OH263657   4.662   0.559  10.946 -0.7667 -0.3285  0.0424
14081TIP3    H163658   4.610   0.548  10.867  0.0321  0.4535 -0.6047
14081TIP3    H263659   4.718   0.481  10.949 -2.7357 -1.7528  1.3631
14082TIP3   OH263660   4.823   1.605   5.111 -0.4771 -0.1647  0.5664
14082TIP3    H163661   4.871   1.530   5.148  1.6229  0.4699 -0.7986
14082TIP3    H263662   4.886   1.677   5.114 -0.8616  0.3642 -2.5124
14083TIP3   OH263663   2.138   0.773  15.413  0.0861  0.7771  0.3149
14083TIP3    H163664   2.053   0.817  15.419  0.0448  0.8391 -0.7107
14083TIP3    H263665   2.193   0.833  15.362  0.6020  0.5020  0.5372
14084TIP3   OH263666   4.240   2.955  11.694  0.7245 -0.0385  0.2156
14084TIP3    H163667   4.273   2.895  11.627  0.6087 -0.9054  0.9426
14084TIP3    H263668   4.281   3.039  11.672  1.0944 -0.4325 -0.6359
14085TIP3   OH263669   2.839   5.396   0.570  0.1005  0.4231 -0.2703
14085TIP3    H163670   2.869   5.319   0.618 -0.8442 -0.7819 -1.5578
14085TIP3    H263671   2.826   5.463   0.637  1.0513 -0.4927  0.8541
14086TIP3   OH263672   3.682   6.268  15.076 -0.4928  0.5948  0.1762
14086TIP3    H163673   3.680   6.220  14.993 -0.3460  1.1368 -0.1476
14086TIP3    H263674   3.770   6.306  15.080 -1.3313  2.6965 -0.6638
14087TIP3   OH263675   3.983   2.394  12.973 -0.7428 -0.0060 -0.3440
14087TIP3    H163676   4.069   2.407  13.013 -0.4937 -0.2103 -0.8044
14087TIP3    H263677   3.924   2.449  13.024 -0.4624 -0.4009  0.4221
14088TIP3   OH263678   1.846   1.600  11.412 -0.7559 -0.2171 -0.4710
14088TIP3    H163679   1.860   1.582  11.319  0.5470  0.2523 -0.3762
14088TIP3    H263680   1.918   1.658  11.436 -1.7381  0.6060  0.5522
14089TIP3   OH263681   0.995   1.323  15.548 -0.0100  0.5273  0.0321
14089TIP3    H163682   0.988   1.392  15.482  0.8853  0.4737 -0.1253
14089TIP3    H263683   1.068   1.269  15.518  0.6836  0.7504  1.2918
14090TIP3   OH263684   1.504   5.862  14.597 -0.2084 -0.5314 -0.0269
14090TIP3    H163685   1.461   5.824  14.521  0.6855 -0.2748 -0.6776
14090TIP3    H263686   1.539   5.787  14.646 -1.3646 -0.7353  0.4933
14091TIP3   OH263687   6.134   6.168  15.560  0.2682 -0.1920 -0.2559
14091TIP3    H163688   6.045   6.144  15.533  0.6170  1.3055 -2.8455
14091TIP3    H263689   6.191   6.129  15.494  1.6355 -1.6014  1.6837
14092TIP3   OH263690   2.211   2.426  10.646  0.3714 -0.1014 -0.8344
14092TIP3    H163691   2.273   2.451  10.714 -0.4658  2.2450 -0.8971
14092TIP3    H263692   2.224   2.332  10.635  1.2147 -0.3212  1.8286
14093TIP3   OH263693   4.433   1.063   1.812  0.4601 -0.4907 -1.0886
14093TIP3    H163694   4.487   1.133   1.850  1.2085 -2.1444  0.9202
14093TIP3    H263695   4.343   1.086   1.837  0.6350  0.0564 -0.9399
14094TIP3   OH263696   1.447   1.823  16.185  0.0261 -0.2250 -0.2293
14094TIP3    H163697   1.525   1.871  16.213 -0.3161  1.2429 -1.7138
14094TIP3    H263698   1.384   1.835  16.257 -0.2881  2.1473 -0.8548
14095TIP3   OH263699   5.216   3.345  17.216  0.3046  0.1475 -0.1959
14095TIP3    H163700   5.142   3.357  17.276 -0.3301 -2.2921 -0.4639
14095TIP3    H263701   5.292   3.374  17.267 -0.5688  0.7919  0.7755
14096TIP3   OH263702   3.135   5.586   1.583  0.0148  0.3056  0.1225
14096TIP3    H163703   3.213   5.626   1.543  0.1335  0.0782  0.1221
14096TIP3    H263704   3.158   5.577   1.676  0.1061 -0.0308  0.0711
14097TIP3   OH263705   2.774   1.516   2.104 -0.4237 -0.1854  0.6440
14097TIP3    H163706   2.732   1.557   2.180 -0.1464  0.8877  0.2230
14097TIP3    H263707   2.867   1.513   2.127 -0.4850 -0.9362  0.8268
14098TIP3   OH263708   3.053   2.037  11.270  0.4361 -0.0753  0.1714
14098TIP3    H163709   3.071   2.121  11.312 -0.2630 -0.4131  1.1689
14098TIP3    H263710   2.958   2.038  11.255 -0.0698 -1.9228  2.9271
14099TIP3   OH263711   3.492   2.262  15.703  0.0859  0.6097  0.0048
14099TIP3    H163712   3.512   2.168  15.699 -0.8555  0.3281  1.6182
14099TIP3    H263713   3.481   2.288  15.612 -0.5546 -1.0414 -0.3999
14100TIP3   OH263714   0.666   1.018  12.434 -0.4928 -0.4445 -0.5083
14100TIP3    H163715   0.711   1.099  12.457  1.2998 -1.8052  0.9621
14100TIP3    H263716   0.735   0.952  12.432 -2.1171 -2.1945 -0.2808
14101TIP3   OH263717   1.027   3.427   0.434 -0.1257  0.1470  0.2870
14101TIP3    H163718   1.019   3.449   0.527  0.4453 -0.3553  0.4623
14101TIP3    H263719   1.041   3.510   0.390 -2.2711  0.6000  0.4306
14102TIP3   OH263720   0.432   0.440   2.857  0.0885 -0.4974  0.5265
14102TIP3    H163721   0.337   0.440   2.868 -0.0038 -1.4904 -0.2202
14102TIP3    H263722   0.456   0.347   2.855  0.6021 -0.3654 -3.1442
14103TIP3   OH263723   1.328   4.463  14.763  0.5397  0.1440  0.0948
14103TIP3    H163724   1.406   4.483  14.814  1.4396  1.5357 -1.7597
14103TIP3    H263725   1.350   4.490  14.674 -1.2557 -1.5171 -0.8957
14104TIP3   OH263726   1.968   6.596   6.086  0.1973  0.2870 -0.1462
14104TIP3    H163727   2.037   6.649   6.126  0.2671  0.2361 -0.2004
14104TIP3    H263728   2.001   6.506   6.089  0.1044  0.2534 -0.1070
14105TIP3   OH263729   5.651   2.081   5.064 -0.5397 -0.2755 -0.3108
14105TIP3    H163730   5.692   2.061   5.147 -2.3297 -1.2349  0.3775
14105TIP3    H263731   5.709   2.042   4.998  0.4506 -0.2211  0.5241
14106TIP3   OH263732   4.519   3.777  14.331  0.1031 -0.1597 -0.2432
14106TIP3    H163733   4.443   3.775  14.272 -3.2418  1.4499  3.7446
14106TIP3    H263734   4.510   3.699  14.385  1.8936 -0.4980 -0.4210
14107TIP3   OH263735   6.650   3.985   3.830  0.3332 -0.0099  0.1211
14107TIP3    H163736   6.672   4.040   3.906 -0.3233  2.1012 -1.1584
14107TIP3    H263737   6.724   3.996   3.771 -0.0177 -0.1418 -0.3445
14108TIP3   OH263738   0.078   2.642  12.104  0.1599 -0.0279 -0.4834
14108TIP3    H163739   0.146   2.635  12.171  1.8179 -1.6145 -2.2612
14108TIP3    H263740  -0.001   2.612  12.148  0.6358  1.5653  1.5488
14109TIP3   OH263741   3.336   6.494  12.636  0.1677  0.2468  0.2380
14109TIP3    H163742   3.358   6.536  12.719  1.1514  0.3489 -0.0668
14109TIP3    H263743   3.248   6.459  12.649  0.3829  0.1222  1.3748
14110TIP3   OH263744   6.378   3.447   1.671  0.5450 -0.0588  0.0523
14110TIP3    H163745   6.461   3.488   1.647  0.4684  0.5004  0.7022
14110TIP3    H263746   6.342   3.505   1.739  0.1336 -0.8660  0.5311
14111TIP3   OH263747   1.631   1.503  12.137  0.1336 -0.0253 -0.7935
14111TIP3    H163748   1.578   1.538  12.209  1.3144  1.3503 -0.5708
14111TIP3    H263749   1.594   1.416  12.120 -0.8324  0.0592  0.7632
14112TIP3   OH263750   1.281   2.899  14.133  0.4646  0.0578  0.5038
14112TIP3    H163751   1.274   2.805  14.147  0.0735  0.2485  1.6622
14112TIP3    H263752   1.371   2.913  14.104  0.5919 -0.6432  0.5624
14113TIP3   OH263753   3.885   3.105  16.904  0.4137 -0.0803  0.2991
14113TIP3    H163754   3.799   3.065  16.920 -0.1264  1.2812  0.9265
14113TIP3    H263755   3.887   3.121  16.810 -1.1020  2.1978  0.6085
14114TIP3   OH263756   3.433   3.915   1.082  0.5077 -0.0240 -0.4121
14114TIP3    H163757   3.450   4.009   1.086  1.2264 -0.1490 -0.4144
14114TIP3    H263758   3.356   3.902   1.137 -0.2226  0.7098 -1.2340
14115TIP3   OH263759   6.130   4.122   1.770 -0.5141 -0.0486 -0.3268
14115TIP3    H163760   6.077   4.071   1.831 -1.6426 -0.0177 -1.2544
14115TIP3    H263761   6.067   4.182   1.729 -0.1556 -1.4035 -2.9433
14116TIP3   OH263762   3.411   1.871  12.405 -0.1672  0.2142  0.3334
14116TIP3    H163763   3.352   1.832  12.470  0.5482  0.5727  1.2034
14116TIP3    H263764   3.409   1.811  12.331 -2.4888  0.7669 -0.1022
14117TIP3   OH263765   1.404   0.917  17.008  0.7303 -0.3247 -0.2214
14117TIP3    H163766   1.468   0.987  17.018  1.1347 -0.7965  0.5138
14117TIP3    H263767   1.338   0.954  16.948  1.3652  0.3738 -0.5026
14118TIP3   OH263768   0.698   5.774   0.951  0.1480  0.3888  0.3497
14118TIP3    H163769   0.713   5.754   1.043 -2.2235  1.2657  0.9763
14118TIP3    H263770   0.667   5.692   0.913 -0.3276  0.4102  0.6885
14119TIP3   OH263771   2.531   5.589  11.292 -0.2452  0.3314 -0.1453
14119TIP3    H163772   2.531   5.585  11.196 -1.8467  0.0462 -0.1371
14119TIP3    H263773   2.442   5.613  11.315  0.6446  2.3694  1.2199
14120TIP3   OH263774   0.095   4.546  14.548 -0.6146  0.1271 -0.4110
14120TIP3    H163775   0.091   4.459  14.588 -0.4717  0.1242 -0.4047
14120TIP3    H263776   0.095   4.528  14.454 -0.2006  0.1066 -0.4055
14121TIP3   OH263777   6.735   2.752   5.640  0.4442 -0.2506  0.1521
14121TIP3    H163778   6.737   2.800   5.557  1.1303 -0.1806  0.2029
14121TIP3    H263779   6.726   2.661   5.614  0.9245 -0.2531 -0.0121
14122TIP3   OH263780   0.104   5.438   3.665 -0.6126  0.4035  0.2462
14122TIP3    H163781   0.103   5.523   3.621  0.0275 -0.1703 -0.8787
14122TIP3    H263782   0.147   5.379   3.604 -1.4340 -0.8437  0.8459
14123TIP3   OH263783   3.849   0.792  12.108  0.0729 -0.3174 -0.0372
14123TIP3    H163784   3.934   0.792  12.064 -0.5877 -0.3160 -1.3372
14123TIP3    H263785   3.829   0.884  12.122 -0.1626 -0.2732 -0.6348
14124TIP3   OH263786   0.058   0.703   1.641 -0.9928 -0.1456  0.5732
14124TIP3    H163787   0.044   0.723   1.733 -1.2638  0.7319  0.3437
14124TIP3    H263788   0.069   0.608   1.639  0.6630  0.0190  1.6960
14125TIP3   OH263789   1.932   2.948  13.621  0.3823  0.4705  0.7209
14125TIP3    H163790   2.016   2.924  13.660  0.7046 -0.1396 -0.3438
14125TIP3    H263791   1.944   2.937  13.527 -1.1485 -0.4807  0.6104
14126TIP3   OH263792   1.824   3.742   4.508 -0.2039  0.4433 -0.0436
14126TIP3    H163793   1.748   3.764   4.454 -0.3409  1.7946  0.6772
14126TIP3    H263794   1.892   3.804   4.480 -0.0254  0.6151  0.7665
14127TIP3   OH263795   0.121   1.043  14.957 -0.4671  0.3588 -0.2662
14127TIP3    H163796   0.200   1.082  14.995 -1.8084  1.9532  0.9563
14127TIP3    H263797   0.099   1.099  14.883 -0.9700  0.4466 -0.0512
14128TIP3   OH263798   5.147   4.878   2.607  0.0947 -0.0099  0.6417
14128TIP3    H163799   5.186   4.803   2.563  1.0298 -0.0680  1.5487
14128TIP3    H263800   5.142   4.853   2.699 -0.5279  0.6508  0.7996
14129TIP3   OH263801   5.948   5.353  14.468  0.5797  0.2013 -0.7297
14129TIP3    H163802   5.858   5.352  14.501  0.2931 -2.1690 -1.4957
14129TIP3    H263803   5.940   5.381  14.377  0.6465  0.1828 -0.7419
14130TIP3   OH263804   3.598   3.088   2.987 -0.7094  0.0574  0.0966
14130TIP3    H163805   3.681   3.046   3.008  1.0970  3.6135  0.4761
14130TIP3    H263806   3.598   3.097   2.892 -1.9790 -2.4567 -0.1657
14131TIP3   OH263807   0.530   5.575  15.040 -0.1791 -0.8237 -0.3354
14131TIP3    H163808   0.586   5.581  14.963  0.7237 -1.0516  0.3077
14131TIP3    H263809   0.566   5.503  15.091 -1.5477 -1.5063 -0.3180
14132TIP3   OH263810   3.590   1.913  12.080 -0.6175 -0.7764 -0.1805
14132TIP3    H163811   3.676   1.909  12.037 -1.1602 -1.3011 -1.2323
14132TIP3    H263812   3.544   1.983  12.034 -2.0055 -2.8001 -1.9901
14133TIP3   OH263813   2.460   4.387  12.244  0.1815  0.3989  0.1879
14133TIP3    H163814   2.387   4.364  12.301  0.7868  0.2757  0.9239
14133TIP3    H263815   2.477   4.479  12.262 -0.5228  0.7199 -0.8097
14134TIP3   OH263816   6.292   2.812  13.573 -0.2540 -0.6800 -0.0014
14134TIP3    H163817   6.372   2.865  13.578 -1.2416  0.7696  0.8005
14134TIP3    H263818   6.282   2.792  13.480  0.6300 -0.2058 -0.2072
14135TIP3   OH263819   5.210   3.331   6.718 -0.3766  0.0291  0.1363
14135TIP3    H163820   5.230   3.420   6.745 -0.1204 -0.1738  0.6260
14135TIP3    H263821   5.275   3.312   6.650 -0.4011  0.2015  0.0645
14136TIP3   OH263822   5.367   5.365  12.777 -0.1929  0.1803 -0.0178
14136TIP3    H163823   5.373   5.279  12.819  1.5632 -1.0225 -2.5534
14136TIP3    H263824   5.446   5.411  12.807  1.8851 -1.2418 -3.0119
14137TIP3   OH263825   5.108   4.933   2.114 -0.1545 -0.1959  0.4032
14137TIP3    H163826   5.042   4.912   2.181  0.0847 -0.6533  0.4973
14137TIP3    H263827   5.129   5.026   2.129 -2.2527  0.5220 -0.9164
14138TIP3   OH263828   0.494   3.497   2.773 -0.3302 -0.4069 -0.5094
14138TIP3    H163829   0.454   3.428   2.826 -1.1316 -0.4723 -1.1813
14138TIP3    H263830   0.480   3.577   2.823  0.8511 -0.7628  0.4059
14139TIP3   OH263831   4.866   5.940   0.685  0.3970 -0.3954  0.4373
14139TIP3    H163832   4.846   5.923   0.593 -2.0947 -1.3908  1.1304
14139TIP3    H263833   4.935   5.878   0.706  1.3439  0.1748 -0.8667
14140TIP3   OH263834   4.277   0.192   0.525  0.2975  0.4380 -0.5734
14140TIP3    H163835   4.320   0.248   0.460 -0.7030  0.2072 -1.4392
14140TIP3    H263836   4.191   0.232   0.538  0.3165  0.2111  0.2636
14141TIP3   OH263837   2.390   0.726  12.803 -0.3142  0.3541 -0.1071
14141TIP3    H163838   2.408   0.776  12.883 -1.9464 -0.2321  0.6393
14141TIP3    H263839   2.340   0.787  12.748 -0.4110  0.2786 -0.1025
14142TIP3   OH263840   3.569   5.843  13.401 -0.4643  0.2587  0.9486
14142TIP3    H163841   3.595   5.935  13.408  0.8461 -0.1077  1.0674
14142TIP3    H263842   3.549   5.817  13.491  0.9470 -0.0720  1.1733
14143TIP3   OH263843   6.093   0.313  16.088  0.6233  0.3757  0.1670
14143TIP3    H163844   6.083   0.266  16.005  1.9952  2.2819 -1.1494
14143TIP3    H263845   6.025   0.277  16.145  0.4047 -1.7900 -1.4035
14144TIP3   OH263846   4.251   3.214   1.127  0.1795  0.3019 -0.2577
14144TIP3    H163847   4.312   3.146   1.154 -1.3905 -0.1382  2.3675
14144TIP3    H263848   4.176   3.166   1.092 -0.0046  0.7506 -0.4847
14145TIP3   OH263849   0.474   4.625  13.950  0.2576  0.0662 -0.1236
14145TIP3    H163850   0.565   4.616  13.921  0.1851 -1.0870 -0.0132
14145TIP3    H263851   0.434   4.541  13.929 -0.5681  0.2855  0.5711
14146TIP3   OH263852   4.802   2.173  12.942  0.4373 -0.6711  0.5671
14146TIP3    H163853   4.858   2.148  12.869  0.0790  1.5647 -0.4821
14146TIP3    H263854   4.853   2.236  12.992 -1.2737  1.8275 -0.7113
14147TIP3   OH263855   3.925   4.030  14.798 -0.6565 -1.1451  0.4730
14147TIP3    H163856   4.003   4.059  14.845 -0.2415 -2.4891  0.6498
14147TIP3    H263857   3.866   4.105  14.800 -0.3664 -0.9409  2.5500
14148TIP3   OH263858   2.706   1.188   3.978 -0.2342 -0.6858 -0.0581
14148TIP3    H163859   2.727   1.101   4.014 -0.6051 -0.7831 -0.0711
14148TIP3    H263860   2.706   1.175   3.883  0.7483 -0.4275 -0.0932
14149TIP3   OH263861   3.478   6.217   1.512  0.0854 -0.6154  1.1398
14149TIP3    H163862   3.520   6.301   1.494  0.5996 -0.8960  1.0002
14149TIP3    H263863   3.529   6.180   1.584  0.9650 -1.5771  0.0565
14150TIP3   OH263864   5.562   4.547   1.304  0.1000  0.2368  0.5250
14150TIP3    H163865   5.515   4.519   1.382 -2.0720  0.6029 -0.6245
14150TIP3    H263866   5.622   4.475   1.285 -2.0525 -1.5738  0.3671
14151TIP3   OH263867   1.876   5.366  16.767  0.3666 -0.3477 -0.6640
14151TIP3    H163868   1.894   5.371  16.673 -1.5239 -0.3276 -1.0365
14151TIP3    H263869   1.809   5.298  16.775 -0.0933  0.2395  0.5908
14152TIP3   OH263870   3.254   5.007  15.957 -0.1989 -0.5369  0.0242
14152TIP3    H163871   3.174   5.022  16.006 -0.5604  0.0994 -0.7502
14152TIP3    H263872   3.292   5.095  15.946 -0.9460 -0.4663 -2.2159
14153TIP3   OH263873   4.129   5.813  12.161  0.2481 -0.3871  0.6493
14153TIP3    H163874   4.184   5.870  12.215  1.5919 -1.8908  0.9099
14153TIP3    H263875   4.189   5.773  12.100 -1.2399  1.1646 -1.9079
14154TIP3   OH263876   2.466   3.052  16.057  0.1736 -0.3392  0.5393
14154TIP3    H163877   2.560   3.036  16.062  0.2976  0.1628 -0.2185
14154TIP3    H263878   2.456   3.119  15.990 -0.6998 -0.1709  0.8280
14155TIP3   OH263879   3.508   1.284  15.792 -0.1676 -0.6626  0.2076
14155TIP3    H163880   3.529   1.350  15.858 -0.7818 -1.2174  0.9756
14155TIP3    H263881   3.417   1.302  15.769  0.7094  0.9921 -2.2269
14156TIP3   OH263882   3.196   0.749  16.497 -0.2869 -0.2066  0.1762
14156TIP3    H163883   3.259   0.764  16.567 -2.3084 -3.0671  2.7429
14156TIP3    H263884   3.245   0.768  16.417  2.8470  0.7186  2.1984
14157TIP3   OH263885   6.021   6.563   5.502  0.2303 -0.3616 -0.2381
14157TIP3    H163886   6.053   6.616   5.575  1.9613 -1.3781 -0.2326
14157TIP3    H263887   5.936   6.601   5.480  0.1531  0.6038  1.6293
14158TIP3   OH263888   5.559   0.488  14.749  0.7663 -0.0634 -0.4714
14158TIP3    H163889   5.607   0.421  14.700 -1.5523 -0.8096 -1.8494
14158TIP3    H263890   5.614   0.566  14.744  2.1779 -1.0842 -1.3124
14159TIP3   OH263891   1.106   4.460  13.914 -0.2007  0.1449  0.3373
14159TIP3    H163892   1.157   4.430  13.989 -0.8648  0.3208  0.8633
14159TIP3    H263893   1.030   4.401  13.911  0.4276 -0.6307 -0.9252
14160TIP3   OH263894   5.348   0.401  10.870  0.4039 -0.2980 -0.6450
14160TIP3    H163895   5.388   0.480  10.834  0.4638  0.4217  0.9969
14160TIP3    H263896   5.265   0.431  10.908  0.2224 -1.0963 -0.3953
14161TIP3   OH263897   6.006   2.545   5.419 -0.0737 -0.2776 -0.6766
14161TIP3    H163898   5.946   2.575   5.351 -0.4380 -0.4973 -0.4589
14161TIP3    H263899   6.020   2.452   5.399 -1.6797 -0.8218  0.6276
14162TIP3   OH263900   2.579   6.784   4.038  0.0322  0.6775  0.4704
14162TIP3    H163901   2.607   6.784   3.947 -0.6512 -1.7811  0.2447
14162TIP3    H263902   2.658   6.806   4.087  0.3175  2.3813 -0.7065
14163TIP3   OH263903   6.203   6.434   6.277  0.1983  0.1264  0.4710
14163TIP3    H163904   6.127   6.402   6.228  2.0951 -1.1846 -1.7353
14163TIP3    H263905   6.191   6.529   6.278 -0.0256  0.1964 -2.4487
14164TIP3   OH263906   2.967   3.073   1.465  0.0139 -0.5790  0.2117
14164TIP3    H163907   2.958   3.123   1.546  0.5260 -1.6943  0.9646
14164TIP3    H263908   3.031   3.121   1.414 -0.2751  0.1051  0.4916
14165TIP3   OH263909   0.120   5.899   4.803 -0.1317  0.1185 -0.0817
14165TIP3    H163910   0.197   5.842   4.809 -1.6593 -1.8894  1.4642
14165TIP3    H263911   0.148   5.972   4.748  2.6535 -0.9079 -0.1131
14166TIP3   OH263912   3.187   6.053  11.969 -0.2971 -0.6199  0.7333
14166TIP3    H163913   3.173   5.980  11.909  2.6383 -2.9070  2.7433
14166TIP3    H263914   3.238   6.116  11.917  0.2592 -1.5529  0.1472
14167TIP3   OH263915   2.512   3.242   2.866  0.1644  0.0570  0.0246
14167TIP3    H163916   2.497   3.329   2.828  0.6429 -0.0774 -0.4609
14167TIP3    H263917   2.446   3.236   2.935 -0.8690  0.1943 -0.9348
14168TIP3   OH263918   0.388   5.943   4.929 -0.3301 -0.0451  0.2236
14168TIP3    H163919   0.428   5.954   4.843 -0.7731 -0.8210 -0.0822
14168TIP3    H263920   0.378   6.033   4.962  1.1059  0.1900  0.0599
14169TIP3   OH263921   0.318   4.697   4.146  0.1051 -0.3214  0.0468
14169TIP3    H163922   0.264   4.701   4.067 -1.4211 -0.8877  1.0335
14169TIP3    H263923   0.292   4.615   4.188  2.1881 -0.9006  0.2430
14170TIP3   OH263924   3.294   1.614  11.294 -0.3605 -0.0522  0.2237
14170TIP3    H163925   3.370   1.664  11.325  1.5287 -1.5125 -1.8307
14170TIP3    H263926   3.224   1.680  11.285  0.6166  1.3077  2.2398
14171TIP3   OH263927   1.595   3.163  16.694 -0.0594 -0.1758 -0.4236
14171TIP3    H163928   1.526   3.222  16.723  1.5090  1.0674  0.8415
14171TIP3    H263929   1.571   3.078  16.731 -0.3533  0.4702  0.8854
14172TIP3   OH263930   4.477   3.717   6.340  0.1703  0.2413  0.0254
14172TIP3    H163931   4.467   3.639   6.394 -0.1730 -0.5454 -1.1589
14172TIP3    H263932   4.407   3.775   6.369 -1.7342 -1.2729 -1.4092
14173TIP3   OH263933   3.541   0.678  16.813  0.3353  0.7219  0.2191
14173TIP3    H163934   3.630   0.649  16.832 -0.1042 -0.9782 -0.2630
14173TIP3    H263935   3.485   0.610  16.851 -0.7055  0.7777 -1.1989
14174TIP3   OH263936   5.532   5.635   0.181  0.4116  0.0040  0.1904
14174TIP3    H163937   5.465   5.668   0.121 -1.2658 -0.6320  1.6652
14174TIP3    H263938   5.541   5.703   0.248  1.5045  0.2356 -0.1727
14175TIP3   OH263939   3.434   4.535   4.423  0.2088 -0.0966  0.4498
14175TIP3    H163940   3.432   4.518   4.517 -0.2632 -0.3367  0.3987
14175TIP3    H263941   3.510   4.486   4.391 -0.8038 -1.6679  0.3929
14176TIP3   OH263942   6.149   3.623   6.602  0.1146  0.2489  0.4336
14176TIP3    H163943   6.131   3.530   6.608 -0.1965  0.3864  1.8407
14176TIP3    H263944   6.227   3.636   6.655  0.2807  0.7561  0.0689
14177TIP3   OH263945   5.519   6.288   4.116  0.4009 -0.6024 -0.8628
14177TIP3    H163946   5.508   6.273   4.210  0.3270 -1.1053 -0.9470
14177TIP3    H263947   5.445   6.242   4.076  0.5332 -0.5445 -1.1799
14178TIP3   OH263948   0.848   6.146  11.871 -0.0200  0.0804  0.3874
14178TIP3    H163949   0.923   6.088  11.854 -0.6517 -0.2192 -1.5469
14178TIP3    H263950   0.790   6.095  11.927  0.4294 -0.3316  0.4842
14179TIP3   OH263951   3.857   5.108   1.508  0.3567 -0.0691 -0.0541
14179TIP3    H163952   3.932   5.051   1.526 -0.0801 -1.2097 -1.7484
14179TIP3    H263953   3.827   5.081   1.421 -0.5480  2.0030 -0.4111
14180TIP3   OH263954   5.439   2.385  16.513 -0.0854  0.9591  0.4813
14180TIP3    H163955   5.435   2.415  16.422  4.4591 -1.3478 -0.6292
14180TIP3    H263956   5.371   2.318  16.519  1.3812 -0.8598 -2.1220
14181TIP3   OH263957   3.262   4.200  14.370  0.2677  0.2745 -0.3488
14181TIP3    H163958   3.265   4.296  14.370  0.9267  0.3173  2.4789
14181TIP3    H263959   3.168   4.180  14.369  0.0729  1.0204  0.6773
14182TIP3   OH263960   3.880   1.312  12.461  0.1972  0.5039  0.1585
14182TIP3    H163961   3.859   1.344  12.549 -1.4324 -1.2606  0.4412
14182TIP3    H263962   3.849   1.381  12.402 -0.1855  0.9563  0.8847
14183TIP3   OH263963   4.948   0.173   2.510 -0.3708  0.0014 -0.3932
14183TIP3    H163964   5.026   0.137   2.552 -0.8777 -2.6081 -1.5981
14183TIP3    H263965   4.981   0.242   2.453  0.8455  0.1553  0.4798
14184TIP3   OH263966   0.766   0.458  14.208 -0.0524  0.6108 -0.2412
14184TIP3    H163967   0.707   0.388  14.234 -1.1716  0.9889 -1.7000
14184TIP3    H263968   0.854   0.422  14.224 -0.6458 -0.2401  1.1958
14185TIP3   OH263969   2.253   0.937   0.125 -0.7924 -0.1368  0.1822
14185TIP3    H163970   2.196   0.860   0.123  0.0239 -0.7199 -1.0415
14185TIP3    H263971   2.269   0.958   0.033  1.7073 -0.5623  0.4834
14186TIP3   OH263972   4.424   3.570   3.806 -0.4361  0.6077  0.0601
14186TIP3    H163973   4.472   3.552   3.887 -1.2589  0.2898  0.4881
14186TIP3    H263974   4.355   3.631   3.833 -1.0883  0.0183 -0.2756
14187TIP3   OH263975   0.267   2.046  15.679  0.7502 -0.2904 -0.4967
14187TIP3    H163976   0.217   2.122  15.708  1.1146 -0.2318 -0.0151
14187TIP3    H263977   0.305   2.072  15.595  1.7794  0.4605  0.1842
14188TIP3   OH263978   5.982   1.248  12.452 -0.5122 -0.2273 -0.1865
14188TIP3    H163979   5.947   1.300  12.379  1.4154  0.7959 -0.4222
14188TIP3    H263980   5.945   1.288  12.530 -0.8579  0.0562 -0.4950
14189TIP3   OH263981   0.970   3.368   0.780  0.1675 -0.4450  0.4390
14189TIP3    H163982   0.916   3.374   0.859 -0.0791  0.3087  0.2238
14189TIP3    H263983   0.987   3.460   0.756  1.8122 -0.6750  0.6908
14190TIP3   OH263984   0.075   0.898   5.242  0.3841  0.5749  0.3495
14190TIP3    H163985   0.060   0.867   5.331 -0.3825  0.3573  0.1518
14190TIP3    H263986   0.149   0.846   5.210 -1.2426 -1.4889 -0.1742
14191TIP3   OH263987   5.240   3.459  13.016 -0.3359  0.0694  0.0077
14191TIP3    H163988   5.333   3.470  12.999 -0.5797  1.6401 -0.4841
14191TIP3    H263989   5.198   3.523  12.959 -1.7426 -0.8948 -0.0628
14192TIP3   OH263990   2.534   1.215  17.017  0.0807 -0.0555 -0.3314
14192TIP3    H163991   2.625   1.236  17.037 -0.2792 -0.1689  1.4755
14192TIP3    H263992   2.483   1.283  17.061 -0.7576 -0.6438 -0.3720
14193TIP3   OH263993   0.302   3.740  14.863  0.5969  0.3636 -0.2438
14193TIP3    H163994   0.338   3.714  14.778 -0.6851 -1.2795 -0.3185
14193TIP3    H263995   0.287   3.834  14.855 -0.3920  0.0697 -2.1755
14194TIP3   OH263996   3.010   5.912   3.948 -0.3406  0.2554 -0.4013
14194TIP3    H163997   3.019   5.893   3.854 -0.3200  1.2587 -0.6075
14194TIP3    H263998   2.964   5.836   3.983  2.2319 -1.4743 -0.6934
14195TIP3   OH263999   5.909   2.015  16.708  0.1741  0.0363 -0.1154
14195TIP3    H164000   5.814   2.014  16.713  0.1949 -0.7197  0.2745
14195TIP3    H264001   5.934   2.104  16.734 -0.5407  1.1101 -2.9052
14196TIP3   OH264002   3.482   6.467  15.452  0.2881  0.0717 -0.1330
14196TIP3    H164003   3.406   6.411  15.444  1.3627 -1.4738  0.2414
14196TIP3    H264004   3.548   6.427  15.396  1.2487  0.6396  0.5759
14197TIP3   OH264005   1.821   1.143   3.781 -0.1452 -0.1923  0.7454
14197TIP3    H164006   1.806   1.176   3.869  0.6031 -1.2792  1.2967
14197TIP3    H264007   1.889   1.076   3.791  1.1100  0.7806 -0.8781
14198TIP3   OH264008   5.975   4.585  17.017 -0.1736 -0.7402 -0.2874
14198TIP3    H164009   6.066   4.614  17.018 -0.2590 -0.3894 -1.6387
14198TIP3    H264010   5.980   4.491  17.037  0.3199 -0.3563  1.4486
14199TIP3   OH264011   3.831   2.216  17.235  0.6422 -0.4748  0.2906
14199TIP3    H164012   3.927   2.212  17.229  0.5882 -0.4614 -0.6314
14199TIP3    H264013   3.802   2.223  17.144 -0.2677 -1.1771  0.5280
14200TIP3   OH264014   2.305   1.310   4.137  0.1582 -0.4301  0.1427
14200TIP3    H164015   2.395   1.339   4.126 -0.2665  0.7786 -0.2180
14200TIP3    H264016   2.297   1.235   4.078  1.6677 -2.2239  2.1356
14201TIP3   OH264017   3.175   3.477   4.900  0.2888 -0.2332 -1.1522
14201TIP3    H164018   3.197   3.414   4.968  0.1935 -0.8803 -1.7197
14201TIP3    H264019   3.251   3.477   4.841 -0.1893 -0.6598 -1.7738
14202TIP3   OH264020   5.344   5.277   2.783  0.1573  0.6316  0.1179
14202TIP3    H164021   5.422   5.226   2.805 -0.1510 -0.4165 -1.1164
14202TIP3    H264022   5.364   5.366   2.812  1.8545  0.3970 -0.2817
14203TIP3   OH264023   3.522   4.656  13.615  0.4153 -0.3672 -0.5280
14203TIP3    H164024   3.535   4.699  13.699 -1.8288  0.7502 -0.6905
14203TIP3    H264025   3.437   4.612  13.623  0.6851 -1.1808 -1.8305
14204TIP3   OH264026   2.992   4.151   5.188 -0.7600 -0.2904  0.1342
14204TIP3    H164027   2.990   4.244   5.212 -0.9283 -0.3903  0.5184
14204TIP3    H264028   3.040   4.148   5.106  0.4527 -0.0192  0.8207
14205TIP3   OH264029   1.059   6.469   4.646 -0.0076 -0.2584  0.0332
14205TIP3    H164030   1.001   6.515   4.706  0.6581  0.4414  0.1547
14205TIP3    H264031   1.100   6.401   4.699  0.4868  0.2799  0.3455
14206TIP3   OH264032   0.469   5.962  13.682 -0.3562 -0.0905  0.6770
14206TIP3    H164033   0.419   6.042  13.665 -0.0992  0.3386  1.9209
14206TIP3    H264034   0.545   5.969  13.626 -1.4014 -0.4858 -0.8279
14207TIP3   OH264035   0.748   2.881   2.924  0.0590  0.0167  0.5805
14207TIP3    H164036   0.835   2.918   2.913  0.1514 -0.7551 -1.6274
14207TIP3    H264037   0.753   2.831   3.005  1.1743  1.2824  1.3236
14208TIP3   OH264038   0.858   6.144   3.847 -0.3622  0.1824 -0.2527
14208TIP3    H164039   0.950   6.171   3.856 -0.0263 -1.0714  0.2593
14208TIP3    H264040   0.831   6.119   3.935 -0.9243 -0.2861 -0.5525
14209TIP3   OH264041   5.743   4.913   1.629  0.2397 -0.6963  0.2402
14209TIP3    H164042   5.818   4.916   1.689  1.0440 -3.3377 -0.5566
14209TIP3    H264043   5.782   4.905   1.542 -0.9597  0.1647 -0.3813
14210TIP3   OH264044   0.680   2.655  12.578 -0.1346  0.2324 -0.0292
14210TIP3    H164045   0.661   2.625  12.489  1.8820 -1.5808  0.0982
14210TIP3    H264046   0.624   2.601  12.633 -2.0610  1.9839 -0.2053
14211TIP3   OH264047   0.353   1.541   2.972  0.0831 -0.0198 -0.0551
14211TIP3    H164048   0.335   1.632   2.995 -0.4937  0.3430 -1.8883
14211TIP3    H264049   0.307   1.490   3.039 -2.4788  0.9787 -1.0030
14212TIP3   OH264050   3.831   5.370   0.525 -0.5539  0.1468 -0.0036
14212TIP3    H164051   3.791   5.441   0.475 -0.3597  0.0933 -0.2349
14212TIP3    H264052   3.804   5.386   0.615  0.3171  1.1043  0.1061
14213TIP3   OH264053   3.960   2.056  12.216 -0.0866 -0.0734  0.4710
14213TIP3    H164054   3.920   2.083  12.299 -0.5515 -1.3575  0.6757
14213TIP3    H264055   3.887   2.057  12.153 -0.3122 -1.6985  0.6812
14214TIP3   OH264056   2.191   5.279  17.164 -0.1592 -0.0861  0.5513
14214TIP3    H164057   2.248   5.203  17.164 -0.9155 -0.6586  2.3693
14214TIP3    H264058   2.148   5.277  17.078 -0.6543 -2.0653  0.8351
14215TIP3   OH264059   3.232   6.416   4.573 -0.0162 -0.1644 -0.3197
14215TIP3    H164060   3.328   6.414   4.576 -0.0328 -1.6504 -0.3528
14215TIP3    H264061   3.205   6.435   4.663  0.2810 -1.9669  0.1682
14216TIP3   OH264062   1.656   5.062   5.193 -0.3889 -0.0451 -0.1679
14216TIP3    H164063   1.638   5.141   5.244 -0.4700  0.6052 -1.1951
14216TIP3    H264064   1.596   5.067   5.118 -1.6437 -1.9462  0.6349
14217TIP3   OH264065   5.708   1.185  13.286  0.1562  0.0994  1.0867
14217TIP3    H164066   5.663   1.116  13.237  0.1846  0.4762  0.5238
14217TIP3    H264067   5.661   1.191  13.369  0.3746 -0.8377  1.2784
14218TIP3   OH264068   0.322   6.570  17.211  0.0103 -0.5353 -0.3149
14218TIP3    H164069   0.232   6.604  17.204 -0.3937 -1.8765 -1.9752
14218TIP3    H264070   0.312   6.487  17.259  0.8608  1.0908  2.7995
14219TIP3   OH264071   0.548   6.228  15.753 -0.3860 -0.2535  0.2528
14219TIP3    H164072   0.634   6.189  15.737 -0.8938 -1.3546  0.1477
14219TIP3    H264073   0.492   6.189  15.687 -0.8091  1.0429 -0.1645
14220TIP3   OH264074   4.878   4.669   0.612 -0.5748  0.3924 -0.0979
14220TIP3    H164075   4.802   4.614   0.633 -1.7562  1.8838 -0.3769
14220TIP3    H264076   4.947   4.607   0.588 -1.5306 -1.0065  0.7384
14221TIP3   OH264077   5.005   1.585   1.634  0.2881  0.0399 -0.0361
14221TIP3    H164078   4.958   1.668   1.628  1.2238  0.5995  0.3072
14221TIP3    H264079   4.945   1.527   1.682 -0.7096  0.2527 -1.0104
14222TIP3   OH264080   4.191   4.700   3.067  0.2709 -0.5361  0.7037
14222TIP3    H164081   4.239   4.774   3.030  1.7021 -2.0021 -0.4494
14222TIP3    H264082   4.102   4.709   3.032  0.3557  0.8159  0.8349
14223TIP3   OH264083   2.739   1.899  16.396 -0.3582  0.5233 -0.3687
14223TIP3    H164084   2.648   1.890  16.367 -0.6231  1.5226  0.1440
14223TIP3    H264085   2.732   1.930  16.487  0.4813 -0.7573  0.1411
14224TIP3   OH264086   6.552   6.741  11.156  0.2223 -0.7333 -0.4576
14224TIP3    H164087   6.499   6.693  11.092  0.0864 -0.3980 -0.5975
14224TIP3    H264088   6.490   6.765  11.225 -0.1459  1.0526 -1.3902
14225TIP3   OH264089   5.539   0.663  17.139 -0.5266 -0.0322  0.3450
14225TIP3    H164090   5.574   0.746  17.107 -0.1879 -0.1480  0.4210
14225TIP3    H264091   5.604   0.597  17.113 -0.7699 -0.2695  0.3272
14226TIP3   OH264092   5.662   4.694  15.329 -0.6959 -0.1601  0.3498
14226TIP3    H164093   5.688   4.782  15.355 -0.0902 -0.3975  0.5534
14226TIP3    H264094   5.744   4.646  15.320 -1.0403 -0.8286  0.6807
14227TIP3   OH264095   4.224   2.066  13.059 -0.0141  0.2871 -0.2087
14227TIP3    H164096   4.212   1.980  13.099  0.3053  0.7304  0.8333
14227TIP3    H264097   4.147   2.116  13.085  1.5423  1.4859  2.2404
14228TIP3   OH264098   1.629   3.659   2.390  0.0092 -0.2429 -0.5294
14228TIP3    H164099   1.665   3.616   2.468 -0.5496 -0.1624 -0.2310
14228TIP3    H264100   1.667   3.610   2.317 -0.2936 -0.9795 -0.1991
14229TIP3   OH264101   0.388   3.719   6.044 -0.2218 -0.3299  0.1381
14229TIP3    H164102   0.386   3.700   5.950  1.0510 -0.0589  0.0510
14229TIP3    H264103   0.343   3.803   6.052  1.7583  0.8355 -0.5451
14230TIP3   OH264104   1.996   5.734  13.709 -0.3945  0.1952  0.4887
14230TIP3    H164105   2.002   5.751  13.803 -1.2898 -2.0251  0.9890
14230TIP3    H264106   2.061   5.666  13.692 -0.8830 -0.0915 -0.3129
14231TIP3   OH264107   1.842   4.031   4.665 -0.0178  0.3007  0.4746
14231TIP3    H164108   1.804   4.119   4.669  0.6084  0.5983  0.0044
14231TIP3    H264109   1.811   3.995   4.582 -0.3832  0.0248  0.7296
14232TIP3   OH264110   5.895   2.313   6.537 -0.6360 -0.6197 -0.7053
14232TIP3    H164111   5.936   2.289   6.620 -1.0912  1.2851  0.0809
14232TIP3    H264112   5.801   2.309   6.554 -0.7322 -0.3576 -1.1639
14233TIP3   OH264113   1.805   4.168   1.854  0.3129 -0.4810 -0.0449
14233TIP3    H164114   1.849   4.108   1.794  0.3337 -0.4464 -0.0638
14233TIP3    H264115   1.876   4.213   1.899  0.3021 -1.6778  1.1783
14234TIP3   OH264116   4.387   6.360  11.490  0.0546 -0.3280  0.7187
14234TIP3    H164117   4.401   6.288  11.552 -0.5336 -0.8121  0.2933
14234TIP3    H264118   4.343   6.427  11.541  1.7864  0.2817  1.4694
14235TIP3   OH264119   2.738   1.160   5.215  0.6617  0.0827 -0.1546
14235TIP3    H164120   2.779   1.103   5.149 -0.2193  0.9716 -1.4971
14235TIP3    H264121   2.657   1.114   5.238  0.6220  0.1179 -0.2228
14236TIP3   OH264122   6.535   1.229  12.205 -0.5381 -0.7946  0.6179
14236TIP3    H164123   6.615   1.264  12.167 -0.2283 -0.6696  1.3722
14236TIP3    H264124   6.522   1.279  12.286 -0.2826 -2.1607  1.5252
14237TIP3   OH264125   5.116   3.058   6.021  0.8307  0.2892  0.1918
14237TIP3    H164126   5.176   2.993   6.058  0.7493 -0.7488 -1.4462
14237TIP3    H264127   5.138   3.061   5.928 -1.5259  0.0259 -0.4051
14238TIP3   OH264128   5.206   2.597  17.097 -0.0323 -0.2789  0.2060
14238TIP3    H164129   5.247   2.676  17.063  0.6756 -0.1152  1.3861
14238TIP3    H264130   5.211   2.534  17.025 -0.5134  0.7113 -0.7077
14239TIP3   OH264131   1.490   5.727   0.283  0.1915  0.5879  0.1472
14239TIP3    H164132   1.458   5.641   0.311  0.5403  0.3838 -0.0743
14239TIP3    H264133   1.519   5.712   0.193  0.1367  0.9710  0.0673
14240TIP3   OH264134   4.384   2.914   5.336  0.0993 -0.1724 -0.4339
14240TIP3    H164135   4.310   2.881   5.286  0.2279 -0.6306 -0.3209
14240TIP3    H264136   4.394   2.852   5.409 -1.4986  1.6963  1.4558
14241TIP3   OH264137   6.023   0.944  11.468 -0.0844 -1.0901 -0.3588
14241TIP3    H164138   6.054   0.966  11.380  0.7332 -0.8744 -0.0262
14241TIP3    H264139   5.955   1.008  11.487  0.7433 -0.2422 -0.2623
14242TIP3   OH264140   3.394   2.405   1.576  0.7123  0.1002  0.3370
14242TIP3    H164141   3.365   2.445   1.658  0.4343  2.3864 -0.8302
14242TIP3    H264142   3.322   2.346   1.551  0.2292  0.3707  1.0798
14243TIP3   OH264143   2.296   3.643   4.144 -0.1148  0.0355  0.7200
14243TIP3    H164144   2.279   3.558   4.104 -1.3864  0.1891  0.9253
14243TIP3    H264145   2.351   3.623   4.220  1.9808 -0.3006 -0.8148
14244TIP3   OH264146   5.363   4.323   5.622  0.0915  0.1660 -0.5293
14244TIP3    H164147   5.388   4.314   5.530  2.3449 -0.1007  0.0879
14244TIP3    H264148   5.438   4.290   5.671 -1.5474 -0.8557  1.4113
14245TIP3   OH264149   6.253   1.097  15.208  0.1421  0.4516  0.3534
14245TIP3    H164150   6.339   1.086  15.166 -0.0867 -1.0006  0.2313
14245TIP3    H264151   6.190   1.086  15.137 -0.2159 -1.1718  0.8903
14246TIP3   OH264152   0.717   2.302   1.979 -0.4694  0.2785 -0.5024
14246TIP3    H164153   0.779   2.309   2.052  0.5804 -2.2201 -1.0973
14246TIP3    H264154   0.631   2.311   2.020  0.1234 -0.7781  1.0306
14247TIP3   OH264155   4.154   5.272   3.767 -0.0491  0.1088 -0.6110
14247TIP3    H164156   4.195   5.358   3.774 -0.2962  0.5479 -3.9956
14247TIP3    H264157   4.086   5.273   3.834 -0.3279  2.7238 -0.8779
14248TIP3   OH264158   3.735   1.120  17.007 -0.3082 -0.1720  0.0639
14248TIP3    H164159   3.736   1.032  17.047  0.9183 -0.1334  0.1316
14248TIP3    H264160   3.642   1.143  17.003 -0.6780 -1.7135 -0.4844
14249TIP3   OH264161   4.686   1.719  12.080  0.4262 -0.2082 -0.0224
14249TIP3    H164162   4.606   1.769  12.097  0.8473  0.0413  1.3352
14249TIP3    H264163   4.667   1.669  12.000  0.3346  2.8063 -1.9406
14250TIP3   OH264164   4.494   3.641  14.880  0.0457 -0.1907 -0.1163
14250TIP3    H164165   4.543   3.613  14.803  1.9017  0.4488  0.8172
14250TIP3    H264166   4.460   3.728  14.856  1.9613  0.7037  0.3589
14251TIP3   OH264167   1.015   3.530   1.540 -0.0967 -1.4060  0.3618
14251TIP3    H164168   0.991   3.438   1.550 -0.0981 -1.3907  0.5014
14251TIP3    H264169   0.997   3.569   1.626 -2.6221 -0.7043 -0.4201
14252TIP3   OH264170   3.166   4.698  12.075 -0.4520  0.4899 -0.0862
14252TIP3    H164171   3.105   4.625  12.092 -0.6608  0.6275 -0.2422
14252TIP3    H264172   3.243   4.656  12.037 -0.0072  0.1863  1.1284
14253TIP3   OH264173   4.547   1.249  12.736 -0.0158 -0.0512 -0.2192
14253TIP3    H164174   4.588   1.222  12.654 -0.3968  0.7631 -0.6826
14253TIP3    H264175   4.480   1.183  12.752 -0.2849  0.0655 -0.8388
14254TIP3   OH264176   3.340   4.966  11.389 -0.8905  0.8772 -0.1414
14254TIP3    H164177   3.331   4.875  11.361 -0.2434  1.3190 -1.8615
14254TIP3    H264178   3.298   4.969  11.475  1.5927 -1.7001  1.2662
14255TIP3   OH264179   3.729   6.190   5.479  0.0765 -0.6661  0.2743
14255TIP3    H164180   3.705   6.132   5.552 -0.9458  0.8410  1.1553
14255TIP3    H264181   3.649   6.199   5.428  0.6271 -1.1955 -0.7021
14256TIP3   OH264182   3.034   3.828  12.373 -0.5595 -0.0469 -0.2679
14256TIP3    H164183   2.986   3.839  12.291 -0.0946 -1.1517 -0.7067
14256TIP3    H264184   3.115   3.877  12.361  0.2209 -1.5000 -1.0994
14257TIP3   OH264185   6.147   0.083  13.749 -0.0368  0.0174 -0.0745
14257TIP3    H164186   6.093   0.097  13.826  1.3591  1.0054  0.7603
14257TIP3    H264187   6.209   0.015  13.775  2.2231  2.2824  0.6646
14258TIP3   OH264188   6.158   2.592  11.947  0.0955  0.4282  0.6624
14258TIP3    H164189   6.161   2.677  11.903 -3.0157  1.0301  1.5282
14258TIP3    H264190   6.214   2.603  12.023 -0.7276  1.9047  1.0752
14259TIP3   OH264191   2.692   2.006   2.378  0.1780  0.3028 -0.1486
14259TIP3    H164192   2.601   2.021   2.355 -0.1376  1.9363  1.9340
14259TIP3    H264193   2.689   1.947   2.453  0.8924 -0.4561 -0.7035
14260TIP3   OH264194   0.262   1.902  12.609 -0.0815  0.4881 -0.1364
14260TIP3    H164195   0.245   1.808  12.612  3.0120 -0.1123  0.6141
14260TIP3    H264196   0.348   1.910  12.569 -0.4021  3.0461 -0.4602
14261TIP3   OH264197   5.012   1.768   2.945 -0.0774 -0.1277 -0.3175
14261TIP3    H164198   5.052   1.708   2.883 -0.2064  0.2696 -0.7802
14261TIP3    H264199   4.942   1.811   2.896 -1.2400 -0.9909  0.5335
14262TIP3   OH264200   1.327   0.469  15.218 -0.2548  0.3528 -0.1778
14262TIP3    H164201   1.266   0.397  15.235  0.0874 -0.5245 -2.5279
14262TIP3    H264202   1.406   0.427  15.186 -0.2446  1.7900 -2.1379
14263TIP3   OH264203   5.230   4.291   2.006  0.5561 -0.0630  0.1119
14263TIP3    H164204   5.145   4.329   2.025  0.4339 -0.5285  0.4980
14263TIP3    H264205   5.219   4.197   2.021  0.4816 -0.4409 -2.1325
14264TIP3   OH264206   5.462   0.975  10.398  0.0386 -0.1485 -0.1719
14264TIP3    H164207   5.414   1.029  10.461 -2.1549 -1.8263 -0.3327
14264TIP3    H264208   5.485   1.035  10.327  0.7324  1.3090  1.2598
14265TIP3   OH264209   2.046   3.254  11.989 -0.2423 -0.3914  0.0094
14265TIP3    H164210   2.122   3.309  12.011  0.2680 -0.4400 -1.5267
14265TIP3    H264211   2.084   3.170  11.964 -0.8118 -0.4950 -0.5181
14266TIP3   OH264212   5.661   6.662   1.669  0.2814  0.2035 -0.7181
14266TIP3    H164213   5.741   6.714   1.680  0.7441 -0.7325  0.6036
14266TIP3    H264214   5.607   6.712   1.608  1.1328  1.7220 -0.2534
14267TIP3   OH264215   5.949   2.577   4.197  0.0835  0.0416 -0.3970
14267TIP3    H164216   5.946   2.575   4.293  3.6521  0.6939 -0.2052
14267TIP3    H264217   5.992   2.660   4.176 -4.0241  1.7312 -2.7657
14268TIP3   OH264218   5.940   3.907  17.042  0.5153  0.2313  0.0408
14268TIP3    H164219   6.027   3.914  17.081 -0.1697 -0.9554  1.8483
14268TIP3    H264220   5.894   3.845  17.099 -1.6333  1.1731 -0.6598
14269TIP3   OH264221   3.820   0.569   4.032 -0.3099  0.0532 -0.5032
14269TIP3    H164222   3.772   0.486   4.028  0.7098 -0.4883 -1.5823
14269TIP3    H264223   3.843   0.589   3.942 -0.4574  1.4792 -0.2469
14270TIP3   OH264224   2.262   2.827  16.798 -0.0541  0.1087  0.1470
14270TIP3    H164225   2.308   2.885  16.738  0.1150 -1.0268 -0.8298
14270TIP3    H264226   2.178   2.870  16.815  0.4990  1.1374  0.2558
14271TIP3   OH264227   1.781   4.336   2.230  0.6227 -0.0302 -0.7768
14271TIP3    H164228   1.780   4.298   2.318  0.8294 -2.7514 -1.9166
14271TIP3    H264229   1.692   4.325   2.198  0.2518  1.9973 -0.5224
14272TIP3   OH264230   2.250   2.831  12.022  0.3094 -0.5184  0.1878
14272TIP3    H164231   2.279   2.919  11.998 -0.7073 -0.2788 -0.2110
14272TIP3    H264232   2.240   2.833  12.117  1.7170 -0.6554  0.3547
14273TIP3   OH264233   1.582   1.728   5.850 -0.7668 -0.1115 -0.0668
14273TIP3    H164234   1.618   1.652   5.896  0.7215  1.0065  0.6795
14273TIP3    H264235   1.626   1.727   5.765  0.2966  0.6882  0.4674
14274TIP3   OH264236   0.994   4.482  13.212 -0.5068 -0.5658  0.7113
14274TIP3    H164237   1.011   4.565  13.167  0.5181 -1.0430  0.1982
14274TIP3    H264238   0.913   4.450  13.174  0.5943 -1.1987 -1.1422
14275TIP3   OH264239   0.329   0.389  15.484  0.0756 -0.3392 -0.1779
14275TIP3    H164240   0.326   0.363  15.392  0.7398 -0.5591 -0.1374
14275TIP3    H264241   0.287   0.317  15.531 -1.1114  0.1896 -0.3902
14276TIP3   OH264242   1.734   4.988  14.474  0.7877 -0.0380  0.0535
14276TIP3    H164243   1.813   4.995  14.420 -0.2773 -0.5274 -1.6149
14276TIP3    H264244   1.664   5.022  14.418 -0.7643 -2.9279  0.1365
14277TIP3   OH264245   1.866   1.657   3.658 -0.2393 -0.4806  0.1910
14277TIP3    H164246   1.937   1.601   3.689  0.6258  0.3459 -0.2728
14277TIP3    H264247   1.905   1.744   3.651 -1.4149  0.0704  0.3497
14278TIP3   OH264248   2.193   4.994  12.705  0.3529 -0.3891 -0.3014
14278TIP3    H164249   2.203   4.980  12.799 -2.0717  0.1011  0.0708
14278TIP3    H264250   2.121   5.057  12.698  0.5095 -0.4220 -2.4750
14279TIP3   OH264251   1.554   0.611   2.920  0.3014  0.4228  0.0020
14279TIP3    H164252   1.550   0.550   2.994 -0.2385  0.1180 -0.2752
14279TIP3    H264253   1.484   0.582   2.861 -0.6706  1.9927  0.3770
14280TIP3   OH264254   0.777   2.536   4.006 -0.1774  0.4851  0.2703
14280TIP3    H164255   0.867   2.507   4.027 -0.2333  1.0764  1.4050
14280TIP3    H264256   0.722   2.465   4.038 -0.1007 -0.0789 -0.8261
14281TIP3   OH264257   6.652   2.928  11.087 -0.2542  0.1171 -0.0382
14281TIP3    H164258   6.625   2.842  11.118 -0.2475  0.5025  1.0411
14281TIP3    H264259   6.730   2.949  11.138 -0.7693  1.1584  0.3433
14282TIP3   OH264260   6.044   6.782   2.338 -0.6329 -0.5304 -0.1943
14282TIP3    H164261   6.121   6.817   2.383 -0.1564 -0.3618 -1.1215
14282TIP3    H264262   5.977   6.776   2.406  0.1264 -0.4504  0.5718
14283TIP3   OH264263   6.068   0.490   3.414  0.1276  0.1845  0.0153
14283TIP3    H164264   6.013   0.562   3.384 -0.3676 -0.5552 -0.8903
14283TIP3    H264265   6.013   0.440   3.473 -0.0331 -0.2860 -0.5203
14284TIP3   OH264266   3.117   5.170  14.217 -0.3746 -0.4735 -0.6964
14284TIP3    H164267   3.043   5.214  14.260 -0.6133 -1.4690 -0.0638
14284TIP3    H264268   3.179   5.155  14.288  0.4354  0.3254 -1.2206
14285TIP3   OH264269   4.841   6.179  12.357 -0.3281  0.2707 -0.0584
14285TIP3    H164270   4.756   6.150  12.391  0.0380  0.4310  1.0194
14285TIP3    H264271   4.819   6.244  12.290 -1.1073 -1.3234 -1.3804
14286TIP3   OH264272   5.873   2.478  13.274  0.1694  0.3774 -0.0519
14286TIP3    H164273   5.841   2.453  13.361 -2.3477  1.4356 -0.6460
14286TIP3    H264274   5.945   2.538  13.291  0.6533 -0.5781  1.3137
14287TIP3   OH264275   5.832   4.110   1.307  0.4598  0.2110 -0.4030
14287TIP3    H164276   5.803   4.075   1.392  2.1169  1.4265  0.7122
14287TIP3    H264277   5.884   4.040   1.269  1.2733  0.3280  0.4625
14288TIP3   OH264278   4.410   4.544   0.646  0.2908  0.1319 -0.3380
14288TIP3    H164279   4.319   4.562   0.620  0.4600  1.2904 -0.1506
14288TIP3    H264280   4.443   4.628   0.675  2.2771  0.2917 -2.9065
14289TIP3   OH264281   5.901   6.750   3.711  0.1314  0.3372 -0.5527
14289TIP3    H164282   5.931   6.673   3.663  1.6074  1.0507 -0.7876
14289TIP3    H264283   5.858   6.804   3.645  0.4941  0.4539 -0.6886
14290TIP3   OH264284   3.445   3.979  15.834  0.4059  0.9690 -0.1872
14290TIP3    H164285   3.506   3.931  15.778  1.1916  2.9411 -1.0607
14290TIP3    H264286   3.382   4.018  15.774 -1.9767 -1.3248  0.7338
14291TIP3   OH264287   4.818   0.041  13.011 -0.2072 -0.0654 -0.1332
14291TIP3    H164288   4.805  -0.052  12.994 -0.8520  0.1896 -1.0337
14291TIP3    H264289   4.896   0.064  12.961  0.9175 -0.4714  1.3697
14292TIP3   OH264290   4.912   4.633   3.249 -0.4185  0.3424  0.4692
14292TIP3    H164291   4.959   4.583   3.316 -0.1188  0.3138  0.2394
14292TIP3    H264292   4.824   4.596   3.249  0.3666 -1.6405 -1.1805
14293TIP3   OH264293   5.414   3.391  13.948 -0.0786  0.3246  0.5884
14293TIP3    H164294   5.436   3.403  14.040  0.5113  0.3595  0.4472
14293TIP3    H264295   5.406   3.481  13.914 -0.3583  0.3120  0.6212
14294TIP3   OH264296   6.187   3.982  17.163 -0.5707 -0.6316 -0.2577
14294TIP3    H164297   6.224   4.067  17.188 -1.3885 -0.1722 -0.5876
14294TIP3    H264298   6.244   3.918  17.205 -0.4344  0.0912  0.6945
14295TIP3   OH264299   4.476   3.879   4.084 -0.0672 -0.1682 -0.0928
14295TIP3    H164300   4.490   3.969   4.112 -0.9032  0.1119 -0.5868
14295TIP3    H264301   4.385   3.860   4.106 -0.3664 -0.3639 -1.4611
14296TIP3   OH264302   6.756   5.859  14.403 -0.0193 -0.0560  0.4660
14296TIP3    H164303   6.806   5.926  14.355 -1.4226 -0.6957 -1.9386
14296TIP3    H264304   6.676   5.848  14.353 -0.4648 -2.5120  1.6613
14297TIP3   OH264305   1.955   3.996  11.698 -0.6565  0.3935 -0.4014
14297TIP3    H164306   1.895   3.990  11.623 -1.3821 -0.4099  0.2258
14297TIP3    H264307   2.002   3.912  11.698 -1.2392  0.0561  0.5107
14298TIP3   OH264308   2.774   4.809   4.376 -0.1966  0.3485 -0.1806
14298TIP3    H164309   2.861   4.821   4.414 -0.3399  4.0467 -0.8434
14298TIP3    H264310   2.715   4.806   4.451  0.2323  0.6713  0.1734
14299TIP3   OH264311   6.239   2.887  16.697 -0.0958 -0.2255  0.1104
14299TIP3    H164312   6.177   2.820  16.668  3.1156 -2.6010 -1.5943
14299TIP3    H264313   6.240   2.879  16.792 -2.0859 -0.3982  0.1446
14300TIP3   OH264314   2.853   0.469   0.519 -0.2516 -0.0069 -0.2587
14300TIP3    H164315   2.822   0.443   0.606 -0.1139 -0.8970 -0.4700
14300TIP3    H264316   2.793   0.425   0.458 -1.6177  2.2713 -0.5955
14301TIP3   OH264317   0.753   0.873   5.037  0.5357 -0.5417  0.5790
14301TIP3    H164318   0.693   0.938   5.075  0.2543 -0.8405  0.6466
14301TIP3    H264319   0.788   0.916   4.959  0.9656  0.0004  1.0630
14302TIP3   OH264320   1.235   1.652  13.303  0.2017 -0.0571  0.5182
14302TIP3    H164321   1.316   1.662  13.253  0.3260 -0.4444  0.6403
14302TIP3    H264322   1.166   1.676  13.242  0.4017  0.1805  0.3847
14303TIP3   OH264323   2.523   3.324  12.841 -0.6224  0.0452  0.6600
14303TIP3    H164324   2.467   3.346  12.767 -1.0758 -0.4725  0.8448
14303TIP3    H264325   2.553   3.235  12.822  1.0683  0.7417 -0.0042
14304TIP3   OH264326   3.706   6.207  13.749 -0.3890 -0.0932  0.3079
14304TIP3    H164327   3.704   6.303  13.750  0.2736 -0.0703 -0.2327
14304TIP3    H264328   3.719   6.182  13.840 -3.6847  0.2411  0.9236
14305TIP3   OH264329   5.887   1.136  13.597 -0.5024  0.6526  0.4115
14305TIP3    H164330   5.804   1.145  13.643 -2.1220 -0.3202 -2.2292
14305TIP3    H264331   5.898   1.041  13.586 -0.5760  0.9095 -1.9592
14306TIP3   OH264332   0.254   1.050  15.924 -0.0307  0.1048 -0.8533
14306TIP3    H164333   0.220   1.137  15.946 -0.5661 -0.1613 -0.6150
14306TIP3    H264334   0.235   1.039  15.831 -0.5284 -0.0025 -0.7446
14307TIP3   OH264335   5.766   1.782   3.056 -0.1516 -0.3170  0.0466
14307TIP3    H164336   5.748   1.689   3.065 -0.2858 -0.5224 -2.1032
14307TIP3    H264337   5.773   1.797   2.962  0.2619  1.7752  0.3660
14308TIP3   OH264338   4.093   4.540   2.800  0.0903  0.0388 -0.1910
14308TIP3    H164339   4.046   4.532   2.883  0.2247  1.3771  0.0356
14308TIP3    H264340   4.032   4.589   2.743  0.6817  0.6433 -0.3137
14309TIP3   OH264341   1.729   2.966  15.109  0.5615 -0.1446  0.3757
14309TIP3    H164342   1.753   3.019  15.185  1.4975 -1.8185  1.2850
14309TIP3    H264343   1.634   2.972  15.104  0.5231  0.2537  1.4838
14310TIP3   OH264344   1.527   4.223  11.407 -0.7898  0.1582 -0.0256
14310TIP3    H164345   1.476   4.196  11.484 -1.0688 -0.4262 -0.4107
14310TIP3    H264346   1.506   4.315  11.396  0.1056  0.5355  1.2587
14311TIP3   OH264347   2.699   3.425   2.516 -0.3387  0.0709 -0.0260
14311TIP3    H164348   2.673   3.336   2.538  1.4707 -0.1530  1.3318
14311TIP3    H264349   2.616   3.474   2.512 -1.2435 -1.3806  0.5382
14312TIP3   OH264350   1.305   3.449   4.559 -0.1704  0.4747 -0.6250
14312TIP3    H164351   1.299   3.529   4.507 -1.4688  0.5110 -0.4193
14312TIP3    H264352   1.250   3.386   4.513  0.1729 -0.0474 -0.3183
14313TIP3   OH264353   0.283   5.515   5.693  0.2055  0.2239  0.0928
14313TIP3    H164354   0.258   5.488   5.605 -1.9542 -1.0787  1.0557
14313TIP3    H264355   0.273   5.436   5.747  0.2292  1.3087  1.7438
14314TIP3   OH264356   6.530   5.574  16.998 -0.7254 -0.5980  0.6601
14314TIP3    H164357   6.516   5.571  17.092 -0.9184  0.2311  0.6553
14314TIP3    H264358   6.613   5.620  16.987  0.1295 -2.1302  0.4943
14315TIP3   OH264359   3.844   0.219   3.704 -0.0469  0.0057 -0.0836
14315TIP3    H164360   3.822   0.142   3.653 -0.2915 -0.6051  0.9376
14315TIP3    H264361   3.894   0.186   3.779 -1.1866  0.6937  1.0032
14316TIP3   OH264362   5.267   3.738  12.860  0.2581  0.0625 -0.0007
14316TIP3    H164363   5.319   3.695  12.792  1.0602  0.7910  0.1536
14316TIP3    H264364   5.330   3.767  12.925 -0.1220  2.5110 -0.6515
14317TIP3   OH264365   5.066   5.259   4.389  0.0993  0.0682  0.2598
14317TIP3    H164366   5.158   5.249   4.412 -0.2962 -0.6364  1.5915
14317TIP3    H264367   5.067   5.285   4.297  1.6446  0.7260  0.4463
14318TIP3   OH264368   0.320   1.810   3.017  0.0549 -0.1181  0.4558
14318TIP3    H164369   0.285   1.848   3.097 -0.8456 -0.5624  0.2751
14318TIP3    H264370   0.410   1.843   3.012 -0.5345  1.5725  0.5862
14319TIP3   OH264371   4.619   5.279  13.106  0.0888 -0.3773 -0.6412
14319TIP3    H164372   4.589   5.370  13.104  0.0601 -0.3395  0.9286
14319TIP3    H264373   4.539   5.228  13.094  0.2206 -0.1906 -2.3816
14320TIP3   OH264374   2.911   0.783  15.139 -0.1373 -0.5564  0.0287
14320TIP3    H164375   2.908   0.765  15.045 -1.6931  1.7162 -0.3989
14320TIP3    H264376   2.958   0.709  15.177  1.4422 -0.9751 -2.6732
14321TIP3   OH264377   1.706   5.881   4.974 -0.0143  0.2873  0.3694
14321TIP3    H164378   1.630   5.938   4.986  0.6390  1.7219 -1.9591
14321TIP3    H264379   1.742   5.869   5.062 -0.1772  3.5042  0.9286
14322TIP3   OH264380   6.229   2.468   2.749  0.1040 -0.0312  0.3544
14322TIP3    H164381   6.221   2.563   2.759 -1.3106  0.1079 -1.9067
14322TIP3    H264382   6.172   2.432   2.817 -2.8278  0.8124 -1.5674
14323TIP3   OH264383   5.551   4.768   5.403  0.5788 -0.2072  0.3783
14323TIP3    H164384   5.636   4.733   5.430  1.9217  0.7714 -2.3130
14323TIP3    H264385   5.508   4.695   5.358  0.5239 -0.3513  0.6675
14324TIP3   OH264386   4.773   4.655   1.623  0.1430 -0.2178 -0.3312
14324TIP3    H164387   4.714   4.730   1.623 -0.0852 -0.3416 -2.6339
14324TIP3    H264388   4.769   4.621   1.712  0.3937  2.5807  0.8053
14325TIP3   OH264389   5.726   2.266  12.939 -0.3403  0.1222  0.0903
14325TIP3    H164390   5.757   2.279  12.849 -0.3119  1.5536  0.3050
14325TIP3    H264391   5.648   2.211  12.929 -0.0750 -0.1140 -0.7689
14326TIP3   OH264392   2.482   6.504   4.750  0.1121  0.0986 -0.1815
14326TIP3    H164393   2.554   6.553   4.708  0.0557  0.6295  0.3398
14326TIP3    H264394   2.433   6.468   4.676  0.6218  0.1509 -0.5561
14327TIP3   OH264395   2.874   4.258   4.390  0.3794 -0.2599 -0.0285
14327TIP3    H164396   2.804   4.299   4.442  0.2834  0.5131 -0.7575
14327TIP3    H264397   2.954   4.297   4.423  0.3843 -0.3754  0.0977
14328TIP3   OH264398   2.645   2.462   5.939 -0.2897  0.0567  0.0727
14328TIP3    H164399   2.709   2.526   5.969 -0.9403  0.9998 -0.5045
14328TIP3    H264400   2.653   2.389   6.000  1.1495  0.2646  0.1558
14329TIP3   OH264401   1.624   2.197  11.197  0.4723  0.1053  0.1933
14329TIP3    H164402   1.672   2.201  11.280  1.0695 -1.1571 -0.0726
14329TIP3    H264403   1.686   2.159  11.135 -0.7187 -1.1540 -0.2651
14330TIP3   OH264404   4.249   0.190   6.041 -0.1937  0.4064 -0.0857
14330TIP3    H164405   4.191   0.114   6.047 -0.6700  0.9292  2.5316
14330TIP3    H264406   4.291   0.196   6.127  1.5363  1.7778 -0.9864
14331TIP3   OH264407   2.591   4.347   4.630  0.7850 -0.1281  0.0950
14331TIP3    H164408   2.543   4.415   4.677  0.6467  0.3786 -0.7847
14331TIP3    H264409   2.551   4.265   4.659  1.5923  0.0811  1.9162
14332TIP3   OH264410   1.107   3.353   3.638 -0.4860  0.1953 -0.1030
14332TIP3    H164411   1.076   3.266   3.663  0.1281  0.3635  1.2785
14332TIP3    H264412   1.202   3.343   3.629 -0.3199  0.9159  0.8450
14333TIP3   OH264413   1.562   4.775  16.103  0.8278  0.2307  0.3892
14333TIP3    H164414   1.525   4.714  16.039  1.3117 -0.1945  0.5093
14333TIP3    H264415   1.505   4.768  16.179 -0.9750  2.2876 -0.7496
14334TIP3   OH264416   1.221   2.159  16.731  0.1888  0.4887  0.0115
14334TIP3    H164417   1.241   2.146  16.639 -0.0126  0.7751 -0.0743
14334TIP3    H264418   1.195   2.072  16.763 -0.6452  0.5723 -0.4242
14335TIP3   OH264419   3.771   3.101  14.131 -0.4233  0.3520  0.3096
14335TIP3    H164420   3.721   3.181  14.148  0.4905  0.7812  1.0047
14335TIP3    H264421   3.778   3.098  14.036 -2.6245 -0.2460  0.1272
14336TIP3   OH264422   5.373   5.534   4.749  0.3299 -0.1421  0.1909
14336TIP3    H164423   5.462   5.568   4.737  1.1229 -2.1944  0.0453
14336TIP3    H264424   5.341   5.580   4.827  1.1457  1.3417 -0.3219
14337TIP3   OH264425   1.719   1.428  15.106  1.1737 -0.3079 -0.3367
14337TIP3    H164426   1.785   1.365  15.137  0.1585 -0.9343  0.5910
14337TIP3    H264427   1.636   1.390  15.133  0.4753  0.8867 -0.7842
14338TIP3   OH264428   4.192   4.194   0.897 -0.3078  0.4622  0.1962
14338TIP3    H164429   4.151   4.278   0.919 -1.1684  0.3649 -0.9934
14338TIP3    H264430   4.284   4.205   0.923 -0.4306  1.7377  0.1453
14339TIP3   OH264431   1.688   2.977   2.998 -0.1382 -0.2619 -0.9445
14339TIP3    H164432   1.703   2.891   3.036  1.5613  0.9237  1.1467
14339TIP3    H264433   1.772   3.022   3.004 -0.5021  0.9057 -3.7333
14340TIP3   OH264434   2.767   1.826  11.224  0.1299 -0.4513 -0.2458
14340TIP3    H164435   2.700   1.882  11.184  1.0269  2.1781  1.7681
14340TIP3    H264436   2.819   1.794  11.151 -0.1896  1.6688 -1.4350
14341TIP3   OH264437   5.252   5.198  10.596 -0.1000 -0.0073 -0.8103
14341TIP3    H164438   5.263   5.269  10.659  1.8196 -0.7236 -0.2850
14341TIP3    H264439   5.198   5.134  10.642  0.4842 -0.0993 -0.2436
14342TIP3   OH264440   1.318   1.504  14.081 -0.6638 -0.0623  0.2336
14342TIP3    H164441   1.303   1.470  13.992  1.0313  0.3918 -0.2413
14342TIP3    H264442   1.317   1.599  14.070  0.3578 -0.0125  0.5671
14343TIP3   OH264443   2.248   2.906   2.270 -0.6414 -0.1745  0.4643
14343TIP3    H164444   2.256   2.965   2.344 -2.2884  0.9047 -0.1750
14343TIP3    H264445   2.196   2.955   2.206 -2.1974 -2.3562 -0.0130
14344TIP3   OH264446   2.977   5.817  12.433  0.1685 -0.2316  0.0182
14344TIP3    H164447   2.887   5.792  12.455 -0.2994  1.6330  0.2628
14344TIP3    H264448   2.969   5.863  12.349  0.7067  1.2091  0.7527
14345TIP3   OH264449   3.176   4.603   1.623 -0.0602  0.0012 -0.0232
14345TIP3    H164450   3.098   4.591   1.677  0.7384  3.1320  1.9876
14345TIP3    H264451   3.149   4.668   1.557 -0.2278 -1.7833 -1.7686
14346TIP3   OH264452   0.235   5.794   2.714  0.4137  0.5241 -0.6484
14346TIP3    H164453   0.235   5.752   2.628 -0.2196  1.1050 -0.9461
14346TIP3    H264454   0.207   5.884   2.695 -0.4739  0.4484  0.2595
14347TIP3   OH264455   0.421   4.428  17.045  0.3061 -0.3186  0.3674
14347TIP3    H164456   0.499   4.463  17.089  0.2930  2.6612 -1.8420
14347TIP3    H264457   0.452   4.348  17.001  1.6731 -0.1680  1.0366
14348TIP3   OH264458   1.626   6.452   2.840  0.4456  0.2558  0.1140
14348TIP3    H164459   1.702   6.465   2.897  1.4678  0.5103 -1.2987
14348TIP3    H264460   1.563   6.406   2.896  2.3633 -1.7213  0.7438
14349TIP3   OH264461   6.175   4.338  12.469 -0.4241  0.1199 -0.1949
14349TIP3    H164462   6.242   4.286  12.515  1.2900  1.2717 -1.3062
14349TIP3    H264463   6.139   4.278  12.404  2.0965  0.4605 -2.0021
14350TIP3   OH264464   0.870   3.884   3.095  0.0124  0.4874 -0.5237
14350TIP3    H164465   0.937   3.952   3.086 -1.4402  2.1395  0.7571
14350TIP3    H264466   0.896   3.835   3.174  0.3187  0.4052 -0.6754
14351TIP3   OH264467   4.666   0.205   4.993  0.1880 -0.2091  0.0402
14351TIP3    H164468   4.646   0.131   5.049  0.5723 -0.1860  0.2104
14351TIP3    H264469   4.588   0.260   4.996 -1.2067 -1.9450 -2.2696
14352TIP3   OH264470   6.567   6.174   0.351  0.5374  0.3926 -0.1084
14352TIP3    H164471   6.661   6.190   0.344  0.2547  2.8109  1.1334
14352TIP3    H264472   6.537   6.165   0.260  1.9223 -0.2311 -0.5133
14353TIP3   OH264473   0.402   0.595   2.397 -0.5147 -0.2155  0.2735
14353TIP3    H164474   0.313   0.630   2.390  0.4662  2.4889  0.5791
14353TIP3    H264475   0.394   0.520   2.456 -2.2839  1.3156  2.0710
14354TIP3   OH264476   6.364   0.398  13.507 -0.6504 -0.0779  0.5007
14354TIP3    H164477   6.443   0.344  13.513 -0.6138 -0.2040 -0.9413
14354TIP3    H264478   6.325   0.373  13.423 -1.2122  1.3505  0.3323
14355TIP3   OH264479   5.255   6.582   5.903  0.8893  0.1489 -0.3000
14355TIP3    H164480   5.320   6.598   5.973  0.7613 -1.0935  0.1154
14355TIP3    H264481   5.199   6.659   5.905  0.4863 -0.1500  1.4359
14356TIP3   OH264482   0.682   1.134  16.131  0.0681  0.1269  0.0946
14356TIP3    H164483   0.754   1.189  16.099  0.7035 -0.5432  0.3800
14356TIP3    H264484   0.722   1.078  16.198 -1.0265  0.7727  1.3161
14357TIP3   OH264485   6.675   2.075   0.029  0.0868 -0.0858  0.5401
14357TIP3    H164486   6.648   2.093  -0.061 -0.8256 -0.5888  0.7036
14357TIP3    H264487   6.631   2.142   0.082 -1.2555 -1.2001  0.8627
14358TIP3   OH264488   0.406   4.868   1.328  0.1337 -0.1330  0.2127
14358TIP3    H164489   0.474   4.935   1.338  1.7351 -1.4156 -1.4453
14358TIP3    H264490   0.326   4.910   1.358  1.2278  2.2634 -0.0550
14359TIP3   OH264491   1.095   0.319   4.005  0.7076  0.2646 -0.5817
14359TIP3    H164492   1.115   0.408   4.033 -0.2385  0.5667 -0.8216
14359TIP3    H264493   1.000   0.312   4.018  0.9158 -1.0138  0.3085
14360TIP3   OH264494   4.920   5.823  13.315  0.2014 -0.1796 -0.7279
14360TIP3    H164495   4.902   5.917  13.315 -1.0916 -0.4118 -2.1088
14360TIP3    H264496   5.015   5.816  13.311  0.2486  1.0688 -1.8393
14361TIP3   OH264497   1.116   2.955   1.912 -0.2149  0.1007 -0.1591
14361TIP3    H164498   1.158   2.870   1.924 -2.7905 -1.1152  0.3794
14361TIP3    H264499   1.103   2.962   1.817 -1.3979 -0.8065 -0.0717
14362TIP3   OH264500   2.640   4.760  16.638  0.1079 -0.1527 -0.3885
14362TIP3    H164501   2.613   4.726  16.723 -0.8124  1.1256 -0.1544
14362TIP3    H264502   2.730   4.729  16.627  0.0102 -0.8723  0.7535
14363TIP3   OH264503   6.771   3.949   5.494  0.5277 -0.6493  0.5869
14363TIP3    H164504   6.679   3.966   5.515  0.3020  0.1487 -0.9735
14363TIP3    H264505   6.768   3.892   5.417  1.3199  1.5154 -1.0941
14364TIP3   OH264506   0.480   3.606   3.331 -0.0197  0.3157  0.4096
14364TIP3    H164507   0.403   3.614   3.388 -0.6344 -1.9049 -0.0393
14364TIP3    H264508   0.554   3.627   3.388 -0.7705 -0.0739  1.5581
14365TIP3   OH264509   6.461   6.664   0.614 -0.1863  0.3395 -0.5620
14365TIP3    H164510   6.405   6.707   0.679 -1.0379 -0.4212 -0.7767
14365TIP3    H264511   6.475   6.576   0.649 -1.1177 -0.2674 -1.6543
14366TIP3   OH264512   3.000   4.545  15.368  0.3540 -0.3178  0.2640
14366TIP3    H164513   3.036   4.602  15.436 -0.1631 -0.9292  1.0563
14366TIP3    H264514   2.949   4.604  15.312 -0.2637 -0.0132  1.1364
14367TIP3   OH264515   3.209   6.762   5.393 -0.0921 -0.0328 -0.4970
14367TIP3    H164516   3.232   6.775   5.301 -0.8314  1.9421 -0.4364
14367TIP3    H264517   3.119   6.794   5.399 -1.0294 -2.6614  0.3619
14368TIP3   OH264518   4.579   4.877   0.447 -0.7273 -0.2637  0.2445
14368TIP3    H164519   4.636   4.819   0.398 -0.8735 -0.3498  0.1755
14368TIP3    H264520   4.538   4.821   0.513 -1.8643 -0.5123 -0.6623
14369TIP3   OH264521   4.911   2.197  12.074 -0.0891  0.5548 -0.2854
14369TIP3    H164522   4.869   2.158  12.151 -3.1982  2.7721 -0.7518
14369TIP3    H264523   4.934   2.286  12.103  0.5775  0.7080 -1.2944
14370TIP3   OH264524   2.447   3.665  10.434  0.1283  0.5393  0.2107
14370TIP3    H164525   2.368   3.649  10.486  1.4330 -0.9629  1.7680
14370TIP3    H264526   2.487   3.579  10.425  1.8577  1.3765 -0.1369
14371TIP3   OH264527   4.813   1.360  17.238  0.0613  1.0580  0.1735
14371TIP3    H164528   4.771   1.382  17.155  0.4320  1.0866 -0.0081
14371TIP3    H264529   4.805   1.440  17.291 -1.1725  0.6727  0.5811
14372TIP3   OH264530   4.098   4.203   2.387 -0.1044  0.2487  0.8289
14372TIP3    H164531   4.129   4.120   2.423  0.9821  0.4175  0.3225
14372TIP3    H264532   4.121   4.269   2.452  0.6743  0.3788  0.4377
14373TIP3   OH264533   6.487   0.676  14.928 -0.0588  0.2695  0.3302
14373TIP3    H164534   6.508   0.617  14.855  2.0935  1.2475  0.1011
14373TIP3    H264535   6.430   0.742  14.889  0.1799  0.1640 -0.2143
14374TIP3   OH264536   6.547   6.753  13.092  0.0760 -0.2686 -0.1277
14374TIP3    H164537   6.505   6.673  13.123  0.0093 -0.3464 -0.4151
14374TIP3    H264538   6.475   6.808  13.062  0.1894 -0.4403 -0.7099
14375TIP3   OH264539   0.104   4.779   4.976 -0.0272  0.2244  0.2992
14375TIP3    H164540   0.062   4.862   5.000 -0.4095 -0.6367  2.7601
14375TIP3    H264541   0.033   4.716   4.974 -0.0407  0.2547 -3.4434
14376TIP3   OH264542   3.077   0.537  11.524  0.9633 -0.1795 -0.0034
14376TIP3    H164543   3.116   0.589  11.453 -2.7734  1.0070 -1.3147
14376TIP3    H264544   3.152   0.504  11.573  3.7290 -1.0122 -4.4610
14377TIP3   OH264545   6.609   6.039  13.521 -0.1982  0.5969 -0.3384
14377TIP3    H164546   6.627   5.946  13.537  1.0108  0.7349 -0.8564
14377TIP3    H264547   6.515   6.048  13.535 -0.0435 -0.3680  1.4008
14378TIP3   OH264548   4.141   1.150   1.911  0.4121 -0.0265  0.0033
14378TIP3    H164549   4.049   1.130   1.925  0.2236  0.1344 -0.9483
14378TIP3    H264550   4.185   1.119   1.990 -0.3264 -0.9964  0.0470
14379TIP3   OH264551   2.093   5.186   5.383 -0.2079 -0.4159  0.7419
14379TIP3    H164552   2.039   5.143   5.317  0.1750 -0.4020  0.4159
14379TIP3    H264553   2.154   5.239   5.332 -1.3804  1.3732  1.1450
14380TIP3   OH264554   0.480   6.164  16.087 -0.5081 -0.4001  0.3740
14380TIP3    H164555   0.571   6.142  16.107  0.0823  2.1437  0.6005
14380TIP3    H264556   0.482   6.201  15.999 -1.3432 -0.3874  0.3495
14381TIP3   OH264557   5.632   2.955  14.943  0.2157 -0.2806  0.3803
14381TIP3    H164558   5.540   2.977  14.955  0.5178  1.2256 -0.0546
14381TIP3    H264559   5.678   2.997  15.016  0.8201  0.7807 -0.5896
14382TIP3   OH264560   1.402   3.251  14.107 -0.3154  0.3121 -0.4909
14382TIP3    H164561   1.366   3.296  14.031  0.6638 -0.3925 -1.4069
14382TIP3    H264562   1.348   3.279  14.180 -1.5320  0.6992 -1.5165
14383TIP3   OH264563   2.146   5.680  17.071  0.0787 -0.5319 -0.4981
14383TIP3    H164564   2.077   5.745  17.083  0.3124 -0.0566 -1.6284
14383TIP3    H264565   2.117   5.626  16.997  0.4328 -0.9649 -0.3261
14384TIP3   OH264566   0.943   0.241  14.265  0.2566 -0.2492  0.0400
14384TIP3    H164567   0.961   0.200  14.349  0.1551  0.6469  0.5092
14384TIP3    H264568   1.027   0.244  14.220  0.2636 -0.9483  0.0123
14385TIP3   OH264569   5.723   0.365   2.976 -0.1175 -0.2710 -0.0867
14385TIP3    H164570   5.722   0.314   2.895 -1.3612  0.7302 -0.7097
14385TIP3    H264571   5.636   0.404   2.982  0.2793  0.4655  1.2343
14386TIP3   OH264572   0.823   3.248  16.151  0.7521  0.0397 -0.1787
14386TIP3    H164573   0.777   3.326  16.120 -0.0517 -0.7820 -1.0787
14386TIP3    H264574   0.908   3.251  16.106  0.6283  0.2576 -0.4000
14387TIP3   OH264575   3.610   2.210   3.389  0.0938 -0.4523 -0.6938
14387TIP3    H164576   3.550   2.193   3.462  1.3642 -2.1322 -0.0005
14387TIP3    H264577   3.641   2.299   3.404 -1.2689 -0.0311 -0.3534
14388TIP3   OH264578   3.667   0.489  15.055  0.0073 -1.4181 -0.7734
14388TIP3    H164579   3.750   0.442  15.060  0.3338 -0.6639  1.4656
14388TIP3    H264580   3.603   0.429  15.093  0.4824 -0.0144  2.4010
14389TIP3   OH264581   3.334   2.561  16.109 -0.1455  0.5568 -0.3323
14389TIP3    H164582   3.312   2.609  16.030  1.1179  1.5116 -0.1092
14389TIP3    H264583   3.335   2.469  16.082 -1.8013  0.7038 -0.9286
14390TIP3   OH264584   4.557   1.545   5.142  0.2755  0.3562 -0.0048
14390TIP3    H164585   4.501   1.621   5.157  0.7301  0.6835  0.0446
14390TIP3    H264586   4.647   1.580   5.149  0.4893  0.1535 -1.6104
14391TIP3   OH264587   6.074   2.840   2.455  0.4930 -0.0104 -0.0530
14391TIP3    H164588   6.156   2.813   2.414  0.0433 -0.2138 -0.8480
14391TIP3    H264589   6.008   2.783   2.415 -0.3072  1.4795 -0.8940
14392TIP3   OH264590   6.202   0.694   0.528  0.1917  0.1064  0.5985
14392TIP3    H164591   6.186   0.615   0.475 -0.0276 -0.0556  0.9048
14392TIP3    H264592   6.199   0.663   0.618 -1.4720  0.7368  0.7770
14393TIP3   OH264593   5.013   1.730   1.123 -0.0052  0.8018  0.2015
14393TIP3    H164594   5.094   1.680   1.117  0.8972  2.4247 -1.3578
14393TIP3    H264595   5.009   1.757   1.215  1.4383  1.0719  0.1974
14394TIP3   OH264596   3.566   2.879   4.688  0.0506 -0.3234 -0.2171
14394TIP3    H164597   3.564   2.835   4.772 -0.9859 -0.3740 -0.2544
14394TIP3    H264598   3.478   2.866   4.652  0.9249 -1.5983 -1.9858
14395TIP3   OH264599   5.881   1.645  12.014 -0.0341  0.3955  0.2118
14395TIP3    H164600   5.787   1.629  12.028 -0.3695  1.3685 -0.8267
14395TIP3    H264601   5.914   1.562  11.980 -0.5728  0.1072  0.3806
14396TIP3   OH264602   1.711   1.333  11.172 -0.3299  0.9691  0.1060
14396TIP3    H164603   1.740   1.273  11.241  0.6924 -1.1519 -2.1013
14396TIP3    H264604   1.771   1.407  11.178  0.1674  0.5022  1.0572
14397TIP3   OH264605   2.220   0.354   0.077  0.3836  0.3723 -0.0188
14397TIP3    H164606   2.200   0.311  -0.006 -0.1263 -1.0591  0.8236
14397TIP3    H264607   2.305   0.395   0.064 -0.4822  1.6829 -1.8193
14398TIP3   OH264608   4.280   5.322  10.679  0.3038  0.0941  1.0018
14398TIP3    H164609   4.185   5.325  10.665  0.1474 -1.5887  1.5701
14398TIP3    H264610   4.304   5.413  10.696 -0.8395  0.8896 -1.3922
14399TIP3   OH264611   2.160   4.054   3.105  0.3697 -0.8021  0.3355
14399TIP3    H164612   2.196   4.070   3.017  0.6131 -0.1417  0.5579
14399TIP3    H264613   2.238   4.051   3.161  0.0213  1.7874  1.0116
14400TIP3   OH264614   2.822   3.434   5.983 -0.3138 -0.2362  0.1991
14400TIP3    H164615   2.822   3.408   6.075 -2.3936 -1.0932 -0.0052
14400TIP3    H264616   2.830   3.529   5.984 -2.0820 -0.0741  1.3692
14401TIP3   OH264617   5.804   1.552  15.051  0.2152 -0.0820  0.2550
14401TIP3    H164618   5.720   1.506  15.057 -0.0210  0.1359 -1.2219
14401TIP3    H264619   5.788   1.638  15.090 -0.2872  0.0141 -0.1689
14402TIP3   OH264620   1.870   5.865  16.517  0.0814 -0.2512  0.6271
14402TIP3    H164621   1.896   5.921  16.590  0.1692 -1.5856  1.6211
14402TIP3    H264622   1.777   5.882  16.505  0.4800  1.4612 -0.2690
14403TIP3   OH264623   1.258   0.087   2.461  0.1094 -0.5969 -0.2261
14403TIP3    H164624   1.166   0.070   2.441 -0.3071  0.8622  0.4147
14403TIP3    H264625   1.299   0.103   2.376 -0.5232  0.1908 -0.3814
14404TIP3   OH264626   6.365   6.531  11.579 -0.3182  0.5130 -0.4596
14404TIP3    H164627   6.372   6.437  11.564  0.5697  0.6915 -1.2283
14404TIP3    H264628   6.407   6.544  11.664  0.3371  0.3189 -0.7456
14405TIP3   OH264629   2.987   4.218  14.399  0.2272  0.1332  0.4782
14405TIP3    H164630   3.012   4.276  14.470  1.7859  0.1769 -0.0941
14405TIP3    H264631   2.937   4.273  14.339 -0.3851  0.2867  1.1219
14406TIP3   OH264632   3.775   2.621  16.450  0.3569  0.6728  0.6171
14406TIP3    H164633   3.764   2.585  16.538  2.1285 -1.4870 -0.0031
14406TIP3    H264634   3.716   2.569  16.396  1.6412 -0.1573  0.0020
14407TIP3   OH264635   4.577   6.147   5.137 -0.7013  0.0887 -0.4754
14407TIP3    H164636   4.596   6.059   5.167  0.9326  0.2746 -0.9075
14407TIP3    H264637   4.571   6.140   5.041  0.0676  0.5514 -0.5627
14408TIP3   OH264638   3.995   4.834  12.527 -0.2226 -1.6969 -0.4354
14408TIP3    H164639   3.993   4.830  12.623  1.1820 -1.4834 -0.3895
14408TIP3    H264640   3.907   4.863  12.503  0.5636  2.2218  1.0103
14409TIP3   OH264641   0.008   1.193  12.991 -0.8202  0.2077  0.1641
14409TIP3    H164642   0.076   1.155  12.936 -0.6450 -3.1522  2.5570
14409TIP3    H264643  -0.063   1.213  12.930  0.7139 -0.1023 -1.7784
14410TIP3   OH264644   3.457   6.405  16.963 -0.6932  0.1606 -0.2565
14410TIP3    H164645   3.455   6.452  16.880 -1.9459  1.5853  0.5519
14410TIP3    H264646   3.490   6.469  17.026 -1.0336 -0.4836  0.5962
14411TIP3   OH264647   3.353   2.181  13.438  0.4988  0.4932  0.1882
14411TIP3    H164648   3.330   2.176  13.531  1.4605  1.2235  0.4760
14411TIP3    H264649   3.297   2.117  13.396  2.0033 -1.8585  1.6619
14412TIP3   OH264650   0.548   3.965  12.872  0.3705 -0.3463  0.2133
14412TIP3    H164651   0.454   3.978  12.880  0.6005  0.3484  1.9173
14412TIP3    H264652   0.563   3.875  12.903  0.2157 -0.6882 -0.6622
14413TIP3   OH264653   1.388   0.395   2.047  0.2387 -0.1849  1.0364
14413TIP3    H164654   1.380   0.401   1.951  0.0401 -0.3353  1.0436
14413TIP3    H264655   1.416   0.483   2.074 -1.3653  0.3611  1.0058
14414TIP3   OH264656   4.379   2.586  12.672 -0.4656 -0.5591  0.5359
14414TIP3    H164657   4.320   2.523  12.714  0.2377 -2.7753 -1.6424
14414TIP3    H264658   4.439   2.531  12.620  1.1898  1.8405 -0.1760
14415TIP3   OH264659   0.710   6.292  17.020 -0.0127  0.5574  0.5640
14415TIP3    H164660   0.770   6.252  16.957  0.3654  1.3569  0.4056
14415TIP3    H264661   0.643   6.226  17.035  0.0636  0.2453 -0.4386
14416TIP3   OH264662   2.581   3.906   5.530  0.4202  0.5053  0.1119
14416TIP3    H164663   2.530   3.958   5.468 -0.1874 -2.0831 -1.6109
14416TIP3    H264664   2.515   3.863   5.585  0.8576  0.1477  0.3574
14417TIP3   OH264665   2.819   1.541  14.978 -0.2241 -0.2555  0.3310
14417TIP3    H164666   2.833   1.536  14.883  0.8679 -0.0198  0.4815
14417TIP3    H264667   2.736   1.589  14.987 -0.2983 -0.2136 -0.4970
14418TIP3   OH264668   5.240   0.135   4.540 -0.2226  0.2648  0.5880
14418TIP3    H164669   5.278   0.090   4.464  1.1822  0.2858  1.2755
14418TIP3    H264670   5.315   0.168   4.589 -1.0736 -0.3966  2.3911
14419TIP3   OH264671   3.969   6.285  13.879  0.1720  0.1900 -0.4354
14419TIP3    H164672   3.884   6.326  13.864 -0.4186 -1.1585 -0.9101
14419TIP3    H264673   4.029   6.331  13.821 -0.3373  0.8481 -0.4373
14420TIP3   OH264674   1.481   5.152  14.469  0.5001  0.1318 -0.4909
14420TIP3    H164675   1.392   5.188  14.473  0.2980  0.2877 -4.3698
14420TIP3    H264676   1.512   5.154  14.559 -2.9269  1.3757  0.7359
14421TIP3   OH264677   3.627   5.065  16.691  0.2516  0.0715 -0.1218
14421TIP3    H164678   3.721   5.084  16.694  0.0159  1.3206 -0.5659
14421TIP3    H264679   3.593   5.102  16.773 -0.0523  0.6981 -0.5315
14422TIP3   OH264680   3.620   2.659   5.752 -0.2050  0.1945 -0.2591
14422TIP3    H164681   3.557   2.647   5.823 -0.8749  0.5882 -0.7861
14422TIP3    H264682   3.705   2.665   5.797 -0.6574  0.7566  0.5352
14423TIP3   OH264683   6.441   5.707   1.269  0.4874 -0.1388  0.0615
14423TIP3    H164684   6.409   5.633   1.218 -1.9881  1.0752 -0.1925
14423TIP3    H264685   6.501   5.667   1.333 -0.5767 -2.3138 -0.2572
14424TIP3   OH264686   0.648   4.006   4.543 -0.4411  0.3543 -0.2024
14424TIP3    H164687   0.690   3.940   4.600 -0.2754  0.6966  0.0741
14424TIP3    H264688   0.614   3.955   4.469  0.7248  0.1120 -0.5830
14425TIP3   OH264689   3.676   2.620  14.146 -0.1842 -0.1438 -0.1234
14425TIP3    H164690   3.725   2.700  14.164  0.5439 -0.6726  0.2608
14425TIP3    H264691   3.588   2.651  14.121  0.8842  0.8920 -2.7390
14426TIP3   OH264692   0.827   3.198   2.747 -0.4804 -0.4863 -0.2774
14426TIP3    H164693   0.851   3.114   2.785 -0.4898 -1.3456 -2.1236
14426TIP3    H264694   0.765   3.177   2.677 -1.5907  1.1755  0.1727
14427TIP3   OH264695   6.102   6.091   5.090 -0.4203 -0.4929  0.5378
14427TIP3    H164696   6.103   5.998   5.066 -0.5715 -0.1108 -1.0257
14427TIP3    H264697   6.024   6.102   5.144 -0.5347 -1.2320  0.5267
14428TIP3   OH264698   1.569   1.187  17.001 -0.2369 -0.2968 -0.2063
14428TIP3    H164699   1.653   1.146  17.021  0.7796  1.1406 -1.3661
14428TIP3    H264700   1.577   1.276  17.035 -1.1776 -0.0631 -0.5786
14429TIP3   OH264701   2.857   1.054   4.932 -0.3872 -0.6504  0.1683
14429TIP3    H164702   2.832   1.110   4.859 -0.4625 -0.4550  0.3467
14429TIP3    H264703   2.795   0.980   4.927 -1.2793  0.0392  0.8640
14430TIP3   OH264704   0.988   1.946   4.377  0.9558  0.3387 -0.6632
14430TIP3    H164705   0.997   1.850   4.380  2.5105  0.4748 -0.5190
14430TIP3    H264706   0.916   1.964   4.438  1.0291 -0.6977 -0.2415
14431TIP3   OH264707   2.688   1.692   2.313  0.2762 -0.0759 -0.5444
14431TIP3    H164708   2.742   1.770   2.304  0.0011  0.1916  0.0715
14431TIP3    H264709   2.614   1.706   2.255  0.0433  0.2772 -0.1556
14432TIP3   OH264710   0.680   0.940  13.179  0.0490 -0.3106  0.1838
14432TIP3    H164711   0.627   1.019  13.183  0.6901  0.1647 -0.6374
14432TIP3    H264712   0.636   0.884  13.114  2.0841  1.2679 -2.7048
14433TIP3   OH264713   0.826   3.581  11.180  0.0450  0.4756 -0.8019
14433TIP3    H164714   0.812   3.607  11.089  1.1205  1.3263 -0.7333
14433TIP3    H264715   0.769   3.639  11.231 -1.6709 -0.9811 -1.0155
14434TIP3   OH264716   4.482   2.879  15.071 -0.3239  0.5107  0.8149
14434TIP3    H164717   4.575   2.881  15.095  0.0186 -0.5849 -0.3795
14434TIP3    H264718   4.462   2.787  15.058 -1.2456  0.8467 -0.2258
14435TIP3   OH264719   3.329   5.375   2.721  0.2689  0.1309  0.2047
14435TIP3    H164720   3.415   5.336   2.706  0.5287  1.0567 -0.8272
14435TIP3    H264721   3.267   5.313   2.683  0.5211 -0.3024  0.5065
14436TIP3   OH264722   0.782   5.089   5.985  0.1163  0.5225  0.1779
14436TIP3    H164723   0.746   5.172   5.956 -0.8290 -0.0159 -0.2250
14436TIP3    H264724   0.753   5.080   6.076 -1.1707 -0.0979 -0.2650
14437TIP3   OH264725   0.039   3.688   3.942 -0.3778 -0.0571 -0.4781
14437TIP3    H164726   0.059   3.708   3.851 -1.2794 -0.2433 -0.7222
14437TIP3    H264727  -0.039   3.739   3.962 -1.4376 -1.6523 -0.4575
14438TIP3   OH264728   2.841   1.658  17.001 -0.0157 -0.5312  0.5194
14438TIP3    H164729   2.810   1.701  17.080 -0.8116  0.3430 -0.2544
14438TIP3    H264730   2.804   1.709  16.929  1.9011 -0.4278 -0.4398
14439TIP3   OH264731   0.575   1.914  14.489 -0.5632  0.1305  0.2365
14439TIP3    H164732   0.637   1.841  14.496 -0.3949  0.3746  1.2870
14439TIP3    H264733   0.542   1.909  14.399 -0.9457 -1.5476  0.4675
14440TIP3   OH264734   1.106   1.332   1.762  0.8563 -0.3972  0.1524
14440TIP3    H164735   1.076   1.277   1.689  0.9196  0.7827 -0.7733
14440TIP3    H264736   1.075   1.420   1.740  1.6939  0.1356  1.0917
14441TIP3   OH264737   0.972   1.650   1.418  0.0095  0.5193  0.1476
14441TIP3    H164738   1.054   1.630   1.374 -0.6364 -0.6862 -0.5209
14441TIP3    H264739   0.928   1.712   1.360 -0.8237 -1.0381 -0.9188
14442TIP3   OH264740   1.959   0.625   1.446  0.6937 -0.0611 -0.0987
14442TIP3    H164741   1.915   0.609   1.362  1.2551 -1.2779 -0.1658
14442TIP3    H264742   1.906   0.578   1.510  0.1880  0.9815  0.2659
14443TIP3   OH264743   3.712   5.701   1.199 -0.0203 -0.1836  0.8081
14443TIP3    H164744   3.623   5.708   1.164  0.4006 -1.2366 -0.5514
14443TIP3    H264745   3.701   5.660   1.285 -0.8038 -1.0198  0.3246
14444TIP3   OH264746   0.780   2.975   0.449 -0.2315  0.2319  0.2426
14444TIP3    H164747   0.843   2.906   0.472 -0.3028  0.5397  1.4030
14444TIP3    H264748   0.833   3.055   0.446 -0.4556  0.3943  0.6071
14445TIP3   OH264749   2.562   0.136  13.236  0.7201  0.2788  0.3661
14445TIP3    H164750   2.583   0.179  13.319  1.7452 -1.8195  1.2357
14445TIP3    H264751   2.612   0.055  13.238 -1.2287 -1.0027 -1.1793
14446TIP3   OH264752   4.144   0.231   2.053  0.2854 -0.5725  0.3930
14446TIP3    H164753   4.225   0.232   2.002  0.7096  0.3221  1.0554
14446TIP3    H264754   4.096   0.155   2.022  1.1266 -0.7781 -0.4146
14447TIP3   OH264755   1.208   3.417  16.246 -0.5468 -0.2454  0.2133
14447TIP3    H164756   1.283   3.466  16.212 -1.6674  0.2162 -1.6693
14447TIP3    H264757   1.214   3.331  16.205 -1.5691  0.1054 -0.6757
14448TIP3   OH264758   1.132   6.620   0.251 -0.4449  0.0469  0.2200
14448TIP3    H164759   1.201   6.557   0.273 -0.9304 -0.0390  1.4990
14448TIP3    H264760   1.109   6.661   0.334 -1.4149  0.6123 -0.3240
14449TIP3   OH264761   2.795   0.855  12.164  0.5140 -0.3586  0.1963
14449TIP3    H164762   2.817   0.818  12.079 -0.4702 -0.2299 -0.1173
14449TIP3    H264763   2.863   0.922  12.180  0.2910  0.1063 -0.7973
14450TIP3   OH264764   4.276   5.584  11.982 -0.1828 -0.0632 -0.3498
14450TIP3    H164765   4.235   5.505  12.018 -0.1812 -0.0339 -0.2846
14450TIP3    H264766   4.360   5.554  11.947  0.3639  0.1218  0.7674
14451TIP3   OH264767   5.662   4.017  16.991 -0.2860 -0.0385 -0.3631
14451TIP3    H164768   5.740   3.972  17.021 -0.7813 -0.2187  0.6919
14451TIP3    H264769   5.658   3.999  16.897  0.9414 -0.0049 -0.4303
14452TIP3   OH264770   5.370   5.949  14.534 -0.5667  0.1696 -0.0537
14452TIP3    H164771   5.417   5.909  14.461 -0.8015  0.8375 -0.5792
14452TIP3    H264772   5.292   5.987  14.494 -2.2731 -2.0856  1.0007
14453TIP3   OH264773   1.497   0.368   0.584 -0.4304  0.0912 -0.2645
14453TIP3    H164774   1.559   0.386   0.513 -0.0362 -0.8175 -0.1522
14453TIP3    H264775   1.461   0.282   0.564  0.6442 -0.7456  1.3368
14454TIP3   OH264776   2.078   3.932  13.635 -0.2891 -0.0637 -0.0224
14454TIP3    H164777   2.032   3.933  13.718 -1.8606 -1.2527 -0.8405
14454TIP3    H264778   2.076   3.840  13.608 -0.5186  0.4272 -1.7371
14455TIP3   OH264779   3.094   4.811  14.928  0.1047 -0.7568  0.4453
14455TIP3    H164780   3.147   4.883  14.963 -1.2984 -0.8654  2.8651
14455TIP3    H264781   3.046   4.850  14.855  0.0323  0.5454  1.1782
14456TIP3   OH264782   2.018   6.268  14.532  0.0873  0.5067  0.5327
14456TIP3    H164783   1.946   6.317  14.573 -1.2643 -1.3645  0.4738
14456TIP3    H264784   2.023   6.302  14.443 -1.3320  0.0648  0.2651
14457TIP3   OH264785   3.263   2.182   3.969  0.0088  0.4762 -0.0527
14457TIP3    H164786   3.318   2.176   4.047 -1.0704 -1.1797  0.5922
14457TIP3    H264787   3.282   2.102   3.920 -1.8241 -0.1219  0.1829
14458TIP3   OH264788   0.088   4.719  14.273 -0.2563  0.4084  0.0028
14458TIP3    H164789   0.115   4.810  14.257 -1.1141  0.3622 -1.8721
14458TIP3    H264790   0.159   4.667  14.236 -0.0481  0.3118  0.5396
14459TIP3   OH264791   5.980   1.862  16.311 -0.1538 -0.2488  0.2310
14459TIP3    H164792   6.009   1.822  16.393  1.6727  2.0597  0.7612
14459TIP3    H264793   6.060   1.869  16.258 -1.3253 -1.7948 -1.8241
14460TIP3   OH264794   0.176   0.499   5.599 -0.5564  0.0192 -0.5366
14460TIP3    H164795   0.123   0.468   5.526 -2.3529  1.3527  0.1630
14460TIP3    H264796   0.123   0.568   5.640  1.2683  0.6690  0.8166
14461TIP3   OH264797   4.228   0.640  13.132  0.3415  0.3156  0.2516
14461TIP3    H164798   4.290   0.713  13.129 -0.2004  0.7818  0.2886
14461TIP3    H264799   4.147   0.676  13.096  0.2251 -0.4236 -0.2449
14462TIP3   OH264800   4.478   0.692  14.648 -0.4787 -0.0528 -0.1421
14462TIP3    H164801   4.561   0.733  14.673 -0.1326 -0.8049 -0.0476
14462TIP3    H264802   4.476   0.610  14.696 -1.3139 -0.0125 -0.0999
14463TIP3   OH264803   6.529   0.487  16.122 -0.9439 -0.9675  0.3267
14463TIP3    H164804   6.499   0.435  16.197 -0.7760 -1.1543  0.2655
14463TIP3    H264805   6.590   0.550  16.159 -1.7336 -0.3054  0.5190
14464TIP3   OH264806   0.717   4.438  13.127 -0.0491 -0.1674  0.5082
14464TIP3    H164807   0.656   4.369  13.154  2.0967 -1.4373  2.2562
14464TIP3    H264808   0.761   4.403  13.050 -1.6653  0.8748 -0.9415
14465TIP3   OH264809   3.719   1.428  12.661 -0.4417 -0.5777 -0.1565
14465TIP3    H164810   3.665   1.485  12.606 -0.5257 -0.4850  0.0227
14465TIP3    H264811   3.665   1.350  12.676  0.1510 -1.2467 -1.4340
14466TIP3   OH264812   1.878   3.540  16.588  0.3291  0.1851  0.1465
14466TIP3    H164813   1.938   3.615  16.587 -0.3065  0.6958 -0.1626
14466TIP3    H264814   1.935   3.464  16.599  0.9216  0.7732  1.2499
14467TIP3   OH264815   2.499   2.436   4.052  0.2444  0.1928  0.1477
14467TIP3    H164816   2.577   2.471   4.095 -0.6344  0.5907  1.4638
14467TIP3    H264817   2.530   2.404   3.968  1.6124  1.4410  0.1509
14468TIP3   OH264818   0.596   3.185  13.792  0.1688  0.9489  0.3697
14468TIP3    H164819   0.562   3.148  13.873 -0.3638 -2.5220 -1.3645
14468TIP3    H264820   0.685   3.213  13.814  0.5995 -1.3954  1.7675
14469TIP3   OH264821   1.806   5.433   0.560  0.5986 -0.2324 -0.3895
14469TIP3    H164822   1.747   5.441   0.635  1.1918 -0.6488  0.1343
14469TIP3    H264823   1.857   5.354   0.578 -1.8545 -2.5484 -3.0897
14470TIP3   OH264824   5.126   3.385   0.666 -0.6505  0.3086 -0.0418
14470TIP3    H164825   5.134   3.436   0.746 -0.2160 -1.4310  1.0615
14470TIP3    H264826   5.216   3.361   0.643 -0.5634  2.5555 -2.2718
14471TIP3   OH264827   5.563   4.052  15.489 -0.0797 -0.2487  0.1777
14471TIP3    H164828   5.470   4.073  15.498  0.0186  0.7955 -1.0640
14471TIP3    H264829   5.564   3.958  15.470 -1.2326  0.5058 -4.3098
14472TIP3   OH264830   2.573   2.058   4.163  0.0297 -0.1194 -0.3981
14472TIP3    H164831   2.623   2.121   4.215  0.4425  0.2907 -1.2853
14472TIP3    H264832   2.586   2.086   4.072  0.1238 -1.4094 -0.7977
14473TIP3   OH264833   2.031   5.395   0.830  0.1490 -0.4186  0.1204
14473TIP3    H164834   2.020   5.449   0.908  0.5813 -2.2472  1.5006
14473TIP3    H264835   2.124   5.402   0.809  0.1253 -0.2855  0.0648
14474TIP3   OH264836   5.827   1.307   2.388  1.0832 -0.0454  0.2698
14474TIP3    H164837   5.753   1.365   2.372  0.1137 -1.3212  0.0887
14474TIP3    H264838   5.883   1.356   2.448  1.0869  1.7272 -1.1600
14475TIP3   OH264839   5.001   6.612  13.841  0.2471  0.7237  0.2030
14475TIP3    H164840   4.910   6.599  13.866  0.2738 -2.6455 -1.1069
14475TIP3    H264841   5.049   6.617  13.924 -0.7717 -0.7146  0.9051
14476TIP3   OH264842   1.029   3.405   5.592  0.2196  0.4643 -0.0464
14476TIP3    H164843   0.943   3.366   5.604  0.1624  0.6469  0.1419
14476TIP3    H264844   1.082   3.336   5.552  0.0783  0.2454  0.1453
14477TIP3   OH264845   2.973   2.893  12.861  0.3789 -0.2547 -0.2392
14477TIP3    H164846   2.965   2.955  12.788  1.3539 -0.9723 -0.9722
14477TIP3    H264847   2.905   2.828  12.845 -1.2339  1.0813  1.0129
14478TIP3   OH264848   4.585   0.406  11.858 -0.0934 -0.4171  0.4194
14478TIP3    H164849   4.612   0.447  11.940 -0.3682  1.2120 -0.2823
14478TIP3    H264850   4.665   0.366  11.823 -0.0624 -1.4756  1.6642
14479TIP3   OH264851   0.337   1.971  13.966 -0.2950 -0.8329 -0.6295
14479TIP3    H164852   0.430   1.966  13.946 -0.4169  1.4516 -1.8617
14479TIP3    H264853   0.333   1.992  14.060  0.4690  0.8584 -0.9626
14480TIP3   OH264854   0.207   1.324   5.529  0.1210 -0.2623  0.1281
14480TIP3    H164855   0.237   1.257   5.467 -2.1270 -0.2482 -1.0151
14480TIP3    H264856   0.255   1.403   5.505  1.8028 -1.0995  0.6357
14481TIP3   OH264857   2.106   5.765  16.583  0.2029  0.2449 -0.0068
14481TIP3    H164858   2.159   5.723  16.515 -0.0021  0.1309 -0.0978
14481TIP3    H264859   2.024   5.787  16.538 -0.5054 -1.1606  0.5822
14482TIP3   OH264860   2.782   3.959  13.616 -0.0150 -0.0653  0.3464
14482TIP3    H164861   2.702   3.930  13.659 -0.5766  0.0149 -0.6234
14482TIP3    H264862   2.853   3.928  13.672 -0.7143 -0.5155  0.9805
14483TIP3   OH264863   1.626   4.507  11.279 -0.7211 -0.7303  0.3348
14483TIP3    H164864   1.558   4.467  11.225  1.5848 -0.6227 -2.8292
14483TIP3    H264865   1.700   4.518  11.219  1.8547 -0.2493  3.4764
14484TIP3   OH264866   4.416   1.232  13.745 -0.8603 -0.2724  0.6024
14484TIP3    H164867   4.478   1.178  13.794  0.0996  1.4621  1.3520
14484TIP3    H264868   4.460   1.317  13.738 -2.5818  0.5727 -0.0547
14485TIP3   OH264869   4.094   1.760   5.814  0.0901 -0.2668  0.6305
14485TIP3    H164870   4.161   1.747   5.746  0.1755  0.6985  0.5144
14485TIP3    H264871   4.135   1.728   5.894 -0.1063 -1.6565  0.1884
14486TIP3   OH264872   2.041   2.226   4.946 -0.8879 -0.0596 -0.1082
14486TIP3    H164873   2.033   2.321   4.958 -0.7055  0.1505 -1.4813
14486TIP3    H264874   2.028   2.189   5.033 -0.5847  1.2534  0.5106
14487TIP3   OH264875   2.394   0.671   2.035  0.5077 -0.3897 -0.7839
14487TIP3    H164876   2.440   0.633   1.960  0.8870 -0.7499 -0.3701
14487TIP3    H264877   2.422   0.762   2.038  0.2846 -0.3061 -1.2439
14488TIP3   OH264878   0.409   4.598   3.025 -0.0905 -0.1274 -0.1415
14488TIP3    H164879   0.357   4.526   3.060  0.9149 -1.4688 -1.3304
14488TIP3    H264880   0.371   4.615   2.938 -0.4231  0.8855  0.2005
14489TIP3   OH264881   4.545   1.821   4.151 -0.0479 -0.2968  0.0238
14489TIP3    H164882   4.481   1.830   4.221  0.4084  1.0078  0.2851
14489TIP3    H264883   4.614   1.884   4.173  0.5030 -0.4678 -1.1494
14490TIP3   OH264884   4.355   0.760  11.229 -0.3990 -0.5649 -0.1674
14490TIP3    H164885   4.416   0.687  11.220  0.4253  0.1948 -0.8661
14490TIP3    H264886   4.300   0.737  11.304  1.2698 -0.8986  0.9871
14491TIP3   OH264887   0.792   4.348  14.272 -0.0439  0.1474  0.1627
14491TIP3    H164888   0.773   4.439  14.292 -0.5018  0.2334 -0.6188
14491TIP3    H264889   0.826   4.311  14.353 -1.0840  0.6773  0.8415
14492TIP3   OH264890   3.872   1.754   4.143 -0.1136 -0.0409 -0.3815
14492TIP3    H164891   3.803   1.724   4.203 -0.7508  1.9518 -0.1017
14492TIP3    H264892   3.824   1.788   4.067  0.6119  0.3477 -0.6629
14493TIP3   OH264893   5.049   0.946   5.724  0.2201 -0.4585 -0.2703
14493TIP3    H164894   5.043   0.851   5.709  0.3973 -0.5653  0.3140
14493TIP3    H264895   5.123   0.956   5.784 -1.9239 -0.2584  2.3899
14494TIP3   OH264896   4.565   3.058   5.613 -0.6268 -0.0642 -0.0331
14494TIP3    H164897   4.591   3.141   5.573 -0.0728 -1.0317 -1.7118
14494TIP3    H264898   4.634   2.997   5.589 -0.7501 -0.9091  1.6544
14495TIP3   OH264899   6.669   5.925   3.603 -0.4111  0.2544 -0.0167
14495TIP3    H164900   6.585   5.937   3.648  0.7937  1.1139  2.0841
14495TIP3    H264901   6.692   6.013   3.573 -0.8102 -0.1808 -1.6351
14496TIP3   OH264902   5.643   0.400  11.678 -0.5614 -0.1974  0.1030
14496TIP3    H164903   5.679   0.488  11.683  2.9882 -1.4638 -1.6019
14496TIP3    H264904   5.692   0.350  11.743 -0.6148 -1.5311 -0.8641
14497TIP3   OH264905   5.167   3.407   4.620  0.4057 -0.5454  0.0303
14497TIP3    H164906   5.097   3.463   4.585  0.1093  0.5815  2.3350
14497TIP3    H264907   5.246   3.440   4.579  0.0130  0.4879  0.0889
14498TIP3   OH264908   4.141   3.353   5.157 -0.1206 -0.2035 -0.2601
14498TIP3    H164909   4.191   3.433   5.170 -0.9786  0.6181 -1.9292
14498TIP3    H264910   4.196   3.284   5.194  1.5801  0.8668 -0.7523
14499TIP3   OH264911   1.233   4.296  11.154 -0.0274  0.3198  0.2792
14499TIP3    H164912   1.248   4.366  11.216  1.2822 -0.1171  0.4596
14499TIP3    H264913   1.198   4.224  11.206 -0.8918  0.6514  0.1729
14500TIP3   OH264914   0.189   3.145  10.984  0.7466  0.2156 -0.5675
14500TIP3    H164915   0.183   3.181  11.072  1.7671 -1.2205  0.1044
14500TIP3    H264916   0.135   3.203  10.931 -0.9286  0.3289  1.2233
14501TIP3   OH264917   0.247   3.044  13.778  0.0815  0.2560 -0.3786
14501TIP3    H164918   0.151   3.041  13.783  0.0614 -0.4809 -1.0962
14501TIP3    H264919   0.266   3.093  13.698  0.2998  0.0660 -0.4450
14502TIP3   OH264920   1.548   2.750   1.008 -0.2838 -0.2745 -0.3638
14502TIP3    H164921   1.636   2.778   1.036 -0.0585  0.8016 -2.0359
14502TIP3    H264922   1.489   2.794   1.069  0.2921 -0.1525  0.1224
14503TIP3   OH264923   1.172   1.254   1.199 -0.1536  0.1110  0.6013
14503TIP3    H164924   1.131   1.302   1.271 -1.8960  0.2114 -0.4314
14503TIP3    H264925   1.264   1.251   1.222 -0.6624  0.2619  2.7846
14504TIP3   OH264926   6.294   3.568   4.474  0.0566 -0.5274 -0.2601
14504TIP3    H164927   6.325   3.658   4.470 -1.1246 -0.1146 -0.4590
14504TIP3    H264928   6.373   3.515   4.479  0.7476  0.5446  0.3256
14505TIP3   OH264929   2.602   5.447  16.268  0.3617 -0.0524  0.5889
14505TIP3    H164930   2.558   5.421  16.348  0.5597 -2.5989 -0.0938
14505TIP3    H264931   2.575   5.382  16.203  1.2686  1.1765 -1.0668
14506TIP3   OH264932   6.290   4.138   0.120  0.6316 -0.1244  0.1582
14506TIP3    H164933   6.384   4.128   0.134  0.6765 -0.2029 -0.2057
14506TIP3    H264934   6.250   4.076   0.181  0.8053  0.1653  0.5668
14507TIP3   OH264935   4.686   4.100   2.908 -0.3162 -0.1310  0.2352
14507TIP3    H164936   4.612   4.110   2.848 -0.3314  2.8801  0.7077
14507TIP3    H264937   4.648   4.063   2.988 -1.1550  0.5164  0.1399
14508TIP3   OH264938   0.914   3.501  12.647 -0.1844 -0.4554  0.4317
14508TIP3    H164939   0.928   3.554  12.568 -2.4388  1.5629  1.3167
14508TIP3    H264940   0.872   3.422  12.615  0.8651 -0.6091 -0.6221
14509TIP3   OH264941   1.255   1.003  16.809  0.3181 -0.1532  0.2560
14509TIP3    H164942   1.249   1.090  16.769 -1.8254  0.2678  1.3610
14509TIP3    H264943   1.205   0.946  16.750 -0.6016 -0.0633  0.9359
14510TIP3   OH264944   6.403   5.942   6.331  0.2093  0.1549 -0.1338
14510TIP3    H164945   6.366   6.020   6.372  0.3278  1.0518 -1.6813
14510TIP3    H264946   6.334   5.877   6.336 -0.4297  0.8280 -0.1601
14511TIP3   OH264947   6.655   0.456   3.639  0.2766  0.1449 -0.0439
14511TIP3    H164948   6.575   0.417   3.603  1.0723 -1.3022 -0.2503
14511TIP3    H264949   6.624   0.505   3.716 -1.0201  0.9041 -1.0159
14512TIP3   OH264950   0.638   1.867  11.949  0.5022 -0.2217  0.5596
14512TIP3    H164951   0.649   1.780  11.911 -0.2076 -0.6557  1.3181
14512TIP3    H264952   0.664   1.856  12.040  2.3108  0.8366  0.1957
14513TIP3   OH264953   2.364   5.458  12.587  0.4013  0.1099  0.3769
14513TIP3    H164954   2.296   5.413  12.537 -0.9763  1.2808  1.1351
14513TIP3    H264955   2.445   5.439  12.541 -0.5034 -0.9571 -0.8007
14514TIP3   OH264956   4.291   4.981   2.110  0.2353  0.6459 -0.2220
14514TIP3    H164957   4.325   4.892   2.118  0.9645  0.7332 -2.0688
14514TIP3    H264958   4.369   5.035   2.097 -0.3360  1.3104 -0.9186
14515TIP3   OH264959   5.054   1.158  13.771 -0.1506  0.2465 -0.2764
14515TIP3    H164960   5.024   1.114  13.851 -1.7724 -0.0309 -1.0326
14515TIP3    H264961   5.128   1.211  13.800  0.9987 -1.9031  0.9229
14516TIP3   OH264962   5.961   6.555   3.531  0.0481  0.7260  0.2987
14516TIP3    H164963   5.984   6.550   3.438 -0.1305  0.2285  0.2808
14516TIP3    H264964   5.883   6.500   3.541 -0.8930  2.0635  0.4507
14517TIP3   OH264965   5.004   5.398   1.496  0.1777 -0.1922  0.2665
14517TIP3    H164966   5.023   5.309   1.467  3.8261  0.5473  0.0481
14517TIP3    H264967   4.953   5.388   1.576  2.3848 -2.5813  1.4548
14518TIP3   OH264968   6.350   2.904  14.956  0.8476 -0.3963  0.0682
14518TIP3    H164969   6.401   2.935  15.031  2.5221 -1.1136 -0.7357
14518TIP3    H264970   6.278   2.855  14.995  0.4418  1.0979  1.2511
14519TIP3   OH264971   2.573   1.739   1.264  0.2224 -0.1278 -0.1530
14519TIP3    H164972   2.531   1.734   1.350 -0.4371 -1.1309 -0.5259
14519TIP3    H264973   2.607   1.829   1.259 -1.0665  0.4103  0.5285
14520TIP3   OH264974   0.294   5.268  16.163  0.0697 -0.2144  0.5485
14520TIP3    H164975   0.239   5.309  16.097  2.3278 -0.0762 -1.3390
14520TIP3    H264976   0.236   5.252  16.237 -1.6948  3.0331 -0.0479
14521TIP3   OH264977   4.341   4.266   0.635  0.6424  0.3992  0.2944
14521TIP3    H164978   4.392   4.347   0.637  0.5113  0.4846  0.1631
14521TIP3    H264979   4.384   4.210   0.699  1.8796 -0.1011 -0.9263
14522TIP3   OH264980   0.856   2.016  16.959 -0.4204 -0.5450 -0.0930
14522TIP3    H164981   0.914   2.090  16.940 -1.4483 -0.1127 -1.5472
14522TIP3    H264982   0.810   2.042  17.039  0.7091 -0.4987  0.5509
14523TIP3   OH264983   3.791   5.333   3.529 -0.6551  0.1385 -0.3281
14523TIP3    H164984   3.728   5.361   3.595  0.7029  0.3354  0.9170
14523TIP3    H264985   3.851   5.407   3.520 -0.1749 -0.3202 -0.9594
14524TIP3   OH264986   3.419   4.654   4.027  0.0572 -0.1305  0.1717
14524TIP3    H164987   3.403   4.566   3.993 -1.4351  1.1968 -2.6940
14524TIP3    H264988   3.345   4.670   4.086 -0.1356 -0.4521  0.0200
14525TIP3   OH264989   3.057   3.300   5.372 -0.2651 -0.3229  0.2699
14525TIP3    H164990   3.011   3.354   5.308 -0.7173  0.7244  1.4516
14525TIP3    H264991   3.013   3.215   5.368 -0.3791 -0.2229 -0.6960
14526TIP3   OH264992   0.993   1.555  10.807 -0.3528 -0.4516 -0.3345
14526TIP3    H164993   0.959   1.636  10.770  1.6358  1.0491  1.0377
14526TIP3    H264994   1.058   1.525  10.744  0.8824  0.5097  0.4597
14527TIP3   OH264995   1.413   0.794   3.130 -0.0479  0.3183  0.1162
14527TIP3    H164996   1.424   0.877   3.085 -0.5048  1.1992  1.6020
14527TIP3    H264997   1.496   0.749   3.118  0.0874  0.8489 -0.9690
14528TIP3   OH264998   1.774   3.846   3.047 -0.1012 -0.0668 -0.5421
14528TIP3    H164999   1.837   3.836   3.118  0.0187 -0.9398 -0.7611
14528TIP3    H265000   1.702   3.786   3.070 -0.5783  0.4899 -0.5851
14529TIP3   OH265001   3.275   5.037  12.298 -0.5103  0.6726  0.5991
14529TIP3    H165002   3.217   5.072  12.230  0.8572  0.6918 -0.5579
14529TIP3    H265003   3.276   4.943  12.283  0.4609  0.7703  0.0809
14530TIP3   OH265004   3.832   6.771  11.968  0.1904  0.0146 -0.0131
14530TIP3    H165005   3.845   6.854  12.013  1.4715 -0.0243 -0.2884
14530TIP3    H265006   3.738   6.762  11.960  0.0646  1.8122 -0.6800
14531TIP3   OH265007   4.086   3.356   1.797 -0.3615  0.2335 -1.0835
14531TIP3    H165008   4.030   3.281   1.779 -1.2720 -0.0500  2.5273
14531TIP3    H265009   4.092   3.360   1.893  1.3464  3.5337 -1.2259
14532TIP3   OH265010   1.615   4.392  14.403 -0.0688 -0.2889 -0.1391
14532TIP3    H165011   1.699   4.346  14.410 -0.1483 -0.5268 -0.7251
14532TIP3    H265012   1.553   4.325  14.377 -0.1651  0.1694 -1.0976
14533TIP3   OH265013   1.305   3.858   1.955 -0.2176  0.0305 -0.2997
14533TIP3    H165014   1.244   3.904   2.013 -2.0806 -0.6885 -1.6224
14533TIP3    H265015   1.309   3.911   1.876  2.0509  0.8290  0.3229
14534TIP3   OH265016   1.497   6.713   2.109 -0.0487 -0.4851 -0.6552
14534TIP3    H165017   1.542   6.668   2.180 -0.9730 -0.8423 -0.2910
14534TIP3    H265018   1.407   6.722   2.139 -0.5073 -0.8604 -1.8885
14535TIP3   OH265019   4.995   2.488   4.545  0.2829  0.2502 -0.7138
14535TIP3    H165020   5.012   2.417   4.606 -1.1935 -1.0821 -1.8102
14535TIP3    H265021   5.078   2.535   4.538  1.3185 -1.4723 -0.1056
14536TIP3   OH265022   0.675   6.133   0.299 -0.0876  0.4303 -0.1289
14536TIP3    H165023   0.695   6.159   0.209  0.9058 -0.4824 -0.1787
14536TIP3    H265024   0.583   6.157   0.311 -0.5296 -0.3732 -1.7322
14537TIP3   OH265025   4.971   3.868   2.404  0.9279 -0.1309 -0.2344
14537TIP3    H165026   4.920   3.948   2.399  1.4468  0.2900  1.0160
14537TIP3    H265027   4.945   3.818   2.326 -1.7246 -0.1289  0.5704
14538TIP3   OH265028   0.837   6.368  15.879 -0.1832 -0.3268 -0.0487
14538TIP3    H165029   0.873   6.396  15.795  1.5601  1.1026  1.1484
14538TIP3    H265030   0.757   6.418  15.889 -0.8294 -1.1075 -1.2253
14539TIP3   OH265031   0.205   1.547  13.781  0.1926  0.5413  0.2281
14539TIP3    H165032   0.200   1.574  13.872 -0.3645 -0.4356  0.4957
14539TIP3    H265033   0.230   1.455  13.784 -0.9164  0.1988 -0.5659
14540TIP3   OH265034   5.263   5.826   4.443 -0.5360  0.2713  0.4138
14540TIP3    H165035   5.281   5.750   4.388  1.8780  0.5190  0.8294
14540TIP3    H265036   5.325   5.893   4.414 -1.0350  1.2907  1.6480
14541TIP3   OH265037   0.813   0.205  15.896  0.1031 -0.0791 -1.0699
14541TIP3    H165038   0.777   0.272  15.837 -0.9906  0.2615 -0.0253
14541TIP3    H265039   0.864   0.148  15.838 -0.5078  0.5647 -2.2719
14542TIP3   OH265040   5.531   2.974  12.527  0.1468 -0.5576 -0.2112
14542TIP3    H165041   5.584   2.947  12.451 -0.4129  0.8951 -1.1226
14542TIP3    H265042   5.466   2.904  12.536 -0.3171 -0.3314 -1.6055
14543TIP3   OH265043   3.571   4.668   5.244 -0.6222  0.8240  0.3759
14543TIP3    H165044   3.621   4.703   5.171 -0.9652  1.6904  0.5577
14543TIP3    H265045   3.570   4.738   5.309  0.8096 -0.4072  1.7715
14544TIP3   OH265046   0.482   1.345  15.684  0.3113 -0.4479  0.0166
14544TIP3    H165047   0.467   1.277  15.750 -1.6189 -1.8204 -1.7224
14544TIP3    H265048   0.417   1.412  15.703 -0.8437 -1.2548 -0.9462
14545TIP3   OH265049   1.604   4.854   3.518 -0.1041  0.1370 -0.6480
14545TIP3    H165050   1.600   4.925   3.454 -1.0566  2.2040  1.6328
14545TIP3    H265051   1.688   4.864   3.561 -0.0121 -0.4607 -0.6807
14546TIP3   OH265052   2.366   4.741  12.180  0.1322 -0.0583  0.0316
14546TIP3    H165053   2.457   4.722  12.159  0.3069 -0.4680  1.1199
14546TIP3    H265054   2.356   4.834  12.163  1.7766  0.8111  3.3618
14547TIP3   OH265055   2.829   6.339  15.825  0.7225  0.2188 -0.3823
14547TIP3    H165056   2.864   6.304  15.743 -1.2130 -0.5659 -0.8910
14547TIP3    H265057   2.869   6.425  15.833  0.7872  0.3842 -2.2590
14548TIP3   OH265058   1.054   1.933   0.422 -0.2493 -0.5064  0.5981
14548TIP3    H165059   1.013   1.983   0.493  0.4212  0.9846 -0.0446
14548TIP3    H265060   1.022   1.843   0.434 -3.4408  0.5184  0.3484
14549TIP3   OH265061   6.638   6.065   1.868 -0.3303  0.3081  0.2470
14549TIP3    H165062   6.561   6.121   1.861 -0.2118  0.8881  3.2076
14549TIP3    H265063   6.665   6.071   1.959  2.2499 -1.2070 -0.3502
14550TIP3   OH265064   6.191   4.704  12.658 -0.4005  0.5135 -0.2711
14550TIP3    H165065   6.233   4.774  12.707  0.3623  0.2830 -0.5813
14550TIP3    H265066   6.215   4.624  12.705 -0.3995  0.3712 -0.5117
14551TIP3   OH265067   5.979   5.889   1.538  0.4576 -0.7712  0.3106
14551TIP3    H165068   6.065   5.891   1.496  0.8077 -0.9826  1.0148
14551TIP3    H265069   5.982   5.812   1.595 -0.8981 -1.9286 -1.1354
14552TIP3   OH265070   3.860   3.347   4.410  0.4665  0.3255  0.1612
14552TIP3    H165071   3.875   3.343   4.505 -1.3723  1.4563  0.5313
14552TIP3    H265072   3.829   3.260   4.387 -0.2414  0.3906  0.8294
14553TIP3   OH265073   2.614   5.368  12.886 -0.2665  0.4813 -0.8070
14553TIP3    H165074   2.566   5.448  12.908 -0.1840  0.8147 -1.8191
14553TIP3    H265075   2.670   5.352  12.961 -1.4623  0.4747  0.1027
14554TIP3   OH265076   3.636   3.741  15.117 -0.3419  0.2786  0.5910
14554TIP3    H165077   3.592   3.656  15.114  0.9197 -0.3466 -0.6003
14554TIP3    H265078   3.685   3.740  15.199  2.3398 -1.5205 -0.9761
14555TIP3   OH265079   2.616   1.387  11.853 -0.0634  0.4791  0.3761
14555TIP3    H165080   2.547   1.392  11.788  0.9282  0.7768 -0.6657
14555TIP3    H265081   2.616   1.473  11.894 -0.8529  0.2116  0.9614
14556TIP3   OH265082   6.266   5.000  14.452 -0.2054 -0.1470  0.4696
14556TIP3    H165083   6.177   5.031  14.433 -0.3191 -0.3762  0.6409
14556TIP3    H265084   6.278   5.016  14.545 -0.0556 -0.0875  0.4405
14557TIP3   OH265085   0.309   4.033   0.520 -0.0098 -0.1844 -0.3255
14557TIP3    H165086   0.396   4.016   0.556 -0.1959  0.3220  0.3891
14557TIP3    H265087   0.322   4.104   0.458  0.3538 -1.2210 -1.4481
14558TIP3   OH265088   2.004   5.612  15.496  0.1966  0.2201 -0.2749
14558TIP3    H165089   1.975   5.658  15.418  0.2071  0.5238 -0.1018
14558TIP3    H265090   1.961   5.658  15.569  0.3695  0.0880 -0.0862
14559TIP3   OH265091   2.038   5.207  14.547  0.0868  0.1804 -0.3893
14559TIP3    H165092   2.122   5.245  14.520 -0.1355  0.8856 -0.0624
14559TIP3    H265093   2.024   5.238  14.636  0.2111 -1.1687  0.1200
14560TIP3   OH265094   1.766   3.457   3.009  0.2427  0.3829  0.0118
14560TIP3    H165095   1.777   3.430   3.101  0.5843  0.3942 -0.0244
14560TIP3    H265096   1.673   3.442   2.991  0.3816 -0.6069  0.0537
14561TIP3   OH265097   6.601   1.996   4.641 -0.4946 -1.0283 -0.0237
14561TIP3    H165098   6.663   2.034   4.703 -1.6917 -1.2670  1.3504
14561TIP3    H265099   6.578   2.067   4.582  2.0928 -1.2798 -1.3707
14562TIP3   OH265100   1.093   4.040  10.545  0.2478  0.5739 -0.1914
14562TIP3    H165101   1.020   3.979  10.536 -0.7346  1.8903 -1.6200
14562TIP3    H265102   1.093   4.065  10.637  1.7439 -2.8223  0.7931
14563TIP3   OH265103   2.742   0.546  15.488  0.1528 -0.5749 -0.5189
14563TIP3    H165104   2.794   0.495  15.425 -0.1051 -1.7217  0.1728
14563TIP3    H265105   2.704   0.480  15.546 -0.1760  0.4220  0.4120
14564TIP3   OH265106   3.961   1.395   9.998  0.7647 -0.0136  0.2817
14564TIP3    H165107   4.051   1.391  10.030  0.3635  0.0345  1.4677
14564TIP3    H265108   3.928   1.480  10.028 -0.7218 -1.4197  2.8273
14565TIP3   OH265109   0.861   5.258  15.018  0.3301 -0.2284  0.4918
14565TIP3    H165110   0.868   5.342  14.972 -0.5871 -0.0142  0.7349
14565TIP3    H265111   0.822   5.281  15.103  1.5407 -0.6905  1.1808
14566TIP3   OH265112   1.049   3.449   4.717  0.2068  0.5525  0.6437
14566TIP3    H165113   1.021   3.362   4.745  0.8086  0.5998  1.4251
14566TIP3    H265114   1.143   3.440   4.699 -0.1697  0.5368 -1.3556
14567TIP3   OH265115   1.365   0.227  12.886 -0.1762 -0.3112  0.0689
14567TIP3    H165116   1.322   0.242  12.802  0.8459  0.4925 -0.3337
14567TIP3    H265117   1.331   0.143  12.917 -1.5141  0.0044 -0.5427
14568TIP3   OH265118   0.004   4.856   3.810 -0.4161 -0.1141  0.2545
14568TIP3    H165119  -0.074   4.893   3.851  0.3926 -0.9285  2.6000
14568TIP3    H265120   0.071   4.924   3.820 -0.0904 -0.5003  0.7039
14569TIP3   OH265121   0.372   5.631  12.428  0.1987 -0.3446  0.6385
14569TIP3    H165122   0.286   5.672  12.427  0.6327  0.6858  2.5310
14569TIP3    H265123   0.429   5.692  12.382  0.0405 -0.7584 -0.1147
14570TIP3   OH265124   5.672   2.286   3.306 -0.0892  0.0138 -0.2910
14570TIP3    H165125   5.720   2.230   3.245  1.8530  2.3275 -0.9415
14570TIP3    H265126   5.603   2.326   3.253 -1.3135 -1.5041  0.1161
14571TIP3   OH265127   6.344   4.762  16.126 -0.2520 -0.8135 -1.1802
14571TIP3    H165128   6.288   4.832  16.092 -1.4939 -0.8669  0.6596
14571TIP3    H265129   6.415   4.755  16.062  0.1865  2.4685 -1.1543
14572TIP3   OH265130   3.767   0.090  16.809 -0.1586  0.6064  0.8123
14572TIP3    H165131   3.738   0.133  16.889 -1.3599  1.1621  0.0802
14572TIP3    H265132   3.688   0.049  16.774  0.8695 -1.8638  1.2843
14573TIP3   OH265133   0.724   6.084  13.639 -0.0776 -0.7028 -0.0592
14573TIP3    H165134   0.766   6.015  13.691 -1.0473 -1.2988 -0.0694
14573TIP3    H265135   0.709   6.154  13.702 -0.8824 -1.2680  0.3797
14574TIP3   OH265136   5.010   1.771   2.477  0.2157  0.3196  0.0493
14574TIP3    H165137   4.997   1.785   2.383 -2.0057 -0.0724  0.2929
14574TIP3    H265138   4.997   1.677   2.490 -0.0614  0.4629  0.8359
14575TIP3   OH265139   0.460   4.372  16.334  0.3446 -0.0023  0.1019
14575TIP3    H165140   0.519   4.311  16.379  0.3141  1.1288  1.7158
14575TIP3    H265141   0.516   4.414  16.268  0.1498 -2.3817 -1.6494
14576TIP3   OH265142   2.393   0.499   4.703 -0.2086 -0.2597  0.4757
14576TIP3    H165143   2.354   0.461   4.782  1.9987 -0.4111  1.5159
14576TIP3    H265144   2.322   0.497   4.638 -1.9136 -0.5435  2.3025
14577TIP3   OH265145   2.706   4.946  16.224  0.1730  0.3226 -0.2715
14577TIP3    H165146   2.642   4.999  16.177 -0.9059 -1.0668 -0.3829
14577TIP3    H265147   2.697   4.972  16.315  0.1572  0.8525 -0.4204
14578TIP3   OH265148   0.065   4.986   5.712  0.1966 -0.3243 -0.6717
14578TIP3    H165149   0.123   5.062   5.705  3.2227 -2.4315  0.2223
14578TIP3    H265150   0.047   4.978   5.805 -0.3315 -0.5245 -0.7922
14579TIP3   OH265151   0.637   1.081  14.595 -0.0200 -0.5628  0.5805
14579TIP3    H165152   0.689   1.030  14.657  0.9797 -0.8583 -0.4826
14579TIP3    H265153   0.696   1.096  14.521 -0.3526  1.9333  0.7633
14580TIP3   OH265154   3.318   0.350  15.794  0.0540  0.0137 -0.2247
14580TIP3    H165155   3.305   0.257  15.775  1.2268 -0.3459  0.7199
14580TIP3    H265156   3.240   0.376  15.843  1.8628 -1.6277  3.6355
14581TIP3   OH265157   0.519   5.680  12.678  0.1690 -0.3519 -0.2720
14581TIP3    H165158   0.477   5.629  12.609  0.5713 -1.1647  0.0771
14581TIP3    H265159   0.450   5.737  12.711 -0.7595 -1.8859  0.4952
14582TIP3   OH265160   5.258   2.581   4.549 -0.4446  0.3019 -0.3279
14582TIP3    H165161   5.345   2.621   4.542  0.2327 -0.6801  1.9294
14582TIP3    H265162   5.276   2.487   4.553 -1.7634 -0.0358 -1.8027
14583TIP3   OH265163   6.125   0.075   5.389 -0.4744  0.1853 -0.3665
14583TIP3    H165164   6.031   0.082   5.372 -0.9977 -1.3690  1.6525
14583TIP3    H265165   6.142   0.138   5.459 -0.1572 -0.0573 -0.2240
14584TIP3   OH265166   0.980   2.444  10.628 -0.3600 -0.2597 -0.1317
14584TIP3    H165167   1.011   2.523  10.672  1.0702 -2.4313  2.9149
14584TIP3    H265168   1.034   2.437  10.549  2.6658 -0.5871  1.9056
14585TIP3   OH265169   3.073   3.827   0.126 -0.5105  0.4494  0.1583
14585TIP3    H165170   3.053   3.769   0.053  0.5393 -0.2235  0.3939
14585TIP3    H265171   3.149   3.787   0.169 -0.8135  1.0903  1.3278
14586TIP3   OH265172   3.235   2.899  13.336 -0.1753 -0.3483 -0.1833
14586TIP3    H165173   3.209   2.910  13.245 -0.8578  1.9915  0.2632
14586TIP3    H265174   3.177   2.831  13.369 -1.4292  0.3321 -0.9327
14587TIP3   OH265175   4.302   5.067   1.524  0.1682 -0.2913  0.2790
14587TIP3    H165176   4.273   4.981   1.556  1.2648 -1.2800 -1.3206
14587TIP3    H265177   4.311   5.120   1.604 -0.2739 -1.7364  1.3122
14588TIP3   OH265178   2.467   4.036   3.721 -0.2864  0.7385  0.2340
14588TIP3    H165179   2.446   3.943   3.727 -0.1685  0.6461 -0.7969
14588TIP3    H265180   2.388   4.077   3.688 -0.7385  1.1821  1.7983
14589TIP3   OH265181   2.356   5.859  13.193 -0.1866 -0.0371 -0.0482
14589TIP3    H165182   2.289   5.887  13.256  0.6254  0.1076  0.7535
14589TIP3    H265183   2.333   5.905  13.112 -0.1010  1.2837  0.6740
14590TIP3   OH265184   1.711   0.468   2.679  0.0286  0.1884  0.7259
14590TIP3    H165185   1.804   0.488   2.664  0.1993 -1.1054 -0.0901
14590TIP3    H265186   1.713   0.398   2.746 -0.2487 -1.1474 -0.6312
14591TIP3   OH265187   4.424   2.314  15.079  0.3174 -0.4388 -0.4306
14591TIP3    H165188   4.409   2.225  15.110  1.5617 -0.7469 -0.6730
14591TIP3    H265189   4.518   2.328  15.091  0.8426 -0.5273 -3.8954
14592TIP3   OH265190   1.624   5.177   3.468  0.2709  0.1702  0.0436
14592TIP3    H165191   1.618   5.239   3.396 -0.4349  0.8696  0.6921
14592TIP3    H265192   1.718   5.162   3.479  0.3244 -0.7878 -1.7233
14593TIP3   OH265193   1.814   6.005  14.489  0.0521  0.0703 -0.0929
14593TIP3    H165194   1.898   6.051  14.495 -1.3015  2.8670 -1.4983
14593TIP3    H265195   1.784   5.998  14.579  1.6961 -0.8025  0.4117
14594TIP3   OH265196   3.238   2.942   5.244  0.8544  0.3468 -0.3653
14594TIP3    H165197   3.156   2.946   5.195  1.1450 -0.8076 -0.9602
14594TIP3    H265198   3.307   2.950   5.178  1.2318  2.2391  0.2310
14595TIP3   OH265199   1.991   0.172  15.826 -0.7398 -0.6618 -0.2231
14595TIP3    H165200   2.011   0.086  15.789 -0.7760 -0.2758 -1.1716
14595TIP3    H265201   1.907   0.196  15.786  0.3204  0.7502 -1.6761
14596TIP3   OH265202   0.290   4.305  12.260 -0.8800  0.7326  0.7050
14596TIP3    H165203   0.216   4.360  12.286  1.3218  3.5117  1.4649
14596TIP3    H265204   0.327   4.349  12.183 -0.5535 -1.1127 -0.2127
14597TIP3   OH265205   5.954   3.187  16.556 -0.1295  0.7446  0.2552
14597TIP3    H165206   6.033   3.194  16.610  0.2807  1.2788 -0.4036
14597TIP3    H265207   5.893   3.250  16.595 -1.1395 -1.3897  2.2601
14598TIP3   OH265208   5.347   0.316   2.646 -0.5490 -0.0454 -0.2706
14598TIP3    H165209   5.327   0.238   2.698 -2.3735  0.3274 -0.3636
14598TIP3    H265210   5.293   0.307   2.568  1.2333  0.0210 -1.5446
14599TIP3   OH265211   3.718   1.199   5.159 -0.1862  1.1020  0.2338
14599TIP3    H165212   3.673   1.177   5.077 -0.5396  2.4061  0.0760
14599TIP3    H265213   3.773   1.274   5.137  3.0374 -1.1839  0.1165
14600TIP3   OH265214   4.257   5.273  17.127  0.3282 -0.4672  0.1160
14600TIP3    H165215   4.278   5.306  17.040  1.7417 -0.5142  0.4160
14600TIP3    H265216   4.281   5.181  17.124 -0.3074 -0.6396  0.3317
14601TIP3   OH265217   3.561   1.153   4.953  0.0246  0.1343 -0.4274
14601TIP3    H165218   3.522   1.207   4.883  0.6623 -1.1153 -1.7725
14601TIP3    H265219   3.542   1.063   4.926  1.8007 -0.4109  0.1181
14602TIP3   OH265220   3.588   3.298  14.243  0.3234 -0.6252  0.5901
14602TIP3    H165221   3.504   3.266  14.274 -0.0572  0.8761  1.1684
14602TIP3    H265222   3.566   3.364  14.177  1.0746 -1.1921 -0.2427
14603TIP3   OH265223   4.167   6.409   3.718  0.4582 -0.2351  0.8044
14603TIP3    H165224   4.180   6.361   3.799  0.6214 -1.3581  0.1268
14603TIP3    H265225   4.256   6.426   3.686  0.3930 -2.2256 -0.5301
14604TIP3   OH265226   5.295   3.971   5.679  0.2726 -0.4670  0.8638
14604TIP3    H165227   5.346   3.947   5.757 -0.1359 -1.1851  0.9121
14604TIP3    H265228   5.213   4.006   5.714  1.4394  2.4521  0.8449
14605TIP3   OH265229   0.883   0.465   1.286  0.6241  0.3731  0.0883
14605TIP3    H165230   0.817   0.405   1.319 -0.4753  2.7737  2.4046
14605TIP3    H265231   0.966   0.425   1.311 -0.0550 -0.6679  0.7176
14606TIP3   OH265232   3.532   6.459   5.725  0.1264 -0.4904 -0.4483
14606TIP3    H165233   3.575   6.428   5.645  0.2807 -2.7230  0.4611
14606TIP3    H265234   3.444   6.421   5.721  0.0258 -0.3269  0.2579
14607TIP3   OH265235   2.452   0.765  16.444  0.7599 -0.0932 -0.0596
14607TIP3    H165236   2.521   0.710  16.407 -0.7462 -2.1587  0.1427
14607TIP3    H265237   2.434   0.829  16.375 -0.1291 -2.2394 -1.8618
14608TIP3   OH265238   0.113   2.594   2.718 -0.4284  0.3614  0.1837
14608TIP3    H165239   0.041   2.580   2.779 -0.4679 -1.6182 -0.3133
14608TIP3    H265240   0.090   2.544   2.640  2.1182 -1.4742  0.5340
14609TIP3   OH265241   0.718   2.483  13.573 -0.5275 -0.5211  0.6622
14609TIP3    H165242   0.702   2.569  13.534 -0.4377 -1.5895 -1.8214
14609TIP3    H265243   0.649   2.474  13.640 -1.0966  1.0813  0.3143
14610TIP3   OH265244   3.978   6.697   5.314  0.4519  0.1794  0.2777
14610TIP3    H165245   3.983   6.618   5.261 -1.9825 -0.1391  0.4505
14610TIP3    H265246   4.014   6.672   5.399 -0.0702 -0.6796  0.2502
14611TIP3   OH265247   3.445   4.007  15.476 -0.1138 -0.2996 -0.6008
14611TIP3    H165248   3.492   4.082  15.513 -1.0144  0.5535 -1.1835
14611TIP3    H265249   3.513   3.940  15.464  0.5772  0.2003  0.5045
14612TIP3   OH265250   3.760   6.221  14.265  0.0295  0.1255  0.9984
14612TIP3    H165251   3.673   6.242  14.297 -0.2732  1.1225 -0.4528
14612TIP3    H265252   3.814   6.219  14.344 -1.3138 -0.6036  1.9202
14613TIP3   OH265253   3.145   0.037   4.098  0.5740 -0.3694 -0.1952
14613TIP3    H165254   3.119   0.121   4.137  0.4144 -0.2311 -0.5979
14613TIP3    H265255   3.063  -0.001   4.066  0.8509  0.0626 -1.4587
14614TIP3   OH265256   1.432   4.539  13.013  0.1128  0.2409  0.2886
14614TIP3    H165257   1.519   4.566  13.041 -0.8237  1.5027  2.0012
14614TIP3    H265258   1.429   4.445  13.033  0.7583  0.3727  1.0353
14615TIP3   OH265259   1.491   1.135   1.551  0.3452 -0.2100  0.8247
14615TIP3    H165260   1.402   1.109   1.530  0.8225 -0.5108 -0.8707
14615TIP3    H265261   1.501   1.222   1.511  1.6144 -1.2599 -1.2057
14616TIP3   OH265262   3.636   5.560   5.228  0.2132 -0.2050  0.2669
14616TIP3    H165263   3.665   5.535   5.141  1.2583 -0.8422  0.7896
14616TIP3    H265264   3.702   5.524   5.287 -0.0745  0.8773  1.2738
14617TIP3   OH265265   5.126   5.130  15.849  0.2596 -0.0554  0.1641
14617TIP3    H165266   5.043   5.109  15.806 -0.2654  2.2034  0.0283
14617TIP3    H265267   5.177   5.049  15.842 -0.7415 -0.5134 -2.5088
14618TIP3   OH265268   4.661   4.120  12.367 -0.0100  0.3920 -0.1213
14618TIP3    H165269   4.607   4.199  12.358  1.3923  1.3678 -0.0141
14618TIP3    H265270   4.751   4.151  12.364  0.5639 -1.0679  1.2003
14619TIP3   OH265271   2.413   0.317  15.872 -0.0219 -0.8772  0.3010
14619TIP3    H165272   2.330   0.307  15.919  0.0438 -0.3036  0.5391
14619TIP3    H265273   2.470   0.251  15.910 -0.2362 -0.9902  0.4288
14620TIP3   OH265274   3.142   5.598   1.033  0.0037 -0.0644 -0.2799
14620TIP3    H165275   3.168   5.673   1.088  1.1472 -0.5959 -0.0944
14620TIP3    H265276   3.127   5.636   0.947  0.5166  0.3931 -0.1690
14621TIP3   OH265277   4.896   2.371  11.824 -0.2203 -0.3129  0.2281
14621TIP3    H165278   4.892   2.402  11.733 -1.0997 -0.6533  0.1465
14621TIP3    H265279   4.971   2.417  11.862 -0.9295  1.1719 -0.1659
14622TIP3   OH265280   1.282   2.068  15.913 -0.6586 -0.5376 -0.2676
14622TIP3    H165281   1.192   2.044  15.937 -0.8178  1.2933  1.0509
14622TIP3    H265282   1.331   1.985  15.918 -1.1039 -0.6117  4.5498
14623TIP3   OH265283   0.627   0.592   3.035  0.7150 -0.0822  1.0239
14623TIP3    H165284   0.632   0.602   2.939 -3.2766  0.2943  0.7900
14623TIP3    H265285   0.646   0.500   3.050  0.7576 -0.2841 -0.1779
14624TIP3   OH265286   1.150   0.366   3.399  0.1565 -0.4162  0.3997
14624TIP3    H165287   1.113   0.388   3.485 -1.4362 -2.2259  0.2022
14624TIP3    H265288   1.132   0.444   3.345  0.6924  0.5232  1.5472
14625TIP3   OH265289   5.830   3.054  17.078  0.3075 -0.2765 -0.4272
14625TIP3    H165290   5.913   3.040  17.032  0.1159 -0.6669 -0.6519
14625TIP3    H265291   5.853   3.051  17.171  0.8399  1.3457 -0.4780
14626TIP3   OH265292   6.521   5.284  16.323  0.2637  0.6238  0.7335
14626TIP3    H165293   6.433   5.249  16.338 -0.3695  1.6858 -0.3005
14626TIP3    H265294   6.532   5.351  16.391  0.7106 -0.2625  1.5361
14627TIP3   OH265295   6.643   5.653  16.212  0.3046 -0.0714  0.6744
14627TIP3    H165296   6.602   5.630  16.129  0.5831 -0.8218  0.7458
14627TIP3    H265297   6.736   5.640  16.198  0.5231  1.4631  0.5699
14628TIP3   OH265298   4.680   0.280   0.494  0.4001  0.1092  0.3783
14628TIP3    H165299   4.719   0.368   0.489 -0.8016  0.6426  0.1401
14628TIP3    H265300   4.618   0.286   0.567 -1.5788  0.2428 -1.2692
14629TIP3   OH265301   2.857   2.867  13.261  0.2729  0.4161  0.2937
14629TIP3    H165302   2.946   2.848  13.230  0.3074  1.1280 -0.0420
14629TIP3    H265303   2.857   2.961  13.279 -0.7305  0.6322 -0.7718
14630TIP3   OH265304   5.980   2.953  11.380  0.2967  0.0358 -0.0718
14630TIP3    H165305   5.917   2.881  11.378  1.1200 -0.7241  0.7576
14630TIP3    H265306   6.024   2.948  11.295 -0.7333  0.5492 -0.6388
14631TIP3   OH265307   5.726   3.400   4.838  0.3190 -0.1258  0.4553
14631TIP3    H165308   5.641   3.436   4.862  0.6047 -1.6928  4.2293
14631TIP3    H265309   5.782   3.420   4.913  2.4660 -1.6480 -0.7027
14632TIP3   OH265310   5.954   6.104  12.406  0.0452  0.0790 -0.1781
14632TIP3    H165311   6.025   6.050  12.372  0.6523  0.7310  0.0529
14632TIP3    H265312   5.925   6.155  12.330 -1.2755 -1.3447 -0.6791
14633TIP3   OH265313   2.387   2.815  14.344  0.1927 -0.3625  0.2882
14633TIP3    H165314   2.348   2.830  14.257  0.7104 -0.2840  0.0675
14633TIP3    H265315   2.477   2.846  14.335  0.1107  0.0762  0.9974
14634TIP3   OH265316   6.118   4.027   2.572  0.1877  0.3559  1.0988
14634TIP3    H165317   6.144   4.073   2.492 -2.5049 -0.6871 -0.4383
14634TIP3    H265318   6.137   3.935   2.555 -0.4884  0.1171  1.6280
14635TIP3   OH265319   4.147   1.885   4.238 -0.2528  0.0414  0.7072
14635TIP3    H165320   4.185   1.861   4.322  2.9109  1.0313 -0.3743
14635TIP3    H265321   4.080   1.819   4.221  0.9268 -1.7003  2.7499
14636TIP3   OH265322   1.727   4.681   2.772  0.6785 -0.6353  0.4993
14636TIP3    H165323   1.636   4.709   2.783  1.0486  1.9489 -2.5472
14636TIP3    H265324   1.774   4.725   2.843 -0.0078  0.2319  0.4211
14637TIP3   OH265325   4.151   0.070  16.518  0.0850  0.0294  0.3156
14637TIP3    H165326   4.237   0.029  16.527 -1.1967 -2.8971 -0.2688
14637TIP3    H265327   4.094   0.019  16.576 -2.0300 -0.5004 -2.1260
14638TIP3   OH265328   2.538   3.701   0.430  0.3650 -0.0299  0.0614
14638TIP3    H165329   2.594   3.651   0.370  1.1758 -0.5801  1.2475
14638TIP3    H265330   2.449   3.684   0.399  0.8083  0.5268 -1.6075
14639TIP3   OH265331   5.028   1.232  11.208  0.5024 -0.3462 -0.3980
14639TIP3    H165332   5.010   1.176  11.283  1.9237 -0.7944 -0.3915
14639TIP3    H265333   4.979   1.192  11.136  0.7256 -1.0311 -0.1696
14640TIP3   OH265334   0.397   1.332  10.854  0.0292 -0.0458  0.4937
14640TIP3    H165335   0.423   1.246  10.887  3.0660  0.1319 -1.2164
14640TIP3    H265336   0.464   1.392  10.889 -1.2310  1.4099  0.4805
14641TIP3   OH265337   1.181   1.807  14.477  0.1776 -0.0920 -0.2784
14641TIP3    H165338   1.146   1.859  14.404 -0.3802 -0.1311 -0.0404
14641TIP3    H265339   1.163   1.716  14.453  0.3067 -0.1232 -0.2563
14642TIP3   OH265340   5.263   3.796  14.366 -0.5364  0.5521 -0.0546
14642TIP3    H165341   5.332   3.740  14.330  0.5692  0.5049  2.0363
14642TIP3    H265342   5.310   3.868  14.408 -1.5078 -1.1409  4.2024
14643TIP3   OH265343   4.430   2.593  16.869  0.5602 -0.4409  0.4510
14643TIP3    H165344   4.491   2.654  16.910  1.0940 -0.2322 -0.6160
14643TIP3    H265345   4.485   2.522  16.836  0.3181  0.0493 -1.0547
14644TIP3   OH265346   4.504   0.091   0.414 -0.0382 -0.2549  0.1061
14644TIP3    H165347   4.565   0.165   0.420 -0.1921 -0.2021  1.0510
14644TIP3    H265348   4.441   0.106   0.485 -0.4404 -0.9528 -0.1043
14645TIP3   OH265349   4.207   4.412  14.032  0.2701 -0.2280 -0.3662
14645TIP3    H165350   4.255   4.439  13.954 -1.1005  0.8797 -0.8580
14645TIP3    H265351   4.132   4.363  13.999  0.7352 -1.4646  0.3632
14646TIP3   OH265352   4.564   3.982  15.550 -0.4067 -0.0033 -0.0953
14646TIP3    H165353   4.604   4.032  15.621  1.0227  2.4120 -2.5256
14646TIP3    H265354   4.632   3.921  15.523 -1.8141 -2.7318  2.2016
14647TIP3   OH265355   0.857   4.175  14.468  0.5694  0.3764 -0.3801
14647TIP3    H165356   0.792   4.105  14.467  0.0934  0.7976  0.8416
14647TIP3    H265357   0.905   4.162  14.550 -0.2423  2.1317  0.3964
14648TIP3   OH265358   5.658   0.683  11.686 -0.9293 -0.0034 -0.3945
14648TIP3    H165359   5.649   0.699  11.592 -0.7755 -2.6793 -0.8958
14648TIP3    H265360   5.575   0.714  11.723 -1.1475  0.6941 -1.4350
14649TIP3   OH265361   0.392   6.502   1.335  0.2703 -0.0712 -0.9370
14649TIP3    H165362   0.394   6.476   1.243 -0.4581 -0.8850 -0.7171
14649TIP3    H265363   0.471   6.463   1.373  0.7022  0.4717 -1.2664
14650TIP3   OH265364   0.216   2.388   2.252 -0.3002 -0.6159 -0.3725
14650TIP3    H165365   0.230   2.474   2.212 -3.6287 -0.0397 -0.3737
14650TIP3    H265366   0.194   2.331   2.178  0.2100 -1.1122 -0.1494
14651TIP3   OH265367   6.562   1.278  15.573 -0.0709  0.2485 -0.4274
14651TIP3    H165368   6.531   1.259  15.661 -1.6881 -1.5310 -1.3522
14651TIP3    H265369   6.516   1.357  15.547 -0.7660 -0.0875 -0.2352
14652TIP3   OH265370   1.378   2.450   3.807  0.4889 -0.2541 -0.8260
14652TIP3    H165371   1.368   2.408   3.892 -0.2221  1.3978 -0.0821
14652TIP3    H265372   1.388   2.377   3.745  0.5129 -1.4700  0.5944
14653TIP3   OH265373   5.710   5.140   5.263  0.0050 -0.1667  0.6865
14653TIP3    H165374   5.796   5.180   5.275  0.6610 -1.6329  1.0000
14653TIP3    H265375   5.718   5.091   5.181 -0.7881  0.3543  0.3001
14654TIP3   OH265376   1.778   0.975   1.486  0.1585  0.3558  0.2610
14654TIP3    H165377   1.689   0.943   1.501 -0.0031  0.3080 -0.7750
14654TIP3    H265378   1.782   1.059   1.532  0.2362 -0.6024  2.0579
14655TIP3   OH265379   5.460   2.140  14.137  0.8440  0.2312 -0.6525
14655TIP3    H165380   5.366   2.146  14.154  0.8697  0.6807 -0.6741
14655TIP3    H265381   5.472   2.051  14.103  0.7640 -0.6372  1.5212
14656TIP3   OH265382   5.631   5.180  12.835  0.0309 -0.1552  0.1856
14656TIP3    H165383   5.669   5.267  12.847  0.0495  0.2292 -2.4416
14656TIP3    H265384   5.656   5.132  12.914 -0.8866  2.5204  2.1669
14657TIP3   OH265385   1.247   3.377   6.901  0.8085 -0.3942 -0.0347
14657TIP3    H165386   1.234   3.318   6.827  2.0774 -0.2422 -0.3945
14657TIP3    H265387   1.244   3.465   6.862  0.2432 -0.2635  0.2936
14658TIP3   OH265388   1.482   1.232  12.738  0.0173  0.5626 -0.1014
14658TIP3    H165389   1.543   1.304  12.749 -0.8398  1.1735  0.7492
14658TIP3    H265390   1.422   1.239  12.812  0.5916 -1.7080  0.6371
14659TIP3   OH265391   4.456   0.679   2.783  0.0952 -0.6900 -0.2697
14659TIP3    H165392   4.539   0.675   2.734 -0.2036  1.9920 -1.0542
14659TIP3    H265393   4.480   0.720   2.866 -0.2655 -0.7829 -0.1233
14660TIP3   OH265394   1.622   1.072   1.127 -0.0636 -0.2885 -0.4658
14660TIP3    H165395   1.639   1.114   1.212 -0.3824  0.2446 -0.6659
14660TIP3    H265396   1.697   1.096   1.073 -0.2621  0.0510 -0.5906
14661TIP3   OH265397   4.909   5.725   1.191  1.1317 -0.0579  0.0405
14661TIP3    H165398   4.835   5.686   1.237  0.1723  0.5808 -0.9294
14661TIP3    H265399   4.956   5.651   1.153 -0.8723 -0.3231 -2.0839
14662TIP3   OH265400   2.154   6.083   0.229 -0.1206  0.1039 -0.3795
14662TIP3    H165401   2.122   6.017   0.167 -0.2502 -0.4738  0.2961
14662TIP3    H265402   2.078   6.141   0.243  0.2264  0.8847 -1.5851
14663TIP3   OH265403   2.177   2.493  15.278  0.2338 -0.1769 -0.1740
14663TIP3    H165404   2.174   2.415  15.223  0.3760 -1.4891  1.6304
14663TIP3    H265405   2.086   2.509  15.302  0.0224  1.1491 -1.7988
14664TIP3   OH265406   4.225   2.589  14.876  0.5182  0.4065 -0.3481
14664TIP3    H165407   4.207   2.684  14.876  0.6595  0.4322  0.7434
14664TIP3    H265408   4.230   2.567  14.783 -0.1616  1.3536 -0.6257
14665TIP3   OH265409   0.026   1.727   3.287  0.1408  0.4212 -0.2212
14665TIP3    H165410   0.004   1.679   3.367  1.3909  1.4041  0.7048
14665TIP3    H265411  -0.009   1.671   3.217 -0.1276 -0.9081  0.9390
14666TIP3   OH265412   4.530   3.895  13.449 -0.1211 -0.1273  0.2772
14666TIP3    H165413   4.520   3.954  13.374  2.0370 -0.0562  0.0191
14666TIP3    H265414   4.484   3.939  13.521 -2.0851 -0.1172 -0.9270
14667TIP3   OH265415   4.155   1.171   3.802  0.0719  0.1106  0.7414
14667TIP3    H165416   4.070   1.210   3.825 -0.7018 -0.3986 -1.1464
14667TIP3    H265417   4.213   1.245   3.789  0.0569  0.4539  2.5333
14668TIP3   OH265418   2.071   6.193   5.037  0.4089  0.0682 -0.2016
14668TIP3    H165419   2.101   6.233   4.956 -1.7843 -0.8623 -1.5236
14668TIP3    H265420   2.110   6.105   5.037 -1.9111 -1.0033 -1.7310
14669TIP3   OH265421   5.912   2.143  12.209  0.4175  0.0825 -0.0323
14669TIP3    H165422   5.935   2.134  12.302  5.0593  0.3115 -1.0865
14669TIP3    H265423   5.963   2.218  12.179 -0.9640 -0.0651 -2.8790
14670TIP3   OH265424   6.410   0.213  12.289 -0.0597 -0.1058  0.2620
14670TIP3    H165425   6.487   0.204  12.233 -0.7951  1.0479 -0.9394
14670TIP3    H265426   6.359   0.133  12.274  0.0334 -0.0659 -0.2530
14671TIP3   OH265427   5.813   3.250   2.383  0.4718  0.0397  0.1870
14671TIP3    H165428   5.828   3.179   2.445  0.8981  1.4080  1.6777
14671TIP3    H265429   5.864   3.226   2.306  0.7295 -1.1789  0.7301
14672TIP3   OH265430   6.114   6.168  11.522  0.4615 -0.5945 -0.3736
14672TIP3    H165431   6.121   6.183  11.427  1.3151  0.2184 -0.1980
14672TIP3    H265432   6.139   6.252  11.560 -1.8820 -0.2886  0.5484
14673TIP3   OH265433   5.013   2.572   4.892 -0.2541 -0.0429  0.0833
14673TIP3    H165434   5.046   2.501   4.836  0.2862  0.7717 -0.6391
14673TIP3    H265435   5.083   2.586   4.957 -0.8817 -0.9879  0.9771
14674TIP3   OH265436   6.403   5.564   1.611  0.6915  0.2287 -0.4378
14674TIP3    H165437   6.361   5.613   1.681  2.6923  2.9725 -1.0912
14674TIP3    H265438   6.343   5.571   1.537 -0.6175 -1.2381  0.4526
14675TIP3   OH265439   0.167   3.173   1.044 -0.3522 -0.2966 -0.3132
14675TIP3    H165440   0.186   3.085   1.076 -0.0308  0.2055  0.9134
14675TIP3    H265441   0.104   3.209   1.106  2.1919  1.6144  1.3074
14676TIP3   OH265442   0.923   4.274   0.092  0.4413 -0.0177 -0.1599
14676TIP3    H165443   0.923   4.349   0.033  0.0341 -0.0677 -0.2247
14676TIP3    H265444   0.861   4.298   0.161  1.5875  0.4165  0.7258
14677TIP3   OH265445   0.139   0.221  14.709 -0.4064  0.2283  0.2148
14677TIP3    H165446   0.219   0.270  14.695 -0.9228  0.9148 -0.3708
14677TIP3    H265447   0.166   0.143  14.758  0.5552  0.6246  0.3114
14678TIP3   OH265448   3.327   5.489  16.476 -0.2248 -0.0157  0.3217
14678TIP3    H165449   3.389   5.417  16.492  0.1741 -0.0296 -1.2081
14678TIP3    H265450   3.289   5.508  16.562  0.9321 -0.9030  1.0376
14679TIP3   OH265451   1.187   1.015   1.969 -0.4006  0.2358  0.1937
14679TIP3    H165452   1.122   1.020   1.899  0.2129 -2.3933 -0.5953
14679TIP3    H265453   1.135   1.001   2.048 -0.9442  0.9384 -0.0270
14680TIP3   OH265454   5.795   5.416   4.107  0.5811  0.3859  0.0356
14680TIP3    H165455   5.748   5.361   4.169 -1.4383  1.1171 -0.7819
14680TIP3    H265456   5.877   5.370   4.091  0.7295 -0.2619  2.5260
14681TIP3   OH265457   4.382   1.301  14.638  0.5788  0.3535  0.2923
14681TIP3    H165458   4.426   1.255  14.567  0.8670  1.8010 -0.4921
14681TIP3    H265459   4.443   1.296  14.712  0.3718 -0.9654  0.3884
14682TIP3   OH265460   6.372   2.065  11.408  0.2519 -0.2008 -0.4921
14682TIP3    H165461   6.339   2.143  11.364  0.6384 -0.1444 -0.6873
14682TIP3    H265462   6.297   2.031  11.456  0.2897  0.7778  0.2879
14683TIP3   OH265463   5.733   6.435   3.664 -0.3313 -0.4669  0.3989
14683TIP3    H165464   5.704   6.442   3.755 -1.8740  1.3604 -0.2113
14683TIP3    H265465   5.661   6.471   3.613  0.0184 -2.5384 -1.6563
14684TIP3   OH265466   4.547   1.857  15.152 -0.5299  0.3533 -0.3855
14684TIP3    H165467   4.553   1.867  15.057 -2.5367 -1.4721 -0.7371
14684TIP3    H265468   4.476   1.915  15.177 -2.3740 -1.8106 -0.4989
14685TIP3   OH265469   5.158   3.560   3.462  0.1302 -0.1300 -0.1712
14685TIP3    H165470   5.112   3.613   3.397 -0.0399 -0.4276 -0.2947
14685TIP3    H265471   5.091   3.500   3.496  0.3655 -0.3928 -0.1689
14686TIP3   OH265472   3.556   3.677  10.547  0.1494 -0.3278  0.0273
14686TIP3    H165473   3.584   3.615  10.614 -1.3422 -0.1844  0.8124
14686TIP3    H265474   3.494   3.628  10.493 -0.6826  0.3298  0.3703
14687TIP3   OH265475   0.839   0.465  12.894  0.2199  0.2844 -0.2634
14687TIP3    H165476   0.899   0.448  12.822  0.5171 -0.5602  0.1744
14687TIP3    H265477   0.892   0.511  12.959 -0.6918  3.3954 -1.6218
14688TIP3   OH265478   5.090   5.122   4.675 -0.6905  0.0448  0.3028
14688TIP3    H165479   5.079   5.138   4.581 -0.7586  1.2846  0.5272
14688TIP3    H265480   5.035   5.046   4.693 -0.6770 -0.1969 -0.6609
14689TIP3   OH265481   1.363   6.223  13.406  0.1323  0.3358  0.8476
14689TIP3    H165482   1.328   6.310  13.386 -0.5496  0.0487  0.7941
14689TIP3    H265483   1.385   6.186  13.321  1.6006  0.9432  0.9464
14690TIP3   OH265484   0.188   6.457   3.906  0.0466  0.0292  0.3908
14690TIP3    H165485   0.200   6.364   3.885 -1.2991  0.0412 -0.4880
14690TIP3    H265486   0.128   6.458   3.981  1.3755  0.1469  1.4755
14691TIP3   OH265487   4.349   6.779  13.920  0.4673 -0.1306  0.1804
14691TIP3    H165488   4.346   6.828  13.838  1.9790 -1.0687 -0.4427
14691TIP3    H265489   4.280   6.819  13.974  1.7433  2.7959 -0.2367
14692TIP3   OH265490   1.691   5.512  12.995  0.4661  0.3105  0.0244
14692TIP3    H165491   1.683   5.427  12.952  1.1462  0.7668 -1.0245
14692TIP3    H265492   1.782   5.536  12.982  0.2833  1.1819  0.3574
14693TIP3   OH265493   0.807   3.330   3.201  0.2089 -0.0724 -0.2292
14693TIP3    H165494   0.776   3.401   3.145  2.1789 -0.1224 -1.4096
14693TIP3    H265495   0.880   3.367   3.250 -0.3604 -0.5583  1.0003
14694TIP3   OH265496   4.100   6.675   2.088  0.1106 -0.2490 -0.5272
14694TIP3    H165497   4.016   6.694   2.131 -1.0652 -0.5176 -2.6358
14694TIP3    H265498   4.154   6.638   2.157 -1.4145  0.1853  0.9463
14695TIP3   OH265499   6.532   2.690  11.167 -0.4750 -0.0550  0.5580
14695TIP3    H165500   6.528   2.672  11.261 -0.1794 -1.1608  0.3644
14695TIP3    H265501   6.566   2.610  11.128  2.0018  1.3114 -0.2228
14696TIP3   OH265502   4.132   4.327  16.984 -0.0241  0.6073  0.1199
14696TIP3    H165503   4.172   4.240  16.992  2.9794  1.9966  0.5889
14696TIP3    H265504   4.086   4.339  17.068 -1.0212 -0.7516 -0.1938
14697TIP3   OH265505   1.082   1.038   3.904  0.1577  0.3938  0.0450
14697TIP3    H165506   1.096   0.957   3.952  1.1063  0.5545  0.0553
14697TIP3    H265507   1.091   1.107   3.970 -1.3839  0.4702  0.1770
14698TIP3   OH265508   3.643   2.333   4.001  0.2878  0.0116  0.4662
14698TIP3    H165509   3.721   2.372   3.961  0.9747  0.2565  2.0266
14698TIP3    H265510   3.664   2.327   4.094 -1.9590  1.0518  1.0733
14699TIP3   OH265511   6.778   1.891   1.617  0.2179  0.0125  0.1483
14699TIP3    H165512   6.751   1.873   1.527  0.9103 -1.8775  0.2940
14699TIP3    H265513   6.853   1.833   1.632  1.6229  2.0447  1.1708
14700TIP3   OH265514   1.126   1.773  13.548  0.3121  0.2849  0.5387
14700TIP3    H165515   1.142   1.698  13.491  1.5553  0.5048  0.5732
14700TIP3    H265516   1.066   1.829  13.499 -1.1113 -1.0004  0.7590
14701TIP3   OH265517   4.201   4.047   5.607  0.3667  0.3696  0.4239
14701TIP3    H165518   4.241   4.073   5.524 -2.2155 -0.1951 -1.0584
14701TIP3    H265519   4.133   4.113   5.622  0.5261  0.2123  1.8798
14702TIP3   OH265520   1.290   1.768   0.389 -0.1320 -0.2666  0.9863
14702TIP3    H165521   1.356   1.811   0.443  0.9410 -0.5157 -0.0899
14702TIP3    H265522   1.215   1.827   0.390  0.6825  0.7802  0.9732
14703TIP3   OH265523   1.217   0.446  15.795  0.3565 -0.6498 -0.5556
14703TIP3    H165524   1.214   0.372  15.734 -1.6597 -1.4666  0.4827
14703TIP3    H265525   1.260   0.411  15.873 -0.2969 -0.6658 -0.1913
14704TIP3   OH265526   1.907   6.227   4.063 -0.3162  0.3740  0.1379
14704TIP3    H165527   1.824   6.274   4.053 -0.0120  0.7914 -0.4579
14704TIP3    H265528   1.960   6.255   3.988  0.3172  0.0128  0.4434
14705TIP3   OH265529   5.720   3.517  16.418 -0.3327  0.2040 -0.1444
14705TIP3    H165530   5.796   3.487  16.368 -1.5976 -1.5206 -1.1193
14705TIP3    H265531   5.730   3.612  16.425  0.5665  0.3083 -2.5312
14706TIP3   OH265532   4.814   0.664  15.005 -0.2663  0.6813 -0.7354
14706TIP3    H165533   4.823   0.570  14.991  0.0687  0.7283 -0.8446
14706TIP3    H265534   4.756   0.672  15.081  1.1425  0.3401  0.4194
14707TIP3   OH265535   6.486   3.979   5.948 -0.6070 -0.3200  0.3918
14707TIP3    H165536   6.479   3.938   6.034  0.1650 -0.0095  0.6040
14707TIP3    H265537   6.396   4.006   5.928 -0.4286  1.9189  2.2772
14708TIP3   OH265538   2.262   0.277  14.359 -0.0119  0.1772 -0.1484
14708TIP3    H165539   2.227   0.209  14.301  0.2846 -1.5747  1.6454
14708TIP3    H265540   2.356   0.272  14.347  0.1533 -1.1310  1.4112
14709TIP3   OH265541   1.671   2.174  16.197 -0.0563 -0.0765 -0.3230
14709TIP3    H165542   1.594   2.229  16.183 -1.4558 -1.4081  1.9930
14709TIP3    H265543   1.643   2.086  16.170  0.4231 -0.6882  1.1151
14710TIP3   OH265544   2.367   0.129  12.839  0.6074  0.0729  0.3941
14710TIP3    H165545   2.384   0.216  12.874  2.4932 -0.6818  1.4350
14710TIP3    H265546   2.417   0.070  12.896 -1.5976 -1.8090  0.4388
14711TIP3   OH265547   0.799   5.851  12.627 -0.2562 -0.1133 -0.8645
14711TIP3    H165548   0.777   5.921  12.688  0.0600 -1.5514  0.9423
14711TIP3    H265549   0.714   5.816  12.599 -0.4114 -2.0848  1.9060
14712TIP3   OH265550   0.368   2.479  16.995 -0.3770 -0.1996 -0.0238
14712TIP3    H165551   0.341   2.547  16.933  2.0386  0.5708 -0.2865
14712TIP3    H265552   0.304   2.409  16.984 -1.8751  1.2904 -1.0298
14713TIP3   OH265553   4.432   4.153   4.088 -0.6063  0.1127  0.3917
14713TIP3    H165554   4.502   4.203   4.047  0.2808 -0.9217  0.6025
14713TIP3    H265555   4.356   4.167   4.033  0.0026  0.5488 -0.3385
14714TIP3   OH265556   5.935   5.123  16.282 -0.6325  0.2383 -0.7001
14714TIP3    H165557   6.014   5.165  16.316  0.6703 -1.3111 -1.7893
14714TIP3    H265558   5.863   5.178  16.315  0.9593  2.6126 -1.0837
14715TIP3   OH265559   1.803   2.216  11.469  0.6133  0.2063 -0.5482
14715TIP3    H165560   1.896   2.216  11.493  0.8938 -0.2256 -1.5919
14715TIP3    H265561   1.773   2.128  11.488  0.4173  0.3430 -0.2194
14716TIP3   OH265562   6.428   1.073  16.322 -0.4008  0.0486  0.3888
14716TIP3    H165563   6.410   1.136  16.252  0.9442 -0.2551 -0.2655
14716TIP3    H265564   6.351   1.018  16.325  0.3998 -1.3210 -2.4011
14717TIP3   OH265565   6.332   5.417  14.265 -0.0311 -0.3912  0.4299
14717TIP3    H165566   6.300   5.497  14.225 -0.1757 -0.3674  0.5923
14717TIP3    H265567   6.384   5.446  14.340 -1.2586 -0.4964  1.3267
14718TIP3   OH265568   1.147   3.245  10.500  0.4745 -0.3648  0.0127
14718TIP3    H165569   1.150   3.163  10.549  1.9960  0.1020  0.7224
14718TIP3    H265570   1.210   3.302  10.544 -1.6180  1.6984  0.4195
14719TIP3   OH265571   4.111   2.685  14.055  0.1253  0.8798 -0.0981
14719TIP3    H165572   4.165   2.750  14.097  0.6669  1.9425 -2.3592
14719TIP3    H265573   4.045   2.735  14.007  0.1161 -0.2194 -1.2912
14720TIP3   OH265574   6.280   3.992   3.062 -0.0216 -0.0425 -0.3555
14720TIP3    H165575   6.266   3.914   3.115 -0.6382  0.8657  0.8550
14720TIP3    H265576   6.233   4.061   3.108 -0.1884  0.8723 -1.8575
14721TIP3   OH265577   3.821   3.148  11.916 -0.4264  0.5620  0.3146
14721TIP3    H165578   3.887   3.099  11.966 -0.3762 -0.0541 -0.3521
14721TIP3    H265579   3.803   3.225  11.970  0.8921  0.7654  0.4819
14722TIP3   OH265580   6.261   2.739   1.038  0.1813 -0.3673  0.2178
14722TIP3    H165581   6.252   2.714   0.945  0.0495 -0.9849  0.3909
14722TIP3    H265582   6.315   2.670   1.076 -0.5130 -0.5993  0.7947
14723TIP3   OH265583   6.082   4.415   2.897  0.2054 -0.3313 -0.2790
14723TIP3    H165584   6.127   4.481   2.950  1.9638 -1.1850 -0.6548
14723TIP3    H265585   6.103   4.439   2.807  0.3690 -1.0358 -0.4354
14724TIP3   OH265586   6.577   1.337   0.997 -0.6118 -0.2064 -0.2356
14724TIP3    H165587   6.549   1.372   0.913 -0.4618 -0.2520 -0.3031
14724TIP3    H265588   6.521   1.260   1.011  0.6632 -1.3327 -1.1844
14725TIP3   OH265589   3.350   5.247   4.436  0.1325 -0.4502  0.0107
14725TIP3    H165590   3.333   5.341   4.426 -1.5633 -0.6622  0.8626
14725TIP3    H265591   3.416   5.228   4.369 -0.5256  1.0694 -1.0961
14726TIP3   OH265592   2.726   6.536   4.336  0.0757 -0.0331 -0.0642
14726TIP3    H165593   2.747   6.469   4.271  0.5141 -0.3280  0.3670
14726TIP3    H265594   2.800   6.597   4.332 -0.1388  0.2152 -0.1920
14727TIP3   OH265595   4.541   1.112  13.169  0.3679  0.3465  0.1591
14727TIP3    H165596   4.573   1.069  13.248  0.0129 -0.3789 -0.0875
14727TIP3    H265597   4.575   1.060  13.097 -0.7650 -0.0256 -0.1217
14728TIP3   OH265598   3.831   2.165   5.409 -0.4629  0.0304 -0.1168
14728TIP3    H165599   3.798   2.106   5.341  1.5537  1.0024 -2.0063
14728TIP3    H265600   3.758   2.224   5.427 -2.1132 -2.3089  0.9750
14729TIP3   OH265601   1.241   0.086  11.914  0.1219 -0.8326 -0.0864
14729TIP3    H165602   1.167   0.109  11.970  0.4493 -1.5273  0.6364
14729TIP3    H265603   1.311   0.145  11.942 -0.2265 -0.0121 -0.9333
14730TIP3   OH265604   5.175   6.283   2.719 -0.4399  0.1709  0.2699
14730TIP3    H165605   5.205   6.292   2.810 -0.5327 -2.7403  0.6588
14730TIP3    H265606   5.080   6.290   2.725 -0.4297  0.2343  0.3684
14731TIP3   OH265607   6.163   5.375  13.909 -0.1582 -0.1700 -0.3369
14731TIP3    H165608   6.077   5.356  13.948  0.0371 -2.2063 -0.8445
14731TIP3    H265609   6.219   5.303  13.938  0.7063 -0.2452 -2.1340
14732TIP3   OH265610   2.333   5.094  14.375  0.1709 -0.1725  0.1806
14732TIP3    H165611   2.341   5.069  14.467  0.0905 -1.0113 -0.0410
14732TIP3    H265612   2.266   5.163  14.375  0.3795  0.0343  0.7820
14733TIP3   OH265613   0.571   2.041   5.851 -0.2557  0.1655 -0.2777
14733TIP3    H165614   0.593   1.996   5.932 -0.6555  2.5484  1.2058
14733TIP3    H265615   0.485   2.008   5.827  0.2398 -1.1906 -0.2360
14734TIP3   OH265616   6.297   5.631   0.409  0.7596  0.0426  0.0213
14734TIP3    H165617   6.230   5.604   0.345  0.8206 -0.6112  0.2270
14734TIP3    H265618   6.329   5.715   0.376 -1.7298  1.4809  1.1070
14735TIP3   OH265619   1.794   5.178   5.425  0.3568  0.2499 -0.0026
14735TIP3    H165620   1.827   5.246   5.366 -1.5666  0.2673 -1.0839
14735TIP3    H265621   1.779   5.224   5.507 -1.7865  1.3577 -0.9896
14736TIP3   OH265622   1.638   5.567  16.108 -0.1160 -0.2394  0.7975
14736TIP3    H165623   1.709   5.631  16.097 -0.2270 -0.1787  0.4241
14736TIP3    H265624   1.656   5.500  16.043 -1.7996  1.0487 -1.0577
14737TIP3   OH265625   0.487   0.055  14.956 -0.3100 -0.2560 -0.1683
14737TIP3    H165626   0.485   0.025  14.865  0.8717 -0.3680 -0.1611
14737TIP3    H265627   0.522   0.143  14.951 -1.3145  0.1672  0.0790
14738TIP3   OH265628   5.293   0.957   4.643 -0.4410  0.7000  0.6753
14738TIP3    H165629   5.302   0.897   4.717 -0.3902 -0.1805 -0.0238
14738TIP3    H265630   5.229   0.914   4.586 -1.0239  1.7195  0.5471
14739TIP3   OH265631   4.616   3.624  14.572  0.0746 -0.1295  0.0164
14739TIP3    H165632   4.678   3.684  14.613 -0.5619  1.1399 -0.8466
14739TIP3    H265633   4.669   3.577  14.506  0.3304  0.2486 -0.0490
14740TIP3   OH265634   4.568   1.023   0.005  0.5272 -0.0090  0.0259
14740TIP3    H165635   4.537   1.064  -0.076  0.2476  0.9046  0.5906
14740TIP3    H265636   4.530   0.935   0.003 -0.4709  0.4191 -0.2521
14741TIP3   OH265637   1.193   4.311  14.927 -0.2383 -0.3806  0.3092
14741TIP3    H165638   1.239   4.356  14.856 -0.5433 -1.6258 -0.6763
14741TIP3    H265639   1.248   4.236  14.948 -0.6076 -0.5178  0.7946
14742TIP3   OH265640   5.621   4.737  13.940 -0.1834  0.1451  0.8205
14742TIP3    H165641   5.527   4.722  13.949 -0.5109  1.1957 -0.5490
14742TIP3    H265642   5.639   4.812  13.996  0.4246 -1.8597  3.3975
14743TIP3   OH265643   0.320   2.392   4.831  0.1595 -0.1040  0.4479
14743TIP3    H165644   0.377   2.316   4.841  2.0728  1.4684  1.8734
14743TIP3    H265645   0.375   2.457   4.787 -1.5189  0.4083 -0.9489
14744TIP3   OH265646   6.521   1.418  12.644 -0.1363 -0.0820  0.2272
14744TIP3    H165647   6.516   1.420  12.549 -0.7034 -0.5477  0.2450
14744TIP3    H265648   6.505   1.508  12.671  0.6336  0.1749 -0.1397
14745TIP3   OH265649   1.151   2.150   5.195 -0.0607 -0.4025  0.0218
14745TIP3    H165650   1.238   2.189   5.206 -0.4703  0.5628 -0.0988
14745TIP3    H265651   1.158   2.100   5.113  0.0184  0.7168 -0.6692
14746TIP3   OH265652   3.750   0.036  13.837  0.3867  0.2058  0.2581
14746TIP3    H165653   3.787   0.042  13.749  1.4246  0.0922  0.6842
14746TIP3    H265654   3.802   0.096  13.890 -0.9448  1.1205  0.5781
14747TIP3   OH265655   3.891   1.672   2.979  0.6549 -0.0868 -0.3071
14747TIP3    H165656   3.812   1.722   2.999  1.4294  0.8822  0.3033
14747TIP3    H265657   3.947   1.733   2.932  1.4719 -0.4757  0.1570
14748TIP3   OH265658   6.451   3.319  13.146  0.6693  0.1733  0.6044
14748TIP3    H165659   6.384   3.251  13.138 -1.0785  1.6380  2.2076
14748TIP3    H265660   6.448   3.366  13.062 -0.1811  0.1090  0.5973
14749TIP3   OH265661   1.017   5.243  13.024  0.0513  0.0562 -0.0275
14749TIP3    H165662   0.943   5.193  12.989 -0.3492  1.1837 -0.8043
14749TIP3    H265663   1.081   5.176  13.049 -0.4094 -0.8360 -1.1974
14750TIP3   OH265664   1.007   6.001   3.422  0.5813  0.5287 -0.0902
14750TIP3    H165665   1.079   5.940   3.433 -0.8117 -0.5931  3.5997
14750TIP3    H265666   0.950   5.960   3.357  0.9149 -0.8992  0.4996
14751TIP3   OH265667   2.379   2.364   5.907  0.9036 -0.4609  0.2672
14751TIP3    H165668   2.474   2.374   5.903  0.8716  0.3350  1.1198
14751TIP3    H265669   2.359   2.363   6.001  0.3035 -3.0718  0.1406
14752TIP3   OH265670   1.330   4.487  11.326 -0.2324 -0.0846 -0.0578
14752TIP3    H165671   1.290   4.475  11.413 -3.2802  1.8274 -1.1021
14752TIP3    H265672   1.384   4.565  11.336 -1.1402  0.5552 -0.0177
14753TIP3   OH265673   2.066   5.221   1.410  0.2347  0.0428 -0.4899
14753TIP3    H165674   2.059   5.316   1.401 -0.6960 -0.0422 -0.6681
14753TIP3    H265675   2.153   5.207   1.448  0.4320  0.9542 -0.5966
14754TIP3   OH265676   3.962   1.850   2.215  0.6666 -0.7786  0.5018
14754TIP3    H165677   3.918   1.874   2.296  0.7608 -0.5541  0.4885
14754TIP3    H265678   4.040   1.802   2.243  0.4109 -1.1792  0.5258
14755TIP3   OH265679   2.271   2.607   5.352 -0.4219  0.1673  0.7242
14755TIP3    H165680   2.224   2.524   5.359 -1.2958  0.4682 -1.4474
14755TIP3    H265681   2.231   2.652   5.278  1.1306  1.8419  0.8638
14756TIP3   OH265682   4.447   0.143   3.343  0.7115  0.4548  0.3081
14756TIP3    H165683   4.402   0.059   3.355 -1.0567  1.1552 -1.1279
14756TIP3    H265684   4.527   0.121   3.296  0.1921 -0.4369 -0.1752
14757TIP3   OH265685   4.440   2.640   0.813 -0.1398 -0.5583  0.2259
14757TIP3    H165686   4.384   2.581   0.863 -2.0041  0.3178 -0.7717
14757TIP3    H265687   4.379   2.701   0.771  1.6346  0.9829 -0.1653
14758TIP3   OH265688   0.425   1.250  11.833 -0.2864  0.0208  0.1734
14758TIP3    H165689   0.428   1.218  11.743 -2.5740 -1.0490  0.4310
14758TIP3    H265690   0.510   1.227  11.871 -0.3408 -1.9843 -0.9035
14759TIP3   OH265691   3.168   1.114  16.550  0.2372  0.0121 -0.1854
14759TIP3    H165692   3.104   1.081  16.613  1.3373 -1.5837  0.1379
14759TIP3    H265693   3.115   1.161  16.485 -1.0696  0.2269  1.0063
14760TIP3   OH265694   2.815   4.017  16.854 -0.1903 -0.6717  0.3278
14760TIP3    H165695   2.807   4.072  16.776 -1.9899  0.2469  1.1301
14760TIP3    H265696   2.735   3.963  16.854  0.2298 -1.3096  1.0475
14761TIP3   OH265697   4.812   1.919   2.570  0.3254  0.2040  0.2402
14761TIP3    H165698   4.739   1.899   2.512 -0.9421  0.2638  1.7547
14761TIP3    H265699   4.888   1.881   2.528 -0.8739 -1.4487 -0.4962
14762TIP3   OH265700   0.651   4.507   5.862 -0.4648  0.2645 -0.4350
14762TIP3    H165701   0.581   4.461   5.815  0.0636  0.5639 -1.5438
14762TIP3    H265702   0.606   4.579   5.906 -0.6641  1.3416 -2.3546
14763TIP3   OH265703   0.300   0.048  15.163  0.7480  0.0611 -0.1384
14763TIP3    H165704   0.369   0.111  15.141  1.1293 -0.8302 -1.5855
14763TIP3    H265705   0.220   0.101  15.170  1.0152  0.6947 -1.6041
14764TIP3   OH265706   2.740   2.697  16.021  0.0581 -0.1953  0.0601
14764TIP3    H165707   2.655   2.656  16.038  0.5064 -0.3167  2.1822
14764TIP3    H265708   2.721   2.791  16.020 -0.2609 -0.2650 -0.4574
14765TIP3   OH265709   5.924   4.259   1.542  0.1773  0.4057 -0.5807
14765TIP3    H165710   5.833   4.289   1.540  0.2587  0.5433 -3.0244
14765TIP3    H265711   5.975   4.339   1.554  0.0303  0.4223 -0.0392
14766TIP3   OH265712   0.242   1.026  14.656 -0.7151 -0.0353  0.6876
14766TIP3    H165713   0.291   1.041  14.736  1.4565  1.0326 -0.7805
14766TIP3    H265714   0.155   1.062  14.674  0.0955  1.2405  2.1702
14767TIP3   OH265715   1.967   5.182   2.365 -0.0461  0.5441  0.6386
14767TIP3    H165716   1.957   5.252   2.301 -2.4732 -0.6869 -0.3946
14767TIP3    H265717   1.948   5.102   2.315 -1.8240 -0.4481  2.8323
14768TIP3   OH265718   2.090   1.553  14.428  0.3707 -0.6021  0.4291
14768TIP3    H165719   2.072   1.602  14.508 -0.7157 -1.0713  0.4825
14768TIP3    H265720   2.018   1.490  14.422  0.5291 -0.6679 -0.8368
14769TIP3   OH265721   2.714   1.219  10.933  0.3364  0.3344 -0.3782
14769TIP3    H165722   2.751   1.258  10.853  1.9973  1.1438  0.7577
14769TIP3    H265723   2.651   1.154  10.901  3.9708 -2.3507 -2.4894
14770TIP3   OH265724   4.480   3.315  14.644  0.0237  0.0651  0.0042
14770TIP3    H165725   4.389   3.301  14.616  0.0186 -1.6395  0.7918
14770TIP3    H265726   4.477   3.309  14.739  0.9604  0.0442  0.0367
14771TIP3   OH265727   6.515   2.245  11.544 -0.2296 -0.4100 -0.4335
14771TIP3    H165728   6.601   2.224  11.581 -0.2564 -1.6961 -1.0752
14771TIP3    H265729   6.480   2.161  11.515 -0.8501  0.3879 -2.0422
14772TIP3   OH265730   0.273   1.618   2.315  0.0885 -0.5491  0.3074
14772TIP3    H165731   0.229   1.564   2.250  0.3958 -0.2338 -0.1671
14772TIP3    H265732   0.217   1.614   2.392 -1.2847  0.6344 -0.6053
14773TIP3   OH265733   3.112   0.615  12.311 -0.3439  0.9858 -0.0487
14773TIP3    H165734   3.147   0.677  12.374  1.5839  0.5078 -0.6234
14773TIP3    H265735   3.049   0.563  12.361 -0.8938  2.4381  0.7817
14774TIP3   OH265736   4.445   5.777   5.580  0.2851 -0.1171  0.6869
14774TIP3    H165737   4.493   5.770   5.663  0.7314  0.2696  0.4632
14774TIP3    H265738   4.373   5.837   5.600  1.0400  0.8743  0.5103
14775TIP3   OH265739   1.829   5.306  13.715 -0.2005  0.6966 -0.0325
14775TIP3    H165740   1.747   5.258  13.711 -1.3210  2.5025  0.5061
14775TIP3    H265741   1.897   5.238  13.721 -1.7520 -0.7813  1.1634
14776TIP3   OH265742   1.775   3.263   4.389  0.4246  0.5527 -0.0281
14776TIP3    H165743   1.715   3.337   4.382 -0.5688 -0.4029 -2.3060
14776TIP3    H265744   1.722   3.193   4.427  1.3679  0.9818  2.1451
14777TIP3   OH265745   6.131   1.468   5.268  0.2990  0.2058 -0.4285
14777TIP3    H165746   6.205   1.410   5.250  0.4385 -0.0583  0.9246
14777TIP3    H265747   6.167   1.535   5.326 -0.9890 -1.1392  2.0162
14778TIP3   OH265748   1.956   5.570  12.946 -0.4204  0.2087  0.0814
14778TIP3    H165749   2.026   5.631  12.922 -0.4410 -0.0500 -0.6516
14778TIP3    H265750   2.002   5.487  12.963 -0.2272  0.7887  2.5194
14779TIP3   OH265751   4.933   6.199   3.267 -0.3030  0.0196  0.1857
14779TIP3    H165752   4.995   6.234   3.332 -1.1205  1.8125  0.0157
14779TIP3    H265753   4.962   6.236   3.184 -0.8052 -0.2218 -0.0974
14780TIP3   OH265754   2.608   2.985  11.530 -0.8488  0.3916  0.1575
14780TIP3    H165755   2.692   2.991  11.576 -0.2627  0.4028 -0.9109
14780TIP3    H265756   2.627   2.934  11.452 -1.5846  1.3773 -0.6808
14781TIP3   OH265757   5.035   5.506  14.600  0.2223 -0.2612  0.1200
14781TIP3    H165758   4.993   5.559  14.668 -0.8688  0.6475 -1.2338
14781TIP3    H265759   5.126   5.536  14.599  0.4898 -0.9277  1.7788
14782TIP3   OH265760   6.411   4.499  14.906 -0.9667  0.1422 -0.0472
14782TIP3    H165761   6.464   4.574  14.932  1.4825 -1.1464 -1.1977
14782TIP3    H265762   6.468   4.423  14.919 -2.3360 -1.2376 -1.7765
14783TIP3   OH265763   6.290   2.149  17.136  0.0061  0.7521  0.1069
14783TIP3    H165764   6.335   2.066  17.149 -1.1086 -0.2355 -2.0426
14783TIP3    H265765   6.255   2.171  17.223 -0.3935 -1.4546  0.5460
14784TIP3   OH265766   4.369   1.773  11.207 -0.1833  0.5699 -0.0172
14784TIP3    H165767   4.373   1.722  11.289 -0.7482 -0.7100 -0.7641
14784TIP3    H265768   4.302   1.729  11.155  0.5935  1.0151 -1.4191
14785TIP3   OH265769   6.781   0.521  14.122  0.4448  0.8515 -0.0145
14785TIP3    H165770   6.847   0.522  14.052 -0.0817  0.0852 -0.5199
14785TIP3    H265771   6.713   0.581  14.091 -0.9421 -1.3388 -1.2788
14786TIP3   OH265772   5.243   4.460  14.627 -0.1816 -0.3066  0.8182
14786TIP3    H165773   5.308   4.527  14.644 -0.5562 -0.1835  1.7552
14786TIP3    H265774   5.295   4.384  14.598  0.3107  0.0654  0.7146
14787TIP3   OH265775   4.219   4.394  10.674 -0.3516  0.2945  0.3798
14787TIP3    H165776   4.194   4.329  10.739 -1.5161 -0.1239 -0.4676
14787TIP3    H265777   4.297   4.357  10.632 -0.2729  0.0311  0.7590
14788TIP3   OH265778   1.972   0.781  13.524 -0.7891  0.4566  0.5257
14788TIP3    H165779   1.977   0.714  13.455 -0.4751  0.9182  0.1035
14788TIP3    H265780   1.954   0.862  13.477 -0.4021  0.7994  0.9752
14789TIP3   OH265781   4.598   5.075   4.670  0.0903  0.0587 -0.2835
14789TIP3    H165782   4.674   5.017   4.667  0.2031  0.1576  0.5243
14789TIP3    H265783   4.633   5.161   4.649  0.2294  0.1275  0.2190
14790TIP3   OH265784   6.039   6.454  11.036 -0.0850  0.7556  0.4634
14790TIP3    H165785   6.031   6.494  10.949 -0.5931  1.1863  0.6981
14790TIP3    H265786   6.024   6.527  11.097  2.4508  0.9333  0.9450
14791TIP3   OH265787   0.398   6.375   3.378 -0.0338 -0.8712  0.2340
14791TIP3    H165788   0.457   6.395   3.450  1.2003 -0.1646 -0.9631
14791TIP3    H265789   0.418   6.285   3.355  0.0268 -0.8822  0.3283
14792TIP3   OH265790   2.618   2.276  12.388  0.2570 -0.2671 -0.3613
14792TIP3    H165791   2.670   2.301  12.312  1.0258  1.0709  0.5805
14792TIP3    H265792   2.647   2.186  12.408  0.9924 -0.1469 -0.8639
14793TIP3   OH265793   2.460   4.707   0.825 -0.1874  0.3594  0.1666
14793TIP3    H165794   2.546   4.744   0.845 -1.0668  3.7556 -1.8062
14793TIP3    H265795   2.434   4.750   0.742 -3.6526 -0.7232  0.5903
14794TIP3   OH265796   1.559   4.028   1.842  0.0223 -0.2231  0.6588
14794TIP3    H165797   1.483   4.086   1.857 -0.6681 -1.4197  1.9956
14794TIP3    H265798   1.634   4.079   1.872 -0.3377  0.7045  0.0070
14795TIP3   OH265799   0.202   2.826   1.936 -0.1951 -0.4084 -0.1899
14795TIP3    H165800   0.143   2.791   1.869 -0.9734  0.7149 -0.1036
14795TIP3    H265801   0.263   2.882   1.888 -1.3613  1.1846  0.1242
14796TIP3   OH265802   5.121   0.943   3.107 -0.0810  0.3515  0.2644
14796TIP3    H165803   5.126   1.026   3.060  0.8818  0.4140  0.4534
14796TIP3    H265804   5.205   0.937   3.154 -1.1861  0.5265  2.3417
14797TIP3   OH265805   2.934   2.040  16.847 -0.1930 -0.0043  0.0658
14797TIP3    H165806   2.979   2.105  16.901 -0.5970  1.7126 -1.5950
14797TIP3    H265807   2.844   2.040  16.877 -0.5593  1.4047 -0.9900
14798TIP3   OH265808   4.771   3.904  16.802 -0.2860  0.3556 -0.2819
14798TIP3    H165809   4.723   3.864  16.729 -0.7827 -0.9148  0.7134
14798TIP3    H265810   4.861   3.909  16.771 -0.2026 -1.5592 -0.4567
14799TIP3   OH265811   6.722   4.419   1.064  0.1401 -0.1657 -0.5092
14799TIP3    H165812   6.804   4.370   1.067 -0.0565 -0.4232  0.7061
14799TIP3    H265813   6.736   4.494   1.123 -1.1652 -1.2638  1.2399
14800TIP3   OH265814   5.800   2.000  15.817  0.4283  0.3172  0.2011
14800TIP3    H165815   5.730   2.062  15.836  0.9770  0.8905  0.3806
14800TIP3    H265816   5.757   1.915  15.818 -0.3680  0.7092 -0.2406
14801TIP3   OH265817   4.769   0.673  11.385 -0.2997 -0.0651  0.6242
14801TIP3    H165818   4.747   0.719  11.304 -0.9453  1.2084  1.5020
14801TIP3    H265819   4.810   0.592  11.356  3.0836  2.0935 -1.0176
14802TIP3   OH265820   4.701   6.402   3.267  0.0245 -1.0465  0.2869
14802TIP3    H165821   4.638   6.423   3.197 -0.3803 -1.5342  0.5017
14802TIP3    H265822   4.712   6.307   3.262  3.6517 -0.5703 -2.2009
14803TIP3   OH265823   0.401   5.156  13.055  0.8610  0.3383  0.3452
14803TIP3    H165824   0.412   5.208  12.975  1.2751 -0.3475 -0.0479
14803TIP3    H265825   0.307   5.139  13.061  0.5583  2.1913  1.1521
14804TIP3   OH265826   1.200   1.825   4.535 -0.2671  0.3249  0.3093
14804TIP3    H165827   1.229   1.820   4.626 -0.7778 -0.9724  0.4199
14804TIP3    H265828   1.131   1.891   4.535 -2.0685 -1.5189  1.3854
14805TIP3   OH265829   0.367   2.163  12.367 -0.3843 -0.5426  0.1936
14805TIP3    H165830   0.399   2.105  12.436  0.8880  1.0569  0.9577
14805TIP3    H265831   0.432   2.156  12.298  0.3218  0.7487  0.7101
14806TIP3   OH265832   3.486   6.540   0.003 -0.4983 -0.5090  0.4742
14806TIP3    H165833   3.578   6.543  -0.022 -1.0000 -0.1201 -1.3553
14806TIP3    H265834   3.443   6.605  -0.052 -2.3049 -2.5627 -0.6105
14807TIP3   OH265835   5.263   5.721  12.633 -0.2096 -0.1650 -0.0158
14807TIP3    H165836   5.318   5.713  12.710  1.4900  2.6184 -0.8656
14807TIP3    H265837   5.189   5.775  12.661 -0.0214  0.1460 -0.1163
14808TIP3   OH265838   4.959   5.400  16.765 -1.3243 -0.2431  0.4656
14808TIP3    H165839   5.049   5.394  16.731 -1.7440 -0.5481 -0.6356
14808TIP3    H265840   4.905   5.365  16.694 -2.2355 -1.0036  1.5162
14809TIP3   OH265841   4.526   3.466   6.179  0.2945 -0.2322 -0.3487
14809TIP3    H165842   4.519   3.427   6.092  0.6808 -0.0144 -0.4802
14809TIP3    H265843   4.616   3.448   6.206  0.4941  0.6128 -0.4378
14810TIP3   OH265844   3.673   2.009   3.243  0.7034  0.0650  0.5240
14810TIP3    H165845   3.744   2.045   3.190 -0.7243  1.3678 -0.5469
14810TIP3    H265846   3.642   2.084   3.295  0.0475 -0.4726  0.9087
14811TIP3   OH265847   4.314   0.352  11.732 -0.3049 -0.3208  0.1502
14811TIP3    H165848   4.391   0.363  11.788  0.8532  0.5193 -1.5786
14811TIP3    H265849   4.307   0.434  11.684 -0.7884 -1.3382 -1.5559
14812TIP3   OH265850   3.655   6.060  12.188 -0.2526  0.5566 -0.3593
14812TIP3    H165851   3.630   6.079  12.278 -0.2110  0.9767 -0.4366
14812TIP3    H265852   3.700   5.976  12.193  2.5957  2.0836  0.4982
14813TIP3   OH265853   3.563   2.129  17.165 -0.0212 -0.2808 -0.3343
14813TIP3    H165854   3.621   2.118  17.089  0.6971  0.9987  0.0100
14813TIP3    H265855   3.615   2.181  17.227 -0.2427 -2.0784  1.4234
14814TIP3   OH265856   1.981   0.640  16.298 -0.6150  0.2196 -0.2261
14814TIP3    H165857   1.892   0.646  16.333 -0.2000 -0.2614  0.9485
14814TIP3    H265858   2.035   0.684  16.364  0.1051 -0.1583 -0.5628
14815TIP3   OH265859   6.655   0.635   3.108  0.1264 -0.1718  0.0440
14815TIP3    H165860   6.675   0.611   3.017 -0.0357 -1.0946  0.2407
14815TIP3    H265861   6.678   0.727   3.115  0.6338 -0.2344 -0.7983
14816TIP3   OH265862   4.117   0.910   5.504 -0.6262  0.2135 -0.9697
14816TIP3    H165863   4.064   0.917   5.583 -0.0880 -1.0709 -0.4894
14816TIP3    H265864   4.156   0.997   5.494  0.6162 -0.0604  1.1317
14817TIP3   OH265865   4.029   0.252  15.162 -0.0769 -0.4475 -0.0700
14817TIP3    H165866   3.995   0.311  15.094  1.7352  1.6026  0.7498
14817TIP3    H265867   4.007   0.296  15.244 -0.0305 -1.6893  0.6113
14818TIP3   OH265868   6.715   5.472  14.216 -0.4937  0.0194 -0.1858
14818TIP3    H165869   6.771   5.432  14.149 -0.2391 -0.6593  0.4219
14818TIP3    H265870   6.772   5.535  14.260 -0.0607 -0.9821  0.7214
14819TIP3   OH265871   0.754   2.606  11.443 -0.0908  0.3168 -0.1020
14819TIP3    H165872   0.848   2.591  11.452  0.0700 -0.2851 -2.3687
14819TIP3    H265873   0.741   2.695  11.476  1.4159  0.7013 -0.4809
14820TIP3   OH265874   2.962   5.787   1.497  0.1346  0.2101 -0.6268
14820TIP3    H165875   2.987   5.697   1.518 -1.9884 -0.0579  0.8529
14820TIP3    H265876   3.039   5.839   1.521  0.3386 -0.8879  1.1622
14821TIP3   OH265877   5.765   1.097  14.331  0.3152 -0.2365  0.4857
14821TIP3    H165878   5.701   1.029  14.353  0.1095 -0.1026  0.3010
14821TIP3    H265879   5.806   1.065  14.250 -0.3171  0.2197 -0.0267
14822TIP3   OH265880   6.342   6.310   1.718 -0.1454 -0.4182  0.7365
14822TIP3    H165881   6.262   6.291   1.670  1.0806 -0.9570 -1.1690
14822TIP3    H265882   6.330   6.398   1.753 -2.0668 -0.9870  1.5763
14823TIP3   OH265883   4.614   4.194  16.293  0.6211 -0.3824  0.3014
14823TIP3    H165884   4.641   4.152  16.375  0.9965 -0.0352  0.3602
14823TIP3    H265885   4.696   4.211  16.246  0.5985  1.6653  0.9549
14824TIP3   OH265886   4.703   0.816  14.697  0.2606 -0.0467  0.4222
14824TIP3    H165887   4.758   0.739  14.686  0.0332 -0.2656  0.7861
14824TIP3    H265888   4.743   0.863  14.771  1.2417  0.9323 -0.7197
14825TIP3   OH265889   0.542   0.491  17.192 -0.4302  0.0027  0.2369
14825TIP3    H165890   0.608   0.432  17.158 -0.7645 -0.8500  1.0452
14825TIP3    H265891   0.575   0.518  17.278 -0.4141  0.7636 -0.0044
14826TIP3   OH265892   3.795   1.138  12.901 -0.3574  0.2940 -0.1273
14826TIP3    H165893   3.716   1.179  12.865 -0.5684  0.6559  0.7095
14826TIP3    H265894   3.806   1.180  12.987  1.0045  0.5736 -0.4280
14827TIP3   OH265895   3.819   2.308  15.453  0.2228  0.6221  0.0140
14827TIP3    H165896   3.843   2.360  15.530 -2.2362  0.1216  1.1780
14827TIP3    H265897   3.810   2.219  15.487  0.4626  0.1529 -1.1410
14828TIP3   OH265898   2.869   2.254   0.569 -0.5898  0.4034  0.3315
14828TIP3    H165899   2.800   2.232   0.632 -0.3329 -0.6260  0.2726
14828TIP3    H265900   2.837   2.331   0.523 -0.5164  1.5227  2.1279
14829TIP3   OH265901   5.348   1.309  15.606 -0.2242 -0.0451 -0.1029
14829TIP3    H165902   5.269   1.256  15.607  1.5907 -2.8768  1.0354
14829TIP3    H265903   5.354   1.342  15.516 -2.3427 -0.3528 -0.3686
14830TIP3   OH265904   5.466   5.965   0.935 -0.5562  0.1814 -0.7795
14830TIP3    H165905   5.483   5.874   0.961 -0.4300  0.6836  0.9183
14830TIP3    H265906   5.375   5.980   0.960  0.4299  1.5914  2.1602
14831TIP3   OH265907   1.777   3.125   5.418  0.2763 -0.3780  0.4230
14831TIP3    H165908   1.739   3.161   5.498  0.9589 -1.6971  1.3382
14831TIP3    H265909   1.866   3.159   5.416 -0.2696  1.0508 -0.6787
14832TIP3   OH265910   3.250   1.593   1.245  0.3237 -0.3452  0.2990
14832TIP3    H165911   3.234   1.666   1.304 -0.3469  0.5613 -0.9772
14832TIP3    H265912   3.344   1.576   1.252  0.3787  0.2309  1.0580
14833TIP3   OH265913   3.546   1.046   0.131  0.2456  0.2191  0.3236
14833TIP3    H165914   3.594   1.116   0.088  2.6445 -2.4912 -1.6033
14833TIP3    H265915   3.465   1.038   0.080  1.7163 -0.9485 -1.9369
14834TIP3   OH265916   1.226   1.188  16.252 -0.5542 -0.7222 -0.0187
14834TIP3    H165917   1.313   1.150  16.264 -0.5524 -0.8632 -0.4924
14834TIP3    H265918   1.215   1.196  16.157 -0.6142  0.3159  0.0670
14835TIP3   OH265919   2.906   2.736  14.877  0.0334 -0.2316 -0.2088
14835TIP3    H165920   2.844   2.707  14.811 -0.8118 -0.9449  0.8876
14835TIP3    H265921   2.971   2.666  14.882  0.3969  0.0647 -0.6426
14836TIP3   OH265922   6.591   3.210  11.637 -0.0997  0.0404 -0.2617
14836TIP3    H165923   6.529   3.196  11.709 -0.5222  0.2696 -0.5779
14836TIP3    H265924   6.669   3.160  11.662  0.0365  0.7220  0.7035
14837TIP3   OH265925   6.047   4.019   2.167  0.0886  0.3147  0.1475
14837TIP3    H165926   5.968   3.965   2.173 -1.3021  2.0069 -1.9515
14837TIP3    H265927   6.096   3.980   2.095  0.6474 -0.0529  0.7207
14838TIP3   OH265928   0.450   5.861  16.274  0.5185  0.3485 -0.1020
14838TIP3    H165929   0.363   5.900  16.281  1.4590  2.5314 -0.3103
14838TIP3    H265930   0.457   5.835  16.182 -0.3422 -0.8813  0.1774
14839TIP3   OH265931   2.316   4.157   1.244  0.3500  0.0993 -0.1604
14839TIP3    H165932   2.396   4.123   1.205  0.5417  1.4912 -1.0058
14839TIP3    H265933   2.311   4.247   1.214 -0.6999  0.5127  1.1867
14840TIP3   OH265934   0.195   0.718  12.887 -0.2586  0.2746  0.4598
14840TIP3    H165935   0.141   0.780  12.937 -0.3806 -0.4995  1.2959
14840TIP3    H265936   0.176   0.633  12.925 -0.3136 -0.3279 -0.8927
14841TIP3   OH265937   1.269   3.035   5.150 -0.8148 -0.3486 -0.0671
14841TIP3    H165938   1.340   3.097   5.166 -0.9604 -0.1342 -0.2416
14841TIP3    H265939   1.312   2.956   5.119 -0.4158 -1.2064  2.5943
14842TIP3   OH265940   5.810   3.549  12.225  0.9079  0.1057 -0.0925
14842TIP3    H165941   5.879   3.599  12.180  0.4428  1.2533  0.4608
14842TIP3    H265942   5.842   3.459  12.224  1.8396  0.4308 -0.9439
14843TIP3   OH265943   5.445   1.451   3.785 -0.4001  0.0785  0.3282
14843TIP3    H165944   5.448   1.505   3.865  1.3516 -1.1554  1.1211
14843TIP3    H265945   5.434   1.515   3.714 -0.8850  1.2817  1.4572
14844TIP3   OH265946   4.148   4.900  16.072  0.1919 -0.3476 -0.1105
14844TIP3    H165947   4.222   4.948  16.109 -0.0522  0.3025 -0.4463
14844TIP3    H265948   4.120   4.954  15.998 -1.8711  0.4655  1.1988
14845TIP3   OH265949   4.168   0.551  15.859  0.1784  0.1195 -0.2369
14845TIP3    H165950   4.162   0.615  15.930  2.3286 -1.1691  1.1723
14845TIP3    H265951   4.077   0.530  15.838 -0.5198  1.9196  0.8413
14846TIP3   OH265952   2.103   6.250  16.436  0.0185  0.0887  0.0685
14846TIP3    H165953   2.047   6.204  16.373 -1.5583  1.9671  0.0677
14846TIP3    H265954   2.081   6.210  16.520  2.3090 -2.6012 -0.5231
14847TIP3   OH265955   4.931   4.190  12.377  0.0814  0.3565 -0.1331
14847TIP3    H165956   4.983   4.153  12.306  1.3515 -1.0844  1.5040
14847TIP3    H265957   4.980   4.268  12.405 -0.8390  1.3907 -1.3412
14848TIP3   OH265958   0.290   5.496  16.711 -0.0608  0.2006 -0.4328
14848TIP3    H165959   0.306   5.422  16.653  0.6450  0.9922 -1.2599
14848TIP3    H265960   0.278   5.457  16.797  0.7532 -0.8411 -0.7828
14849TIP3   OH265961   3.536   5.702   0.646 -0.2995 -0.2426  0.8343
14849TIP3    H165962   3.471   5.758   0.688 -0.4235 -0.9469  1.5886
14849TIP3    H265963   3.619   5.749   0.658 -0.5880  0.4511  0.2330
14850TIP3   OH265964   3.058   3.888  10.911 -0.9026  0.3125 -0.1516
14850TIP3    H165965   3.020   3.961  10.960  0.4118 -0.5820  2.2596
14850TIP3    H265966   3.131   3.927  10.863 -1.5091  0.9768 -0.5437
14851TIP3   OH265967   2.617   1.237   4.359 -0.3640  0.4724  0.4058
14851TIP3    H165968   2.649   1.175   4.424 -1.3396 -1.0053 -0.4860
14851TIP3    H265969   2.675   1.224   4.284 -0.9604  0.1665 -0.0074
14852TIP3   OH265970   1.223   2.182   4.686 -0.5334 -0.0172  0.0318
14852TIP3    H165971   1.142   2.230   4.670 -0.8378 -0.8429 -0.9610
14852TIP3    H265972   1.265   2.176   4.600  1.1719  1.4517  0.7406
14853TIP3   OH265973   2.260   3.180  13.843 -0.1156 -0.3748 -0.9018
14853TIP3    H165974   2.352   3.204  13.856 -0.1292  0.3104 -1.9467
14853TIP3    H265975   2.218   3.198  13.927  0.8193 -1.2355 -0.2505
14854TIP3   OH265976   0.199   1.778  15.782  0.3698 -0.4795 -0.3238
14854TIP3    H165977   0.226   1.862  15.745  1.3619 -0.2864  0.7716
14854TIP3    H265978   0.196   1.794  15.877 -2.2077 -0.9134 -0.3054
14855TIP3   OH265979   0.307   0.201  14.505 -0.4067  0.3496  0.5881
14855TIP3    H165980   0.362   0.126  14.480  0.6890  1.0987  0.6966
14855TIP3    H265981   0.222   0.162  14.526  0.6294 -1.0834  2.3684
14856TIP3   OH265982   5.524   5.041   2.114 -0.3692  0.5189  0.4762
14856TIP3    H165983   5.514   4.963   2.168  0.2983  0.4979  0.5794
14856TIP3    H265984   5.608   5.029   2.070  0.0838  1.5072  1.0397
14857TIP3   OH265985   1.042   2.340  13.874  0.2776 -0.3793  0.3781
14857TIP3    H165986   1.086   2.377  13.950 -0.0423  0.3103  0.2342
14857TIP3    H265987   1.094   2.369  13.799  1.5495 -2.4543  0.4398
14858TIP3   OH265988   1.691   5.944  16.138  0.1980 -0.7207 -0.3411
14858TIP3    H165989   1.761   5.878  16.138 -0.4897 -1.4716 -0.9630
14858TIP3    H265990   1.731   6.021  16.099  0.5219 -1.3415 -1.2696
14859TIP3   OH265991   5.347   2.813  17.007  0.4479  0.6081  0.7168
14859TIP3    H165992   5.324   2.906  17.012  1.6363  1.1176 -2.1402
14859TIP3    H265993   5.441   2.811  17.027  0.4022  0.0321  0.8595
14860TIP3   OH265994   2.404   3.010   1.892  0.0457  0.0636  0.1843
14860TIP3    H165995   2.426   3.084   1.836  0.7360  0.6555  1.2307
14860TIP3    H265996   2.410   3.044   1.981  1.7944 -1.6120  0.7333
14861TIP3   OH265997   4.730   1.821   5.402  0.3169  0.8494  0.3604
14861TIP3    H165998   4.682   1.765   5.464 -0.3320  0.0910 -0.7884
14861TIP3    H265999   4.810   1.772   5.383 -0.1720  0.3637 -0.5136
14862TIP3   OH266000   6.161   4.458   2.561 -0.0844 -0.1773  0.0961
14862TIP3    H166001   6.100   4.385   2.564  0.9812 -1.1424 -1.1952
14862TIP3    H266002   6.127   4.515   2.492 -0.6159  0.2866  0.7343
14863TIP3   OH266003   2.646   0.909   3.597 -0.0247 -0.1195  0.1540
14863TIP3    H166004   2.679   0.946   3.515  0.0345 -2.5221 -0.9501
14863TIP3    H266005   2.551   0.924   3.593 -0.0390 -0.3345 -0.4311
14864TIP3   OH266006   5.583   2.346   2.522 -0.0966  0.1895 -0.0162
14864TIP3    H166007   5.657   2.337   2.461  0.3052 -2.1938  0.7891
14864TIP3    H266008   5.612   2.414   2.583  0.9545  0.0952 -0.3906
14865TIP3   OH266009   3.415   6.551   0.819  0.3330 -0.5128 -0.2298
14865TIP3    H166010   3.350   6.481   0.824  1.6102 -1.6667  0.2306
14865TIP3    H266011   3.458   6.538   0.734 -0.0175  0.2559 -0.5368
14866TIP3   OH266012   0.262   0.377  11.158  0.1408  0.4468  0.0536
14866TIP3    H166013   0.243   0.464  11.121  1.0287  1.0763  1.0385
14866TIP3    H266014   0.180   0.352  11.202  0.0421  1.0140  0.2021
14867TIP3   OH266015   2.828   3.056  11.695 -0.1417  0.8809 -0.0857
14867TIP3    H166016   2.826   3.056  11.791 -0.1938 -0.9760 -0.0503
14867TIP3    H266017   2.918   3.033  11.673 -0.6744 -0.9817 -0.4262
14868TIP3   OH266018   2.901   3.420  12.942 -0.0940 -0.2838 -0.9040
14868TIP3    H166019   2.989   3.396  12.910 -0.4026 -0.7571 -1.4116
14868TIP3    H266020   2.869   3.341  12.985 -0.9824 -0.6927 -2.2866
14869TIP3   OH266021   6.579   6.502   4.222  0.5902 -0.3242  0.1270
14869TIP3    H166022   6.527   6.546   4.290  1.9381  0.1064  0.8944
14869TIP3    H266023   6.526   6.426   4.197  0.3115 -0.7875  2.0445
14870TIP3   OH266024   0.481   2.744   3.079  0.1453  0.5368 -0.1132
14870TIP3    H166025   0.461   2.703   2.995  1.4964 -0.5531  0.0791
14870TIP3    H266026   0.435   2.690   3.143  1.2618 -0.2148  0.0682
14871TIP3   OH266027   2.487   0.885   4.866  0.1851 -0.2426 -0.0158
14871TIP3    H166028   2.527   0.960   4.910 -1.8864  0.8458  0.1129
14871TIP3    H266029   2.560   0.830   4.839  1.6421  0.8312  1.6837
14872TIP3   OH266030   5.404   3.080  12.157 -0.5979 -0.3758 -1.0075
14872TIP3    H166031   5.322   3.127  12.171  0.5064  1.5194 -0.7040
14872TIP3    H266032   5.391   2.995  12.198 -2.3019  0.0216 -0.7031
14873TIP3   OH266033   0.238   2.159   3.391 -0.6620 -0.0278  0.8120
14873TIP3    H166034   0.300   2.227   3.418  1.1001 -0.0298 -2.8478
14873TIP3    H266035   0.152   2.197   3.406  0.2614  1.5762  2.2318
14874TIP3   OH266036   2.911   5.124   2.903 -0.4481  0.0929  0.6053
14874TIP3    H166037   2.879   5.043   2.943 -0.0890 -0.9003 -1.0482
14874TIP3    H266038   2.859   5.134   2.823 -0.2254  1.2893  0.6030
14875TIP3   OH266039   1.014   6.051  15.524  0.1291  0.1783  0.2145
14875TIP3    H166040   0.992   6.061  15.431  1.3979 -3.0733 -0.4797
14875TIP3    H266041   1.096   6.100  15.534 -0.9152  2.0180  0.0580
14876TIP3   OH266042   5.603   0.034   4.467 -0.4596 -0.2300  0.0650
14876TIP3    H166043   5.526   0.052   4.413 -0.6133 -0.3037  0.2553
14876TIP3    H266044   5.617  -0.060   4.457  0.2590 -0.0332 -0.8221
14877TIP3   OH266045   1.779   6.044  14.863  0.2188 -0.4621 -0.3545
14877TIP3    H166046   1.863   6.078  14.834 -0.9179  1.8210 -1.1194
14877TIP3    H266047   1.791   6.027  14.957  1.0636  1.3957 -0.1003
14878TIP3   OH266048   4.164   6.784  15.789 -0.0279  0.4122  0.7938
14878TIP3    H166049   4.069   6.778  15.775  0.1154 -1.4159  0.5130
14878TIP3    H266050   4.191   6.861  15.739 -1.0594 -0.2717 -0.8678
14879TIP3   OH266051   4.687   4.656   2.932  0.1501  0.1029 -0.0712
14879TIP3    H166052   4.719   4.599   3.002  0.7881  0.5465  0.0063
14879TIP3    H266053   4.674   4.598   2.857  4.3262  0.3746 -1.1413
14880TIP3   OH266054   4.761   3.704  17.052 -0.6589 -0.6437  0.1817
14880TIP3    H166055   4.689   3.724  16.992  0.2152  1.3945 -0.2260
14880TIP3    H266056   4.755   3.771  17.120  1.5953  0.3829 -0.5582
14881TIP3   OH266057   0.417   6.060  10.710  0.1847 -0.1488 -0.1906
14881TIP3    H166058   0.378   6.118  10.645  1.8164  0.5367 -0.5730
14881TIP3    H266059   0.398   6.102  10.794  0.2681  0.2765 -0.3852
14882TIP3   OH266060   0.303   0.499  13.340  1.0003 -0.4187  0.4163
14882TIP3    H166061   0.366   0.462  13.277  1.6924  2.2358 -0.5319
14882TIP3    H266062   0.356   0.557  13.395 -0.6594  2.2878 -0.7509
14883TIP3   OH266063   1.974   4.647  15.727  0.5087  0.2718  0.2057
14883TIP3    H166064   1.880   4.633  15.737  0.8225 -0.8452  1.6636
14883TIP3    H266065   2.011   4.560  15.716  1.4595  0.6520  0.3359
14884TIP3   OH266066   5.065   0.139  16.615 -0.3439  0.2004 -0.0442
14884TIP3    H166067   5.115   0.105  16.690  0.5351 -0.7975 -1.0742
14884TIP3    H266068   5.023   0.062  16.577  1.3200  0.2740 -2.1365
14885TIP3   OH266069   2.819   4.466  16.625 -0.2051 -0.1110 -0.1284
14885TIP3    H166070   2.888   4.460  16.691  1.2119  0.3983 -1.5440
14885TIP3    H266071   2.860   4.508  16.550 -2.0709  0.2648 -0.9907
14886TIP3   OH266072   5.639   2.341  15.749  1.0060  0.3155 -0.4368
14886TIP3    H166073   5.733   2.358  15.757  0.8608  0.8915  0.1431
14886TIP3    H266074   5.598   2.426  15.765  0.3040 -0.3248  1.3774
14887TIP3   OH266075   0.740   3.616   0.978 -0.4594 -0.4738 -0.4647
14887TIP3    H166076   0.669   3.589   0.919 -0.0122  0.5108 -1.4727
14887TIP3    H266077   0.720   3.573   1.061 -1.6367 -1.0927 -1.0577
14888TIP3   OH266078   1.242   4.344  16.011  0.2535  0.8412 -0.3227
14888TIP3    H166079   1.258   4.316  16.101  2.0093  0.4588 -0.7344
14888TIP3    H266080   1.207   4.266  15.968 -1.6339  1.3268  0.2708
14889TIP3   OH266081   6.108   0.152  12.753  0.0359  0.4513 -0.3904
14889TIP3    H166082   6.112   0.094  12.677 -1.8108 -1.6749  1.0671
14889TIP3    H266083   6.045   0.220  12.728  1.7386  1.5311 -1.8755
14890TIP3   OH266084   6.216   4.259   4.592 -0.2979  0.0527  0.9007
14890TIP3    H166085   6.257   4.174   4.575 -1.2175 -0.3662  0.7687
14890TIP3    H266086   6.212   4.301   4.506  0.8242  0.5391  1.0782
14891TIP3   OH266087   2.316   3.326   5.335  0.1427  0.0387 -0.7678
14891TIP3    H166088   2.399   3.322   5.287  0.3201 -0.3449 -0.4356
14891TIP3    H266089   2.287   3.235   5.340 -0.1587  0.1412 -0.6416
14892TIP3   OH266090   3.485   3.239   0.174 -0.4267  0.7397 -0.0813
14892TIP3    H166091   3.501   3.187   0.253 -0.9438 -0.7701 -0.9368
14892TIP3    H266092   3.392   3.260   0.177 -0.4730  0.5755 -0.3465
14893TIP3   OH266093   5.672   1.277   3.729 -0.0524  1.0017 -0.0334
14893TIP3    H166094   5.693   1.286   3.636  0.4972 -0.9749 -0.1234
14893TIP3    H266095   5.581   1.305   3.735 -0.1612  0.9447 -1.1938
14894TIP3   OH266096   5.390   4.067  14.048 -0.4209  0.2078  0.6163
14894TIP3    H166097   5.429   4.134  13.992  0.0131 -0.7216 -0.2081
14894TIP3    H266098   5.360   4.115  14.125  1.4050  1.1029  0.8004
14895TIP3   OH266099   0.444   5.713   5.202 -0.9645 -0.1317  0.0713
14895TIP3    H166100   0.457   5.783   5.266  0.9469 -0.2684 -0.1346
14895TIP3    H266101   0.466   5.633   5.250  0.2125 -0.2568 -0.6688
14896TIP3   OH266102   1.769   0.902  11.167 -0.0880 -0.1298 -0.5411
14896TIP3    H166103   1.733   0.914  11.255  0.6947 -1.1591 -0.0838
14896TIP3    H266104   1.698   0.860  11.118 -0.2021 -0.3912 -0.1570
14897TIP3   OH266105   6.022   2.691   5.123  0.1317  0.1239  0.7553
14897TIP3    H166106   5.999   2.775   5.084 -0.1380 -0.6566 -0.8323
14897TIP3    H266107   5.939   2.643   5.126  0.8058 -1.2539 -1.3622
14898TIP3   OH266108   4.263   6.530  13.426 -0.3607  0.5479  0.2908
14898TIP3    H166109   4.288   6.530  13.518  0.0248  0.7258  0.1873
14898TIP3    H266110   4.221   6.615  13.412 -0.7035  0.3932  0.3781
14899TIP3   OH266111   5.839   5.779   1.277  0.1215 -0.0732 -0.2268
14899TIP3    H166112   5.913   5.834   1.250 -0.7550  1.6186  0.7388
14899TIP3    H266113   5.869   5.736   1.357  0.0364  0.6983  0.2266
14900TIP3   OH266114   4.687   4.019  12.024  0.0183  0.4544  0.2320
14900TIP3    H166115   4.748   4.019  11.951  1.5124 -0.3615  1.4515
14900TIP3    H266116   4.613   4.073  11.994  0.8802  0.6232 -1.6248
14901TIP3   OH266117   0.288   6.169  13.722 -0.4148  0.3512 -0.3299
14901TIP3    H166118   0.244   6.231  13.663 -1.2299  1.0070  0.9509
14901TIP3    H266119   0.232   6.092  13.721 -1.6788  1.2240  1.3784
14902TIP3   OH266120   4.713   4.340  10.847 -0.4123 -0.1989  0.1309
14902TIP3    H166121   4.636   4.385  10.812  0.4451  0.4798 -0.9470
14902TIP3    H266122   4.710   4.357  10.941  0.7487  3.5588 -0.4085
14903TIP3   OH266123   2.980   4.231  11.460  0.1432 -0.0172  0.8417
14903TIP3    H166124   3.002   4.324  11.453  0.4546 -0.0956  0.7943
14903TIP3    H266125   3.040   4.188  11.399 -1.0700 -0.0764 -0.3579
14904TIP3   OH266126   0.642   2.720  15.964  0.8162  0.2297 -0.1466
14904TIP3    H166127   0.706   2.792  15.966  2.2745 -1.0274 -0.1984
14904TIP3    H266128   0.687   2.648  16.008 -1.4656 -0.0139  1.8482
14905TIP3   OH266129   0.009   4.460  13.308 -0.2714  0.2614 -0.0936
14905TIP3    H166130  -0.050   4.530  13.336 -2.2329 -2.0903  1.7886
14905TIP3    H266131   0.066   4.445  13.383 -1.7622 -2.1350  0.5736
14906TIP3   OH266132   4.989   2.044  15.667 -0.0035  0.0553  0.0093
14906TIP3    H166133   5.025   2.049  15.756 -0.4415  0.8527  0.1426
14906TIP3    H266134   4.951   2.130  15.651 -0.1543 -0.1656 -0.8610
14907TIP3   OH266135   5.381   5.344  11.714 -0.0411  0.1258  0.0164
14907TIP3    H166136   5.394   5.420  11.657  2.1296 -0.2574 -0.0554
14907TIP3    H266137   5.463   5.336  11.762 -1.4863 -0.1527  2.5259
14908TIP3   OH266138   4.138   5.237   4.488 -0.4305  0.5927 -1.0673
14908TIP3    H166139   4.135   5.163   4.428  1.6129  1.5358 -2.3943
14908TIP3    H266140   4.217   5.223   4.540 -0.3087  1.5602 -0.9730
14909TIP3   OH266141   1.189   4.261  16.739 -0.5544 -0.0652 -0.3835
14909TIP3    H166142   1.152   4.226  16.658 -1.6684 -0.3423  0.2382
14909TIP3    H266143   1.113   4.282  16.793  0.1674  0.7327  0.3397
14910TIP3   OH266144   0.303   2.194  14.360  0.6229 -0.5579 -0.1001
14910TIP3    H166145   0.285   2.208  14.453  0.1389 -0.5743 -0.1887
14910TIP3    H266146   0.219   2.210  14.317  1.4351  2.1179 -0.8270
14911TIP3   OH266147   4.862   5.048   2.376  0.7165 -0.5153 -0.4517
14911TIP3    H166148   4.918   4.991   2.429  0.7029  1.6163  1.9574
14911TIP3    H266149   4.919   5.121   2.352  0.1400 -0.4643 -1.6526
14912TIP3   OH266150   0.363   5.137   2.873  0.0382  0.5989  0.1032
14912TIP3    H166151   0.383   5.085   2.795  1.5694  1.2381  0.0440
14912TIP3    H266152   0.430   5.111   2.937 -1.2952 -0.0297  1.2551
14913TIP3   OH266153   2.510   1.725  14.666 -0.0847  0.6124 -0.0390
14913TIP3    H166154   2.476   1.761  14.585 -1.5762  0.8913  0.6889
14913TIP3    H266155   2.541   1.637  14.643 -4.1447 -0.8992 -0.1541
14914TIP3   OH266156   5.866   2.510  11.483 -0.2259  0.0008  0.0659
14914TIP3    H166157   5.956   2.495  11.455 -0.5009 -0.7228 -0.4363
14914TIP3    H266158   5.848   2.440  11.546  0.4429  1.7133  2.2305
14915TIP3   OH266159   6.447   5.427   0.632 -0.1033  0.1141  0.0684
14915TIP3    H166160   6.353   5.438   0.624 -0.0884  0.1450 -0.0746
14915TIP3    H266161   6.469   5.364   0.563  0.0145  0.2893 -0.0554
14916TIP3   OH266162   1.529   5.808   5.413  0.6712  0.0396 -0.1085
14916TIP3    H166163   1.583   5.811   5.492  0.4885  0.0453  0.0138
14916TIP3    H266164   1.442   5.784   5.443  0.8520 -1.0790 -0.4374
14917TIP3   OH266165   5.215   1.616   4.903 -0.5028 -0.6785  0.1212
14917TIP3    H166166   5.263   1.565   4.838 -0.3116 -1.6580  1.0246
14917TIP3    H266167   5.186   1.552   4.968  0.9261  0.5158  1.9910
14918TIP3   OH266168   2.541   3.571  15.860  0.0042 -0.0635  0.3144
14918TIP3    H166169   2.636   3.566  15.863 -0.0088 -0.7422 -0.5447
14918TIP3    H266170   2.519   3.632  15.931  1.2780  2.7771 -1.6455
14919TIP3   OH266171   3.458   3.847  13.363 -0.1660  0.2000 -0.1450
14919TIP3    H166172   3.477   3.933  13.324 -0.2231  0.8243  1.1760
14919TIP3    H266173   3.474   3.859  13.456  0.8980 -1.5372 -0.0802
14920TIP3   OH266174   2.397   4.969  15.431  0.5466 -0.0831 -0.2295
14920TIP3    H166175   2.325   5.022  15.466 -0.1048  1.4359 -3.6421
14920TIP3    H266176   2.470   4.986  15.489 -0.9345  1.0051  1.3547
14921TIP3   OH266177   2.733   6.122  11.706 -0.1946  0.3754 -0.1181
14921TIP3    H166178   2.740   6.150  11.615 -0.0875  1.0162  0.0841
14921TIP3    H266179   2.638   6.120  11.723 -0.1895  1.1515  0.0244
14922TIP3   OH266180   0.292   3.592  17.066 -0.1311  0.0429 -0.0397
14922TIP3    H166181   0.387   3.601  17.056  0.2023 -1.2453  1.7082
14922TIP3    H266182   0.267   3.663  17.124 -0.4291  1.0513 -1.3708
14923TIP3   OH266183   5.094   6.240  15.545 -0.0304  0.2486  0.1386
14923TIP3    H166184   5.132   6.270  15.462  0.9072 -1.0621  0.0732
14923TIP3    H266185   5.063   6.319  15.588  3.5752  1.4652  0.5931
14924TIP3   OH266186   6.546   1.201  13.996  0.1947 -0.8944 -0.2174
14924TIP3    H166187   6.543   1.140  14.069 -0.0978 -0.2680  0.3023
14924TIP3    H266188   6.494   1.276  14.025  0.9249 -0.1998 -0.6595
14925TIP3   OH266189   3.576   0.223  14.002 -0.1529 -0.5867 -0.0701
14925TIP3    H166190   3.483   0.235  13.981  0.6450  0.1694 -3.5027
14925TIP3    H266191   3.586   0.129  14.011 -1.3847 -0.6293  0.9328
14926TIP3   OH266192   1.865   5.917   6.065 -0.1027  0.0977  0.7920
14926TIP3    H166193   1.940   5.915   6.125 -1.6723  0.0441  2.8067
14926TIP3    H266194   1.818   5.996   6.089 -0.3195  0.5051 -0.9517
14927TIP3   OH266195   4.408   2.153   2.950  0.1501  0.5197  0.5981
14927TIP3    H166196   4.403   2.182   3.041  1.1822  0.0358  0.8178
14927TIP3    H266197   4.321   2.119   2.930 -0.0138  0.4410  1.4627
14928TIP3   OH266198   4.894   3.077   3.833  0.3577  0.1122 -0.9553
14928TIP3    H166199   4.869   3.161   3.872 -0.0535 -0.1289 -0.7090
14928TIP3    H266200   4.894   3.015   3.906 -1.4366 -0.5662 -1.4982
14929TIP3   OH266201   5.958   6.631  13.480 -0.6682 -0.2757 -0.3964
14929TIP3    H166202   5.904   6.637  13.559 -0.0070 -0.9194  0.1045
14929TIP3    H266203   5.912   6.569  13.424 -1.7037  0.9844 -0.9808
14930TIP3   OH266204   1.253   1.503  10.677 -0.0817  0.6428 -0.5077
14930TIP3    H166205   1.205   1.424  10.651  0.0502  0.2374  0.4494
14930TIP3    H266206   1.345   1.482  10.660  0.1032 -0.0061  1.1999
14931TIP3   OH266207   3.953   5.122  14.274  0.2322  0.2554 -0.6188
14931TIP3    H166208   3.966   5.124  14.369 -0.3731  1.5090 -0.5457
14931TIP3    H266209   3.895   5.048  14.259  0.9483 -0.4217 -0.0911
14932TIP3   OH266210   2.958   0.409  12.390 -0.2679  0.4201 -0.2566
14932TIP3    H166211   3.022   0.344  12.361  0.8375  0.6660  1.5626
14932TIP3    H266212   2.899   0.361  12.448 -1.0648  0.4430 -1.0440
14933TIP3   OH266213   5.648   2.465   4.488  0.0831 -0.0827  0.0161
14933TIP3    H166214   5.599   2.425   4.416  1.8404  0.8603 -1.7524
14933TIP3    H266215   5.638   2.560   4.475 -0.3270  0.0957  1.5361
14934TIP3   OH266216   5.394   5.476  11.435 -0.5274  0.4265  0.3447
14934TIP3    H166217   5.329   5.542  11.458 -0.1900  1.1096 -0.6458
14934TIP3    H266218   5.469   5.526  11.405 -0.0565 -0.4008  0.1365
14935TIP3   OH266219   1.575   4.082  15.390 -0.3816 -0.5827 -1.1540
14935TIP3    H166220   1.527   4.133  15.455  1.8392  0.7401 -0.5259
14935TIP3    H266221   1.602   4.146  15.324  0.5710 -1.3208 -1.4807
14936TIP3   OH266222   3.976   3.994  15.381  1.0297  0.1959 -0.4463
14936TIP3    H166223   3.928   3.920  15.344 -0.0815 -0.0273  1.3809
14936TIP3    H266224   3.909   4.061  15.393  2.0000  1.4725 -1.9313
14937TIP3   OH266225   6.461   1.672  15.071  0.2168 -0.3961 -0.0397
14937TIP3    H166226   6.458   1.576  15.074  0.5554 -0.3431  2.5130
14937TIP3    H266227   6.369   1.698  15.082  0.0298 -0.4150 -1.4261
14938TIP3   OH266228   2.978   2.112   1.427 -1.0937 -0.3115  0.0393
14938TIP3    H166229   2.947   2.025   1.450 -2.8764  0.6797  1.4820
14938TIP3    H266230   2.929   2.135   1.348 -0.4979 -0.6709 -0.4404
14939TIP3   OH266231   4.677   6.408  11.793 -0.2320  0.3095  0.3349
14939TIP3    H166232   4.601   6.378  11.844  0.2634 -0.8133  0.4297
14939TIP3    H266233   4.654   6.388  11.702 -0.6019  1.2009  0.2218
14940TIP3   OH266234   4.620   1.189   2.252 -0.3435  0.1549  0.4192
14940TIP3    H166235   4.644   1.204   2.161 -0.6416 -0.5783  0.2201
14940TIP3    H266236   4.543   1.245   2.266  0.1593  0.8492  0.4460
14941TIP3   OH266237   0.740   0.635   1.769  0.4108 -0.2265  0.1180
14941TIP3    H166238   0.682   0.640   1.693  2.9936  0.9913 -1.8610
14941TIP3    H266239   0.821   0.596   1.735  2.0560  1.4885  1.9542
14942TIP3   OH266240   5.983   1.976   0.575  0.0592 -0.4834 -0.1073
14942TIP3    H166241   5.959   1.888   0.602 -1.1879 -0.5466 -1.3391
14942TIP3    H266242   6.054   1.964   0.511 -0.9988 -0.6874 -1.2609
14943TIP3   OH266243   0.612   4.008  12.118  0.6981  0.2698  0.2616
14943TIP3    H166244   0.562   4.003  12.200  1.5933  0.4384  0.8228
14943TIP3    H266245   0.549   3.985  12.050 -0.1984  0.6696  0.9447
14944TIP3   OH266246   5.657   4.732  11.814 -0.2719 -0.2037 -0.1573
14944TIP3    H166247   5.571   4.691  11.823  0.0652 -1.4721 -2.3521
14944TIP3    H266248   5.637   4.825  11.801 -1.1642 -0.0439  2.1431
14945TIP3   OH266249   0.563   0.416  12.141  0.1293 -0.2313 -0.4177
14945TIP3    H166250   0.622   0.486  12.114 -2.1117  1.1999 -1.6856
14945TIP3    H266251   0.552   0.429  12.235 -0.6468  1.4218 -0.7223
14946TIP3   OH266252   3.738   3.097   5.635  0.0534 -0.1074  1.0873
14946TIP3    H166253   3.648   3.111   5.607  0.7068  1.3366 -0.4129
14946TIP3    H266254   3.788   3.164   5.588  2.0605 -1.6272  0.9883
14947TIP3   OH266255   4.558   4.534   4.332 -0.3261 -0.1021 -0.0676
14947TIP3    H166256   4.485   4.514   4.391  0.0250  1.7328  1.0367
14947TIP3    H266257   4.607   4.452   4.326 -0.2520 -0.2914  2.3871
14948TIP3   OH266258   0.885   6.737  14.166  0.3148 -0.2567  0.2246
14948TIP3    H166259   0.958   6.711  14.110  1.1185  0.8641  0.7262
14948TIP3    H266260   0.900   6.831  14.183  0.2912 -0.6450  2.5902
14949TIP3   OH266261   5.127   2.306  13.045 -0.4413 -0.3133 -0.4798
14949TIP3    H166262   5.053   2.365  13.062  0.0622  0.0919  0.3511
14949TIP3    H266263   5.156   2.329  12.957  0.3660  1.3762  0.2045
14950TIP3   OH266264   6.571   1.198   2.823  0.5366 -0.8291 -0.2755
14950TIP3    H166265   6.646   1.247   2.791 -1.9675  3.4043 -0.0114
14950TIP3    H266266   6.584   1.192   2.917  0.0142  0.9885 -0.0657
14951TIP3   OH266267   1.668   2.202   0.030 -0.0125 -0.2418 -0.0173
14951TIP3    H166268   1.752   2.156   0.028 -0.2793 -0.7170 -0.5195
14951TIP3    H266269   1.671   2.262  -0.044  0.9434  1.6656  1.5274
14952TIP3   OH266270   3.262   1.070  14.273 -0.0173 -0.0290 -0.0047
14952TIP3    H166271   3.282   1.050  14.364  1.2502 -1.2881 -0.5469
14952TIP3    H266272   3.210   1.151  14.277 -1.0691 -0.7786  1.8981
14953TIP3   OH266273   4.217   0.795   1.801 -0.1621  0.1488 -0.8148
14953TIP3    H166274   4.285   0.786   1.868 -0.6980  0.3843 -0.2277
14953TIP3    H266275   4.246   0.739   1.729  0.4779 -0.0210 -0.4307
14954TIP3   OH266276   2.295   2.085  15.808  0.4294 -0.6010 -0.6815
14954TIP3    H166277   2.270   2.159  15.864 -0.3013 -0.2670 -1.4344
14954TIP3    H266278   2.390   2.082  15.815  0.3682 -0.3801  0.3486
14955TIP3   OH266279   2.857   0.107  12.726 -0.5176  0.2484  0.3898
14955TIP3    H166280   2.791   0.175  12.740  0.3018  0.9767  0.7689
14955TIP3    H266281   2.814   0.043  12.669 -1.0579  1.4659 -0.6092
14956TIP3   OH266282   6.647   3.160   4.791  0.1156  0.7016  0.1540
14956TIP3    H166283   6.603   3.244   4.778 -0.0479  0.6231  0.2028
14956TIP3    H266284   6.592   3.113   4.854 -0.9032 -0.2499 -1.3883
14957TIP3   OH266285   4.303   2.955  11.132  0.2148  0.9122  0.0877
14957TIP3    H166286   4.255   2.908  11.063 -1.8143  1.2190  1.2596
14957TIP3    H266287   4.282   3.047  11.116  0.5090  1.0551  0.5420
14958TIP3   OH266288   5.434   4.754  13.480 -0.6006  0.2666  0.0002
14958TIP3    H166289   5.347   4.747  13.520  0.2361  0.3547  1.8908
14958TIP3    H266290   5.426   4.827  13.418 -2.3437 -0.8760 -1.1757
14959TIP3   OH266291   1.772   2.571   3.648 -0.2579  0.2713 -0.7602
14959TIP3    H166292   1.692   2.594   3.602  0.0376  0.1908 -1.3154
14959TIP3    H266293   1.750   2.580   3.741 -0.8618  0.3948 -0.9162
14960TIP3   OH266294   3.743   6.062  17.011  0.3374  0.7669 -0.5335
14960TIP3    H166295   3.709   6.091  16.927 -0.7997 -1.8286 -1.0274
14960TIP3    H266296   3.816   6.005  16.990 -0.1705 -0.1788  0.2012
14961TIP3   OH266297   3.224   4.418  17.066  0.2667 -0.4584 -0.2656
14961TIP3    H166298   3.290   4.369  17.017  1.4389  0.4618  0.3590
14961TIP3    H266299   3.198   4.489  17.007  1.6980  0.6659  0.4152
14962TIP3   OH266300   1.110   6.120  13.238 -0.0066 -0.0911  0.4514
14962TIP3    H166301   1.079   6.210  13.247  2.4630  0.8366  0.0793
14962TIP3    H266302   1.100   6.082  13.325 -0.6981  0.6470  0.6967
14963TIP3   OH266303   4.257   4.978  16.541  0.6285  0.1475 -0.4834
14963TIP3    H166304   4.214   4.900  16.504  1.1080 -1.0972  1.5252
14963TIP3    H266305   4.346   4.948  16.562  0.6524  1.0839  0.7966
14964TIP3   OH266306   3.294   3.438  11.086 -0.3654 -0.3539 -0.2345
14964TIP3    H166307   3.371   3.463  11.034 -0.5078  0.2857 -0.1427
14964TIP3    H266308   3.235   3.513  11.080  0.1638  0.2924  1.8972
14965TIP3   OH266309   3.708   2.157   0.675  0.2020  0.2598  0.2235
14965TIP3    H166310   3.656   2.227   0.634  0.4948 -0.2672 -1.0802
14965TIP3    H266311   3.654   2.128   0.748 -0.6140  0.8305 -0.1352
14966TIP3   OH266312   3.865   2.520  14.461 -0.4836  0.1081 -0.2562
14966TIP3    H166313   3.936   2.551  14.404 -0.0316  0.1210  0.3085
14966TIP3    H266314   3.789   2.571  14.434  0.2284  1.6488  0.5932
14967TIP3   OH266315   2.104   0.006   0.813 -0.4447 -0.1230 -0.4958
14967TIP3    H166316   2.090  -0.062   0.746  0.9409 -1.1237  0.1985
14967TIP3    H266317   2.043  -0.017   0.883  1.0259 -1.4959  0.3487
14968TIP3   OH266318   0.815   4.626   0.907 -0.9565 -0.1432 -0.3519
14968TIP3    H166319   0.721   4.647   0.911 -0.9579 -0.3719  1.1672
14968TIP3    H266320   0.859   4.707   0.930 -0.7369  0.2059 -1.9323
14969TIP3   OH266321   3.938   5.741   3.967 -0.2630  0.2860  0.0639
14969TIP3    H166322   3.897   5.790   4.038  1.7014  0.3927  1.1435
14969TIP3    H266323   3.939   5.651   3.997 -0.3564  0.1708 -0.2750
14970TIP3   OH266324   3.933   6.747   1.281 -0.2873 -0.4012  0.5690
14970TIP3    H166325   3.890   6.735   1.196  0.0558  0.4324  0.2789
14970TIP3    H266326   3.994   6.673   1.287  1.0213  0.5303 -0.7333
14971TIP3   OH266327   3.626   1.751  13.453 -0.2412  0.6973 -0.4003
14971TIP3    H166328   3.578   1.822  13.495 -1.5689 -1.3859  1.6862
14971TIP3    H266329   3.561   1.682  13.439  1.4519 -0.9431 -0.4230
14972TIP3   OH266330   4.791   3.468   3.535 -0.3805  0.0969 -0.0104
14972TIP3    H166331   4.867   3.409   3.536  0.2733  0.9370  2.3208
14972TIP3    H266332   4.823   3.547   3.492  0.0123  0.3838  0.8097
14973TIP3   OH266333   1.696   5.407  12.135 -0.0447  0.3283  0.8801
14973TIP3    H166334   1.649   5.325  12.114  0.1818 -0.0020  1.6399
14973TIP3    H266335   1.698   5.455  12.053 -0.7474 -0.1534  0.5740
14974TIP3   OH266336   6.240   2.954   3.424  0.3833 -0.1590  0.6694
14974TIP3    H166337   6.187   3.023   3.384  0.8661 -0.3028 -0.2529
14974TIP3    H266338   6.321   2.954   3.373 -0.5872 -3.0736 -1.0134
14975TIP3   OH266339   3.928   6.094   1.836  0.1994  0.2385  0.5721
14975TIP3    H166340   3.893   6.183   1.840  1.1395  0.6491 -0.2008
14975TIP3    H266341   3.957   6.083   1.746 -1.2640 -1.3934  0.2754
14976TIP3   OH266342   4.782   0.198   1.376  0.2508  0.2250  0.2934
14976TIP3    H166343   4.731   0.135   1.427 -1.1647  1.3114  0.2476
14976TIP3    H266344   4.846   0.144   1.329  1.2663 -0.8444  2.7871
14977TIP3   OH266345   2.438   5.696   3.270  0.2858 -0.7309 -0.5309
14977TIP3    H166346   2.500   5.626   3.247 -0.5158 -1.1447 -1.4610
14977TIP3    H266347   2.459   5.717   3.361 -1.2947 -4.1161  0.6971
14978TIP3   OH266348   4.662   5.912   0.106  0.1973 -0.4646  0.3955
14978TIP3    H166349   4.676   5.873   0.192  2.7908  0.5443  0.5025
14978TIP3    H266350   4.721   5.988   0.105 -1.4653  0.8386 -1.4284
14979TIP3   OH266351   3.149   6.362  16.336  0.4008 -0.7413 -0.1948
14979TIP3    H166352   3.087   6.375  16.265  0.8429  0.9068 -0.3010
14979TIP3    H266353   3.160   6.449  16.375  2.4028 -1.0568  0.0163
14980TIP3   OH266354   5.581   4.268   3.871 -0.1700 -0.0870  0.1940
14980TIP3    H166355   5.554   4.338   3.811  1.1193  0.2062 -0.0549
14980TIP3    H266356   5.579   4.308   3.958  1.1973  0.4595 -0.0168
14981TIP3   OH266357   0.583   5.197   2.292  0.0040  0.8172  0.5406
14981TIP3    H166358   0.579   5.199   2.388  0.9717  1.7584  0.5851
14981TIP3    H266359   0.676   5.210   2.273  0.1666 -1.6672 -0.4904
14982TIP3   OH266360   0.431   4.172  11.346  0.6340  0.2500 -0.5163
14982TIP3    H166361   0.361   4.151  11.408 -0.6043  0.3441 -1.8351
14982TIP3    H266362   0.481   4.241  11.388 -0.4551  0.6289  0.1820
14983TIP3   OH266363   3.406   3.598  14.861 -0.1588 -0.3903 -0.0074
14983TIP3    H166364   3.475   3.647  14.816 -0.2043  0.0014  0.3486
14983TIP3    H266365   3.372   3.659  14.926  0.1196 -1.0586  0.7665
14984TIP3   OH266366   5.941   6.402  15.974 -0.1578 -0.3140  0.3545
14984TIP3    H166367   6.007   6.467  15.999  0.4958 -0.9365  0.2699
14984TIP3    H266368   5.863   6.427  16.024 -0.6354  1.9085 -1.4012
14985TIP3   OH266369   4.774   0.936  14.964 -0.1171 -0.1633  0.1118
14985TIP3    H166370   4.753   0.959  15.054 -0.2637 -0.1426  0.0721
14985TIP3    H266371   4.763   0.841  14.960 -1.0217 -0.0507 -0.1262
14986TIP3   OH266372   6.255   5.371  16.474  0.7847  0.1282  0.1973
14986TIP3    H166373   6.284   5.458  16.445 -0.7418  0.0451 -1.7163
14986TIP3    H266374   6.202   5.388  16.551  0.0596  0.9786 -0.4714
14987TIP3   OH266375   0.946   3.396  11.012  0.0711  0.4465 -0.2334
14987TIP3    H166376   0.906   3.437  11.088 -0.7343  1.2556 -1.0727
14987TIP3    H266377   1.002   3.463  10.974  0.8213 -0.0994 -0.1080
14988TIP3   OH266378   0.050   3.781   3.259  0.3417 -0.1493  0.5286
14988TIP3    H166379   0.004   3.752   3.180 -1.2931  0.6271  1.1769
14988TIP3    H266380   0.110   3.709   3.279  0.0556 -0.7932 -0.8425
14989TIP3   OH266381   1.037   4.716   2.870 -0.2427  0.3330  0.3890
14989TIP3    H166382   0.954   4.748   2.834 -0.0426 -1.7397 -2.0181
14989TIP3    H266383   1.012   4.675   2.953 -1.9699 -1.9356 -1.1784
14990TIP3   OH266384   4.161   2.622  11.169  0.7560  0.0518 -0.3525
14990TIP3    H166385   4.140   2.689  11.235 -1.6358 -1.4931  0.4956
14990TIP3    H266386   4.223   2.564  11.213  2.1153  1.1369 -0.7815
14991TIP3   OH266387   2.952   1.167  12.873 -0.0769 -0.1364 -0.0131
14991TIP3    H166388   3.016   1.194  12.808 -0.5694  1.5168  0.1684
14991TIP3    H266389   2.943   1.072  12.860 -0.1294  0.1591 -2.3016
14992TIP3   OH266390   3.339   6.443   1.297  0.2509 -0.0015 -0.1930
14992TIP3    H166391   3.341   6.380   1.369  1.4942  0.5194  0.2430
14992TIP3    H266392   3.286   6.516   1.330 -1.8164 -1.1105 -0.9688
14993TIP3   OH266393   4.066   4.569  11.144  0.0370  1.1482  0.3709
14993TIP3    H166394   4.033   4.635  11.206  0.7832  0.3640  1.6192
14993TIP3    H266395   4.009   4.494  11.157  0.9606  0.5447  1.0080
14994TIP3   OH266396   6.276   0.794  13.103 -0.4687  0.0792  0.0009
14994TIP3    H166397   6.357   0.745  13.087  0.1856  1.2089 -0.1557
14994TIP3    H266398   6.293   0.843  13.183 -0.8185  0.7075 -0.3094
14995TIP3   OH266399   3.469   4.681   2.855 -0.4380 -0.9137 -0.4887
14995TIP3    H166400   3.508   4.686   2.942 -3.6228  1.5130  0.9034
14995TIP3    H266401   3.527   4.733   2.799  0.8616 -1.3174  0.4664
14996TIP3   OH266402   4.138   3.355  13.103  0.8595  0.6001 -0.0872
14996TIP3    H166403   4.210   3.308  13.146  1.1144  0.6967 -0.4055
14996TIP3    H266404   4.112   3.422  13.166  2.7386  2.2192 -0.9689
14997TIP3   OH266405   2.872   2.712   5.041  0.2575  0.0531 -0.5207
14997TIP3    H166406   2.829   2.796   5.059 -0.0936 -0.4512  1.1042
14997TIP3    H266407   2.920   2.693   5.122  1.5837 -0.5670 -1.4426
14998TIP3   OH266408   0.598   0.414  15.555 -0.0283 -0.3064 -0.5526
14998TIP3    H166409   0.597   0.489  15.496 -1.0162 -0.9723 -1.3997
14998TIP3    H266410   0.506   0.397  15.576  0.3531  0.7203  2.2492
14999TIP3   OH266411   2.480   0.428  15.303  0.8780  0.2500  0.1090
14999TIP3    H166412   2.559   0.466  15.341  1.3715 -2.9099  2.4391
14999TIP3    H266413   2.424   0.410  15.379 -0.6316 -0.7733 -1.2192
15000TIP3   OH266414   6.720   0.656  14.496 -0.5918  0.4435  0.3831
15000TIP3    H166415   6.662   0.583  14.519 -1.2153  0.4020 -1.3268
15000TIP3    H266416   6.783   0.660  14.569 -0.7747 -1.5661  0.6727
15001TIP3   OH266417   3.412   6.274   5.486  0.4406  0.7639 -0.2997
15001TIP3    H166418   3.404   6.232   5.400 -1.2333  0.8445 -0.2033
15001TIP3    H266419   3.380   6.363   5.473  0.3117  0.8194  0.3620
15002TIP3   OH266420   5.902   6.675  14.082 -0.3944 -0.1030  0.1543
15002TIP3    H166421   5.847   6.652  14.157 -1.0833 -1.7676 -0.8240
15002TIP3    H266422   5.965   6.603  14.075 -0.7985 -0.3297 -1.2886
15003TIP3   OH266423   6.623   3.641   2.850  0.5940  0.1798  0.4768
15003TIP3    H166424   6.677   3.686   2.915  0.8383 -1.4150  1.4043
15003TIP3    H266425   6.601   3.557   2.891  0.4288 -0.6926 -1.3443
15004TIP3   OH266426   1.766   4.934  15.333 -0.3466 -0.0221  0.1743
15004TIP3    H166427   1.782   4.883  15.254 -2.1191 -2.4104  1.2962
15004TIP3    H266428   1.844   4.989  15.342  0.1651 -0.1699 -2.8547
15005TIP3   OH266429   5.735   1.870   4.122  0.2025  0.3470 -0.0661
15005TIP3    H166430   5.703   1.953   4.087 -0.8512 -1.0127 -2.4095
15005TIP3    H266431   5.827   1.887   4.144 -0.0871  2.2064 -0.2454
15006TIP3   OH266432   4.943   1.393  10.457  0.2682 -0.3069  0.1020
15006TIP3    H166433   4.929   1.298  10.457 -1.2112 -0.1060  0.0176
15006TIP3    H266434   4.917   1.421  10.369 -3.2262  0.6715  1.3340
15007TIP3   OH266435   5.830   1.909  17.066 -0.2794 -0.7898 -0.4940
15007TIP3    H166436   5.916   1.943  17.093 -0.6534 -1.8031  2.1032
15007TIP3    H266437   5.807   1.963  16.991  2.1782  0.1910 -0.6215
15008TIP3   OH266438   1.109   5.293  15.240 -0.0028 -0.5466  0.1114
15008TIP3    H166439   1.099   5.388  15.234 -3.9271 -0.9065 -0.5304
15008TIP3    H266440   1.137   5.277  15.330  0.5082  1.1954  0.2813
15009TIP3   OH266441   1.344   1.942  15.504  0.7871 -0.1031 -0.3996
15009TIP3    H166442   1.331   1.937  15.409  1.0470 -0.1525 -0.4337
15009TIP3    H266443   1.259   1.916  15.541 -0.3982  3.2650 -0.6257
15010TIP3   OH266444   0.910   5.758  16.570  0.1535  0.4033 -0.5748
15010TIP3    H166445   0.857   5.830  16.537  0.2888  1.5585  1.6805
15010TIP3    H266446   0.957   5.794  16.645 -0.7139 -2.3525  1.3765
15011TIP3   OH266447   1.177   4.442   2.278  0.2755  0.1990  0.0911
15011TIP3    H166448   1.190   4.440   2.373 -1.1510  2.0948  0.3589
15011TIP3    H266449   1.225   4.520   2.249  1.6275 -0.9839 -0.9201
15012TIP3   OH266450   1.900   5.328  14.037 -0.6383  0.0970  0.2120
15012TIP3    H166451   1.811   5.320  14.004 -0.1536  0.5966 -1.2975
15012TIP3    H266452   1.935   5.239  14.034 -0.5888  0.1372 -0.7117
15013TIP3   OH266453   4.104   4.811  12.270  0.0017  0.0560 -0.1971
15013TIP3    H166454   4.059   4.778  12.348  0.0733 -0.4862 -0.3790
15013TIP3    H266455   4.053   4.887  12.243 -1.3757 -1.1259 -0.9640
15014TIP3   OH266456   6.347   2.216  15.734 -0.5748  0.0519 -0.2849
15014TIP3    H166457   6.337   2.129  15.697 -1.6335  0.2604 -0.5200
15014TIP3    H266458   6.261   2.236  15.772  0.2027  0.2297  1.4337
15015TIP3   OH266459   5.859   0.691  16.834  0.0860 -0.5107  0.2605
15015TIP3    H166460   5.861   0.737  16.918 -1.2004  1.3371 -0.6791
15015TIP3    H266461   5.776   0.718  16.794  1.6728  0.4137 -2.5333
15016TIP3   OH266462   6.635   6.230   0.898 -0.0008 -0.3406 -0.5849
15016TIP3    H166463   6.727   6.242   0.920  0.2465 -0.8514 -1.3296
15016TIP3    H266464   6.633   6.222   0.803 -0.4932 -3.0279 -0.3941
15017TIP3   OH266465   1.178   3.429   2.769  0.3574  0.0401 -0.1405
15017TIP3    H166466   1.139   3.347   2.739 -1.7090 -0.1444  2.8437
15017TIP3    H266467   1.245   3.402   2.832  1.8348  0.5695 -1.4460
15018TIP3   OH266468   2.422   0.917  14.010 -0.0136 -0.1792  0.1873
15018TIP3    H166469   2.474   0.855  13.959 -1.0046 -0.9045  0.0342
15018TIP3    H266470   2.343   0.868  14.034 -0.2034  0.5987  1.2167
15019TIP3   OH266471   3.863   6.039   3.080 -0.0148  0.3830  0.2162
15019TIP3    H166472   3.951   6.059   3.111  0.3939  0.3313 -0.9247
15019TIP3    H266473   3.875   5.984   3.003 -1.0322  0.7254 -0.2055
15020TIP3   OH266474   3.649   4.653  11.857  0.0758 -0.6130  0.8136
15020TIP3    H166475   3.713   4.704  11.908  1.1572 -0.1070 -1.0131
15020TIP3    H266476   3.654   4.565  11.894 -1.6833  0.5134  3.8921
15021TIP3   OH266477   0.683   0.607   5.661 -0.1215 -0.2571  0.4474
15021TIP3    H166478   0.654   0.583   5.573 -0.4551 -1.2508  0.8193
15021TIP3    H266479   0.608   0.588   5.717  0.1016  0.3358  0.9550
15022TIP3   OH266480   1.296   5.291   5.291  0.2304 -0.1807  0.5645
15022TIP3    H166481   1.313   5.238   5.213 -0.1828  0.0035  0.3464
15022TIP3    H266482   1.203   5.311   5.286  0.3888  0.5846  0.6386
15023TIP3   OH266483   3.948   0.256   0.140  0.1931  0.3600  0.0167
15023TIP3    H166484   3.975   0.214   0.058  0.0303 -1.9017  1.0906
15023TIP3    H266485   3.853   0.248   0.141  0.1618  0.7556  0.2381
15024TIP3   OH266486   2.885   6.319   2.688  0.4507  0.1556 -0.9830
15024TIP3    H166487   2.873   6.281   2.601 -0.8674 -3.3438  0.6355
15024TIP3    H266488   2.872   6.246   2.748  1.1035  2.5399  2.1984
15025TIP3   OH266489   6.658   1.099  12.701 -0.5038  0.6206 -0.0645
15025TIP3    H166490   6.591   1.052  12.750  1.2222 -0.5990  1.2155
15025TIP3    H266491   6.695   1.033  12.642  0.9357  0.7154  0.7019
15026TIP3   OH266492   1.779   6.239   1.899  0.4545 -0.4581  0.1330
15026TIP3    H166493   1.863   6.215   1.859  0.0639  0.9113 -1.5887
15026TIP3    H266494   1.713   6.191   1.849  0.0581  0.3363 -0.1349
15027TIP3   OH266495   2.393   6.667   5.157  0.0752  0.3692  0.2672
15027TIP3    H166496   2.433   6.584   5.184 -0.0297  0.0202 -0.6375
15027TIP3    H266497   2.318   6.642   5.104 -1.4032  1.0354  2.0225
15028TIP3   OH266498   1.222   1.505  14.644 -0.4018  0.2152 -0.3595
15028TIP3    H166499   1.269   1.578  14.686 -0.1228 -0.8536  1.2507
15028TIP3    H266500   1.288   1.462  14.590 -0.6480  1.3299 -1.5844
15029TIP3   OH266501   2.043   4.340   2.621 -0.8861 -0.3162  0.0507
15029TIP3    H166502   1.954   4.367   2.599 -0.2097  2.4072  0.4648
15029TIP3    H266503   2.099   4.402   2.573  0.7281 -0.4104  1.7775
15030TIP3   OH266504   5.557   3.505  12.163 -0.0724 -0.2120 -0.0062
15030TIP3    H166505   5.643   3.540  12.186 -0.0033 -0.2500 -0.2090
15030TIP3    H266506   5.543   3.433  12.224 -0.5202  0.6172  0.8845
15031TIP3   OH266507   3.829   4.771  15.074 -0.2648 -0.4313 -0.0327
15031TIP3    H166508   3.819   4.705  15.005 -0.3613 -0.5096  0.0548
15031TIP3    H266509   3.758   4.832  15.058 -0.2321 -0.3994 -0.0570
15032TIP3   OH266510   1.355   1.796  16.785 -0.3093  0.2737  0.5640
15032TIP3    H166511   1.377   1.710  16.821 -1.1107  0.6469  1.9785
15032TIP3    H266512   1.382   1.858  16.852 -0.9533  1.0462  0.1116
15033TIP3   OH266513   3.470   2.018   1.637 -0.3582 -0.0813 -0.2372
15033TIP3    H166514   3.389   2.044   1.680  0.5797  1.6651  0.5282
15033TIP3    H266515   3.455   2.039   1.545 -0.2273  1.6919  0.1289
15034TIP3   OH266516   0.150   6.770  16.263 -0.0701 -0.0369  0.4305
15034TIP3    H166517   0.212   6.739  16.329  1.1359  2.1272  0.3776
15034TIP3    H266518   0.204   6.819  16.201 -1.1654 -2.0751 -2.2212
15035TIP3   OH266519   1.929   2.580   2.604 -0.1831  0.4466  0.5441
15035TIP3    H166520   1.912   2.522   2.529 -0.7580 -0.8592  1.6652
15035TIP3    H266521   1.883   2.661   2.582 -0.9443 -0.1700 -0.2075
15036TIP3   OH266522   5.409   2.632  14.028  0.2742  0.3926  0.1296
15036TIP3    H166523   5.434   2.642  14.120 -2.0108 -0.4383  0.8787
15036TIP3    H266524   5.392   2.721  13.998 -0.5290  0.5212  0.9756
15037TIP3   OH266525   3.444   0.592   4.176  0.4740  0.1265  0.7699
15037TIP3    H166526   3.499   0.610   4.100 -2.0559 -0.0048 -1.1617
15037TIP3    H266527   3.458   0.667   4.234  0.9806  1.1704 -0.6785
15038TIP3   OH266528   0.994   2.884  11.737  0.8369 -0.5941 -0.3737
15038TIP3    H166529   0.927   2.863  11.672  0.0189 -0.5837  0.4616
15038TIP3    H266530   0.985   2.977  11.753  0.3013 -0.8108  0.5823
15039TIP3   OH266531   0.298   2.450  13.091  0.3050  0.3859  0.5594
15039TIP3    H166532   0.361   2.433  13.021 -0.1226 -0.0142  0.2669
15039TIP3    H266533   0.324   2.391  13.161 -0.1175 -0.2229  0.2055
15040TIP3   OH266534   2.734   6.678   2.558 -0.3038 -0.3147  0.1832
15040TIP3    H166535   2.801   6.721   2.504 -0.6758 -1.0252 -0.8687
15040TIP3    H266536   2.769   6.682   2.647 -0.8270  3.1068  0.3030
15041TIP3   OH266537   1.397   3.166   5.835 -0.5006 -0.1124 -0.2894
15041TIP3    H166538   1.371   3.180   5.744 -1.1013 -1.2369 -0.3014
15041TIP3    H266539   1.331   3.214   5.886 -1.1272 -0.8278 -0.4072
15042TIP3   OH266540   0.613   5.732   4.941  0.4103 -0.0898 -0.0913
15042TIP3    H166541   0.650   5.802   4.887  2.5085 -1.5936 -0.6454
15042TIP3    H266542   0.685   5.703   4.996  0.1483 -3.1507 -1.2571
15043TIP3   OH266543   1.200   3.929  17.174  0.0103 -0.2897  0.4272
15043TIP3    H166544   1.234   3.911  17.086 -1.8930 -0.8011 -0.2081
15043TIP3    H266545   1.182   4.023  17.174  2.7479  0.2977  1.2614
15044TIP3   OH266546   3.900   2.193   6.225  0.2319  0.4923  0.3129
15044TIP3    H166547   3.994   2.188   6.241  0.1118  1.1030  1.2621
15044TIP3    H266548   3.892   2.236   6.140  0.8442 -1.1561 -0.6079
15045TIP3   OH266549   3.890   6.412   6.623 -0.1035 -0.2700 -0.6606
15045TIP3    H166550   3.851   6.492   6.659  0.6829  0.3171 -1.0850
15045TIP3    H266551   3.894   6.352   6.697 -1.8789 -0.3709 -0.6277
15046TIP3   OH266552   5.472   4.901   2.736 -0.2330 -0.5093 -0.7009
15046TIP3    H166553   5.469   4.863   2.648 -2.2520 -0.8687 -0.4854
15046TIP3    H266554   5.390   4.875   2.776  0.2824  0.4336  0.9893
15047TIP3   OH266555   1.112   4.801   5.104  0.0017 -0.1881  0.0222
15047TIP3    H166556   1.030   4.852   5.106 -1.4059 -2.3603 -0.3200
15047TIP3    H266557   1.143   4.810   5.014  0.7028  1.5015  0.4270
15048TIP3   OH266558   2.268   1.217  11.426 -0.3635  0.9317 -0.1957
15048TIP3    H166559   2.208   1.165  11.373 -0.3086 -2.2521  2.6750
15048TIP3    H266560   2.213   1.258  11.493  0.2688  0.2689  0.7454
15049TIP3   OH266561   6.055   0.494  14.725  0.4018 -0.3181 -0.4045
15049TIP3    H166562   6.001   0.460  14.796 -0.2341 -1.0906 -1.2594
15049TIP3    H266563   6.137   0.445  14.732  0.1333 -0.7867 -0.5539
15050TIP3   OH266564   5.154   0.476  12.621  0.2025 -0.2299  0.3317
15050TIP3    H166565   5.096   0.501  12.694 -0.7231 -2.3401  0.3490
15050TIP3    H266566   5.196   0.395  12.650  3.8999  1.6822  0.6791
15051TIP3   OH266567   2.909   3.047   2.510  0.2824 -0.1935  0.0328
15051TIP3    H166568   2.888   3.008   2.595  0.0672  0.6975  0.3983
15051TIP3    H266569   2.973   2.988   2.471 -0.4235 -1.1745  0.3530
15052TIP3   OH266570   0.572   3.055   4.341 -0.1242  0.0243  0.2704
15052TIP3    H166571   0.500   3.107   4.376  0.1879  1.1045 -0.6631
15052TIP3    H266572   0.594   2.993   4.411 -2.2728 -0.6438  0.3692
15053TIP3   OH266573   2.377   1.064  13.800  0.0863 -0.8181  0.5324
15053TIP3    H166574   2.298   1.117  13.813  0.6074 -0.1085  0.7968
15053TIP3    H266575   2.379   1.006  13.876 -0.9341 -1.8030 -0.1676
15054TIP3   OH266576   0.392   2.660  14.130  0.0621 -0.2118 -0.8383
15054TIP3    H166577   0.326   2.597  14.160  0.2451 -0.7687 -1.6254
15054TIP3    H266578   0.476   2.617  14.145  0.2534  0.4646  0.0783
15055TIP3   OH266579   2.192   1.778  17.197 -0.3633  0.2046 -0.0231
15055TIP3    H166580   2.230   1.743  17.277 -0.0170 -1.0824 -0.7368
15055TIP3    H266581   2.261   1.832  17.159 -0.8663  1.6096  1.0274
15056TIP3   OH266582   6.229   6.492   3.510 -0.3909  0.1752  0.2650
15056TIP3    H166583   6.235   6.509   3.416 -0.9121  1.7529  0.4955
15056TIP3    H266584   6.136   6.489   3.528 -0.3199 -2.2320  0.4017
15057TIP3   OH266585   5.110   2.851   5.298  0.0436 -0.1262  0.2752
15057TIP3    H166586   5.020   2.822   5.285 -0.4619  1.2507  0.6374
15057TIP3    H266587   5.104   2.946   5.306  1.7102  0.1409 -1.2957
15058TIP3   OH266588   5.353   3.192   2.842 -0.0857  0.7262 -0.4111
15058TIP3    H166589   5.375   3.284   2.859  1.6303  0.3903 -0.6619
15058TIP3    H266590   5.405   3.170   2.764 -0.6851 -0.3820 -0.4986
15059TIP3   OH266591   2.504   3.531   3.278 -0.2568  0.8170  0.1107
15059TIP3    H166592   2.463   3.553   3.361  0.3640  0.1561  0.5983
15059TIP3    H266593   2.597   3.524   3.298 -0.2232 -0.3952 -0.4158
15060TIP3   OH266594   2.213   1.603  11.276 -0.3767  0.0350  0.1276
15060TIP3    H166595   2.232   1.685  11.232 -1.2391  0.6494  0.8831
15060TIP3    H266596   2.142   1.564  11.226  0.2741 -0.4389 -0.4456
15061TIP3   OH266597   2.171   1.232  13.890  0.6933  0.3421 -0.3266
15061TIP3    H166598   2.106   1.265  13.828  1.1346 -0.5592 -1.2839
15061TIP3    H266599   2.137   1.148  13.919  1.7400 -0.4257 -1.3205
15062TIP3   OH266600   6.653   0.267   3.899  0.4998  1.2488  0.9242
15062TIP3    H166601   6.573   0.295   3.853  0.6493  0.8063  0.4014
15062TIP3    H266602   6.625   0.192   3.952  0.8460  0.3465 -0.1792
15063TIP3   OH266603   4.759   4.632   0.963 -0.3450  0.5656 -0.5612
15063TIP3    H166604   4.793   4.576   1.033 -0.1979  0.5332 -0.6585
15063TIP3    H266605   4.768   4.579   0.884  0.8292  1.1313 -0.8296
15064TIP3   OH266606   0.912   6.536  12.620  0.1495  0.2812 -0.4027
15064TIP3    H166607   0.998   6.543  12.578  0.2619  1.0231 -0.0652
15064TIP3    H266608   0.892   6.443  12.619  0.3173  0.2586 -1.7642
15065TIP3   OH266609   2.517   2.003  17.212 -0.2948 -0.3616  0.2313
15065TIP3    H166610   2.478   2.071  17.158 -0.6678 -1.0008 -0.3113
15065TIP3    H266611   2.504   1.922  17.162  0.7135 -0.7409  0.5704
15066TIP3   OH266612   5.971   1.975   4.166  0.3262  0.0234 -0.4823
15066TIP3    H166613   5.981   2.069   4.154  1.2510 -0.2134 -1.6413
15066TIP3    H266614   6.052   1.946   4.207 -0.1574 -0.2109  0.3420
15067TIP3   OH266615   6.252   2.550   5.034 -0.0415  0.5118 -0.4311
15067TIP3    H166616   6.187   2.614   5.063 -0.2505 -0.3511  1.0451
15067TIP3    H266617   6.203   2.492   4.976 -0.5502  0.0136  0.4775
15068TIP3   OH266618   3.923   2.512   0.535  0.2918 -0.2921  0.0184
15068TIP3    H166619   3.856   2.545   0.595  0.7425  0.7966 -0.0690
15068TIP3    H266620   3.878   2.506   0.450 -0.2605 -1.5430  0.3856
15069TIP3   OH266621   4.122   2.049  14.946 -0.5131  0.0067 -0.1130
15069TIP3    H166622   4.082   2.092  15.021  0.3490  0.3201  0.1641
15069TIP3    H266623   4.094   1.958  14.953 -1.1271  0.2101  0.1159
15070TIP3   OH266624   4.492   2.728   5.515  0.1959  0.4026 -0.4993
15070TIP3    H166625   4.520   2.752   5.603 -1.2280 -1.3654  0.4904
15070TIP3    H266626   4.571   2.696   5.472  0.6010 -0.1953  0.6701
15071TIP3   OH266627   3.353   0.093  13.494 -0.6877  0.1889  0.5352
15071TIP3    H166628   3.283   0.106  13.559 -1.1573  1.2495 -0.1683
15071TIP3    H266629   3.354   0.174  13.444  0.6709 -0.0559  0.1603
15072TIP3   OH266630   4.834   5.504  13.266  0.5435 -0.5628 -0.3676
15072TIP3    H166631   4.786   5.431  13.229  1.4623 -0.7397 -1.2406
15072TIP3    H266632   4.767   5.564  13.298 -0.2116 -2.1433  1.0853
15073TIP3   OH266633   6.645   2.720   6.360  0.4932  0.0806  0.1045
15073TIP3    H166634   6.664   2.790   6.422  0.9917  0.1467 -0.1193
15073TIP3    H266635   6.561   2.684   6.389  0.8043 -0.0016  0.9122
15074TIP3   OH266636   2.984   3.411  10.292  0.0222 -0.3481 -0.4635
15074TIP3    H166637   3.048   3.341  10.279  0.3127  0.0776 -1.3924
15074TIP3    H266638   2.909   3.368  10.332  0.7422 -0.9263  0.2835
15075TIP3   OH266639   5.697   4.640   2.002 -0.1043 -0.1220  0.4738
15075TIP3    H166640   5.628   4.577   1.980 -0.1438  0.0597  0.0729
15075TIP3    H266641   5.649   4.721   2.023  0.0442  0.4312 -1.2283
15076TIP3   OH266642   5.269   2.923   4.957  0.2709 -0.3188 -0.4863
15076TIP3    H166643   5.233   2.847   4.910 -0.2396 -0.8861  0.7864
15076TIP3    H266644   5.192   2.969   4.990  0.5332  1.3654 -2.1511
15077TIP3   OH266645   3.645   3.525   0.343  0.5336 -0.4474  0.2726
15077TIP3    H166646   3.598   3.450   0.380  0.1250  0.5741  1.8498
15077TIP3    H266647   3.655   3.586   0.416 -0.8543  1.9028 -1.4218
15078TIP3   OH266648   5.020   1.054   1.777 -0.0950 -0.5065  0.1768
15078TIP3    H166649   4.930   1.087   1.770  0.6389  1.2261 -1.5857
15078TIP3    H266650   5.060   1.077   1.694  1.3740 -3.2136  0.0985
15079TIP3   OH266651   4.242   5.182  11.593 -0.1654 -0.0453  0.4956
15079TIP3    H166652   4.204   5.239  11.526  1.6209 -0.8554 -1.2644
15079TIP3    H266653   4.197   5.206  11.674 -1.5937  1.7199 -0.7895
15080TIP3   OH266654   2.545   4.625  17.171 -0.1417  0.2640 -0.0843
15080TIP3    H166655   2.505   4.567  17.106 -0.0865 -0.4870  0.5472
15080TIP3    H266656   2.488   4.702  17.172 -0.0164  0.3727 -1.1837
15081TIP3   OH266657   2.006   5.379   0.271  0.1448  0.4944  1.1762
15081TIP3    H166658   2.054   5.456   0.240  0.0779  0.7158  1.6187
15081TIP3    H266659   2.065   5.339   0.335  0.8622 -0.7251 -0.2099
15082TIP3   OH266660   3.604   0.733   3.966  0.0612 -0.0061 -0.4003
15082TIP3    H166661   3.601   0.682   3.885 -0.6736  1.0043 -1.0142
15082TIP3    H266662   3.680   0.698   4.013 -0.8850 -2.1959 -0.4504
15083TIP3   OH266663   4.470   4.405   5.219  0.6462 -0.5132  0.2718
15083TIP3    H166664   4.467   4.376   5.310 -0.5127  0.4098  0.5548
15083TIP3    H266665   4.439   4.496   5.222  1.2775 -0.2411 -0.9557
15084TIP3   OH266666   3.631   4.593  14.301 -0.1423 -0.0678  0.0288
15084TIP3    H166667   3.645   4.678  14.261 -0.1389  0.1261  0.4437
15084TIP3    H266668   3.693   4.535  14.256  0.4498  0.3239  0.3367
15085TIP3   OH266669   6.010   5.069   2.119 -0.1059 -0.2079  0.3642
15085TIP3    H166670   6.097   5.045   2.087 -0.6141 -0.0454 -1.1985
15085TIP3    H266671   6.020   5.158   2.152  0.1121  0.1782 -0.7222
15086TIP3   OH266672   3.437   1.834  15.406  0.3594  0.1491  0.1172
15086TIP3    H166673   3.350   1.797  15.417  0.1791  0.1291 -1.2055
15086TIP3    H266674   3.426   1.900  15.337  1.0639  1.3118  1.0901
15087TIP3   OH266675   5.489   0.907  15.909  0.2648 -0.2854  0.0988
15087TIP3    H166676   5.561   0.846  15.927  0.5670 -0.1206 -0.5219
15087TIP3    H266677   5.530   0.993  15.917 -0.0924 -0.1690  0.6803
15088TIP3   OH266678   6.175   0.766  10.226  0.2808 -0.0732  0.1790
15088TIP3    H166679   6.184   0.685  10.276 -0.6497  0.7949  1.8302
15088TIP3    H266680   6.131   0.740  10.145  0.7280 -1.3327  0.3280
15089TIP3   OH266681   5.928   1.144   5.409 -0.4337  0.1285 -0.0823
15089TIP3    H166682   5.992   1.210   5.437 -1.4188  1.5988 -1.2275
15089TIP3    H266683   5.870   1.134   5.484 -1.0345  1.5300 -0.3403
15090TIP3   OH266684   1.795   6.224   4.677  0.2567 -0.9799 -0.4805
15090TIP3    H166685   1.855   6.184   4.613 -0.1066 -0.6927 -1.0088
15090TIP3    H266686   1.715   6.171   4.670  0.2133 -0.9425 -0.2636
15091TIP3   OH266687   5.287   0.746   0.018 -0.2663  0.3469  0.1510
15091TIP3    H166688   5.369   0.719  -0.023  0.0019 -0.5371  1.2142
15091TIP3    H266689   5.287   0.841   0.012  0.7410  0.3406 -0.0597
15092TIP3   OH266690   2.952   6.442  13.723 -0.0909 -0.0252  1.1188
15092TIP3    H166691   3.010   6.415  13.652 -0.0866 -0.4722  1.2854
15092TIP3    H266692   2.902   6.515  13.688  0.6379  0.4264  1.0043
15093TIP3   OH266693   0.558   4.983  12.345  0.0760  0.4899  0.3062
15093TIP3    H166694   0.592   4.939  12.423  1.9680  0.3583 -0.5561
15093TIP3    H266695   0.627   5.044  12.321 -0.0484 -0.1824 -1.8394
15094TIP3   OH266696   1.289   6.689  14.900  0.1367  0.3575  0.3537
15094TIP3    H166697   1.308   6.745  14.975 -0.5450 -0.3187  1.0422
15094TIP3    H266698   1.217   6.733  14.855  0.1874  0.4888  0.4019
15095TIP3   OH266699   1.998   0.442   4.347  0.2416  0.3672 -0.0636
15095TIP3    H166700   1.904   0.462   4.355  0.2359  0.6570 -0.8072
15095TIP3    H266701   2.008   0.413   4.256  0.6377 -0.9535  0.3942
15096TIP3   OH266702   5.666   3.795  15.939  0.3716 -1.1578  0.6043
15096TIP3    H166703   5.588   3.791  15.885  1.0880  2.6102 -0.8469
15096TIP3    H266704   5.634   3.814  16.027 -0.4007  0.4476  0.0029
15097TIP3   OH266705   5.232   5.027  15.451  0.6630  0.4826  0.7449
15097TIP3    H166706   5.148   5.035  15.406  0.3132  0.6514  1.4295
15097TIP3    H266707   5.297   5.041  15.382  0.1416 -0.2471  0.0973
15098TIP3   OH266708   0.337   5.903   2.014  0.1805  0.0049 -0.4384
15098TIP3    H166709   0.355   5.973   2.077  0.1720 -0.2380 -0.1623
15098TIP3    H266710   0.242   5.904   2.004 -0.1985 -2.2516  2.2564
15099TIP3   OH266711   2.911   0.987   3.093  0.2640  0.8082  0.1204
15099TIP3    H166712   2.922   1.071   3.048  0.0492  1.8678  1.9801
15099TIP3    H266713   2.993   0.974   3.140 -1.0026  1.7607  2.6841
15100TIP3   OH266714   0.200   5.310  15.602  0.5969  0.6076  0.1162
15100TIP3    H166715   0.169   5.341  15.517  2.8696 -0.2612 -1.0887
15100TIP3    H266716   0.252   5.382  15.636  0.7771  0.4538  0.1654
15101TIP3   OH266717   3.651   5.631   4.743  0.0010  0.5135  0.2242
15101TIP3    H166718   3.720   5.697   4.752 -0.5292  0.7173  3.3528
15101TIP3    H266719   3.577   5.679   4.704  0.3236  1.2546  0.5101
15102TIP3   OH266720   0.805   6.663  11.274  0.5003  0.5268 -0.2144
15102TIP3    H166721   0.779   6.699  11.188  0.0497  1.5438  0.3302
15102TIP3    H266722   0.793   6.737  11.334 -0.0424 -0.4433  0.8704
15103TIP3   OH266723   1.749   4.523  13.720  0.3782  0.0884  0.3518
15103TIP3    H166724   1.822   4.494  13.775  2.0711 -0.0934 -1.9384
15103TIP3    H266725   1.790   4.580  13.655 -1.7282  0.9622 -0.2385
15104TIP3   OH266726   1.645   6.759   4.343 -0.1563  0.4860  0.3727
15104TIP3    H166727   1.575   6.742   4.281  1.0676  1.3953 -1.3063
15104TIP3    H266728   1.710   6.691   4.324  0.2079  0.7438  0.6846
15105TIP3   OH266729   0.289   4.347   2.846 -0.2976  0.2680  0.2857
15105TIP3    H166730   0.233   4.290   2.793  0.4963 -0.4307  0.1878
15105TIP3    H266731   0.278   4.314   2.936  0.3424 -0.2042  0.1976
15106TIP3   OH266732   0.434   6.120   5.519  0.3718 -0.0410  0.2205
15106TIP3    H166733   0.517   6.167   5.533 -0.2368  1.2704 -0.5132
15106TIP3    H266734   0.376   6.186   5.481 -0.2792 -1.5862 -1.5006
15107TIP3   OH266735   6.785   3.970   2.227 -0.1012 -0.6543  0.8487
15107TIP3    H166736   6.833   3.915   2.288  1.1495 -0.3310  0.1592
15107TIP3    H266737   6.789   4.058   2.265  2.2943 -0.0952 -0.6200
15108TIP3   OH266738   5.135   1.246   5.907 -0.0214 -0.3163  0.3219
15108TIP3    H166739   5.072   1.267   5.838 -0.6724  0.5725  1.1858
15108TIP3    H266740   5.219   1.239   5.861 -0.3074  1.1043 -0.4331
15109TIP3   OH266741   0.987   6.737  12.908  0.1671  0.6648 -0.3909
15109TIP3    H166742   0.917   6.800  12.889 -0.2068  0.5820  0.6540
15109TIP3    H266743   0.973   6.714  13.000  0.5954 -0.5787 -0.6344
15110TIP3   OH266744   0.666   6.043  10.874 -0.0266 -0.4417 -0.4903
15110TIP3    H166745   0.606   6.000  10.812 -0.0834  1.6660 -1.9551
15110TIP3    H266746   0.753   6.018  10.844 -0.0776 -0.1309 -0.9070
15111TIP3   OH266747   3.821   3.766   0.365  0.1476 -0.2381 -0.4626
15111TIP3    H166748   3.781   3.696   0.314  0.0853 -2.0985  2.0073
15111TIP3    H266749   3.763   3.776   0.440  1.3496  0.9084  0.3324
15112TIP3   OH266750   0.685   6.160   3.149  0.0106  0.2582  0.1432
15112TIP3    H166751   0.657   6.232   3.092 -0.2868 -0.6037 -0.8205
15112TIP3    H266752   0.780   6.172   3.158  0.2059 -0.0734 -1.2593
15113TIP3   OH266753   6.655   5.605   1.420 -0.1712 -0.9710  0.2899
15113TIP3    H166754   6.626   5.534   1.477 -0.3199 -1.4800 -0.4147
15113TIP3    H266755   6.682   5.562   1.339 -0.1209 -0.2395 -0.0929
15114TIP3   OH266756   3.360   6.538   6.787  0.1284  0.5561 -0.2272
15114TIP3    H166757   3.301   6.501   6.721 -0.6895  1.6003 -0.1045
15114TIP3    H266758   3.319   6.622   6.811  0.1894  0.0150  1.8944
15115TIP3   OH266759   3.996   2.452  12.691 -0.1287 -0.3711 -0.0918
15115TIP3    H166760   4.049   2.523  12.728  0.5085 -1.3677  0.9332
15115TIP3    H266761   3.994   2.385  12.760  0.3994 -1.9097 -1.5453
15116TIP3   OH266762   0.433   3.528   4.720 -0.6630 -0.6708 -0.2220
15116TIP3    H166763   0.518   3.534   4.763 -0.4806 -0.1780 -0.6402
15116TIP3    H266764   0.442   3.456   4.658 -0.5322 -0.5839 -0.3042
15117TIP3   OH266765   3.316   6.676  15.465  0.8144  0.1330 -0.3308
15117TIP3    H166766   3.350   6.691  15.376  0.8833 -1.6064 -0.6023
15117TIP3    H266767   3.375   6.611  15.502 -0.1595 -0.3229  0.4302
15118TIP3   OH266768   1.211   0.722  13.827  0.2649  0.6973 -0.3773
15118TIP3    H166769   1.250   0.707  13.741  0.6262 -0.3603 -0.0403
15118TIP3    H266770   1.216   0.817  13.840  0.6287  0.8063 -1.3239
15119TIP3   OH266771   1.950   2.246  10.984 -0.0552 -0.9726  0.2787
15119TIP3    H166772   1.880   2.181  10.980 -0.5023 -0.5668  1.3309
15119TIP3    H266773   1.909   2.327  10.952  0.4998 -1.2086 -1.0345
15120TIP3   OH266774   5.111   0.389   2.425  0.4078 -0.2743 -0.1024
15120TIP3    H166775   5.110   0.455   2.494  0.0885 -0.4442  0.0568
15120TIP3    H266776   5.060   0.428   2.354  3.2044  1.1187 -1.3873
15121TIP3   OH266777   6.382   1.463  15.966  0.2926 -0.1554 -0.2095
15121TIP3    H166778   6.456   1.522  15.981 -0.5981  0.8333  0.3675
15121TIP3    H266779   6.321   1.513  15.913 -0.6978 -0.3557  0.7069
15122TIP3   OH266780   1.825   4.657  16.236  0.2725  0.1017  0.3268
15122TIP3    H166781   1.826   4.565  16.207 -1.0686  0.2396 -0.1661
15122TIP3    H266782   1.743   4.692  16.202  0.6627  1.4275  0.7332
15123TIP3   OH266783   2.092   0.512   1.097  0.4122 -0.1005 -0.1712
15123TIP3    H166784   2.023   0.572   1.069 -0.5618 -0.8103  0.6589
15123TIP3    H266785   2.165   0.529   1.037 -0.1705  1.2690 -0.5015
15124TIP3   OH266786   3.478   3.046  15.000 -0.0949 -0.0397 -0.3896
15124TIP3    H166787   3.523   2.961  14.993  0.3192  0.1937 -0.5944
15124TIP3    H266788   3.499   3.090  14.918  0.2760  0.5454  0.0213
15125TIP3   OH266789   4.953   3.605   4.592  0.1262 -0.1862 -0.0394
15125TIP3    H166790   4.906   3.617   4.674 -0.0140 -0.2682 -0.1093
15125TIP3    H266791   5.005   3.685   4.583 -1.1471  0.5841 -0.7159
15126TIP3   OH266792   2.769   2.639  16.633  0.4166  0.0942 -0.1299
15126TIP3    H166793   2.684   2.596  16.623  0.7055 -0.1528 -1.5046
15126TIP3    H266794   2.755   2.699  16.707 -0.6200 -0.7380  0.3855
15127TIP3   OH266795   6.423   6.286  14.302  0.4798 -0.4196 -0.5304
15127TIP3    H166796   6.388   6.292  14.391  0.5598  1.4641 -0.5920
15127TIP3    H266797   6.364   6.226  14.257 -0.5749 -0.0687  0.3430
15128TIP3   OH266798   4.198   3.675  13.242  0.3213  0.4384 -0.0051
15128TIP3    H166799   4.214   3.723  13.161  0.0895  2.4126  1.0952
15128TIP3    H266800   4.113   3.633  13.228  1.0037 -0.5177 -1.3707
15129TIP3   OH266801   5.784   1.374  16.027 -0.0296 -0.0231 -0.2493
15129TIP3    H166802   5.764   1.463  16.058  2.3472  0.5075 -0.1652
15129TIP3    H266803   5.874   1.359  16.055  0.1450 -1.8347 -1.7402
15130TIP3   OH266804   2.497   5.974   4.115 -0.5043 -0.0168  0.3486
15130TIP3    H166805   2.520   6.061   4.149 -1.1707  0.0682  0.5968
15130TIP3    H266806   2.575   5.921   4.129  0.8281  1.2030 -2.1452
15131TIP3   OH266807   4.338   2.213  11.114  0.4848  0.2605  0.1324
15131TIP3    H166808   4.344   2.307  11.096 -0.3212  0.5247  1.2080
15131TIP3    H266809   4.288   2.178  11.039 -0.1684  0.8680  0.2781
15132TIP3   OH266810   4.712   3.945  11.551  0.7689 -0.2614  0.1426
15132TIP3    H166811   4.628   3.917  11.515  0.8046  1.5027 -1.4434
15132TIP3    H266812   4.773   3.875  11.528  0.2920 -0.2522 -1.1804
15133TIP3   OH266813   5.258   0.354   4.874 -0.0980 -0.1043  0.5372
15133TIP3    H166814   5.351   0.370   4.888 -0.1113  0.4429  0.0057
15133TIP3    H266815   5.246   0.262   4.897 -0.1381  0.7462  4.1092
15134TIP3   OH266816   2.140   3.928   0.440  0.0071 -0.2365 -0.2788
15134TIP3    H166817   2.162   3.874   0.515 -0.4083 -0.1570 -0.0965
15134TIP3    H266818   2.165   3.875   0.364  1.4429  0.1368 -0.0672
15135TIP3   OH266819   3.892   2.548  11.551  0.4976  0.0996  0.1391
15135TIP3    H166820   3.841   2.627  11.571 -0.8162 -0.8388  0.5923
15135TIP3    H266821   3.876   2.490  11.625  1.8869 -0.3975  0.0598
15136TIP3   OH266822   2.855   1.261  16.506  0.3436 -0.3885  0.1273
15136TIP3    H166823   2.829   1.330  16.445 -0.6797  0.2009  1.2005
15136TIP3    H266824   2.779   1.204  16.511 -0.0611  0.2557  1.7798
15137TIP3   OH266825   0.628   2.950  16.716  0.0441  0.1218 -0.0305
15137TIP3    H166826   0.648   2.979  16.627 -0.3259 -0.8210 -0.4233
15137TIP3    H266827   0.710   2.964  16.764 -0.0163  1.4747 -0.2904
15138TIP3   OH266828   1.492   5.278   0.617  0.4590  0.7041  0.1082
15138TIP3    H166829   1.445   5.222   0.679 -0.0627  0.6777 -0.3051
15138TIP3    H266830   1.507   5.359   0.664 -0.3538  0.8540  0.1172
15139TIP3   OH266831   2.607   1.110   1.035 -0.4253 -0.1356 -0.0147
15139TIP3    H166832   2.544   1.112   0.964 -1.1193 -0.0717  0.6013
15139TIP3    H266833   2.637   1.200   1.044 -1.0473  0.0290  0.4076
15140TIP3   OH266834   3.829   2.674  14.748 -0.2298 -0.0562 -0.1109
15140TIP3    H166835   3.897   2.691  14.682 -0.3773  2.7034  0.3825
15140TIP3    H266836   3.876   2.671  14.831 -0.7906  3.3682  0.4144
15141TIP3   OH266837   1.354   3.806  14.390 -0.2573 -0.5499  0.0069
15141TIP3    H166838   1.363   3.896  14.421 -1.3941 -0.0771 -0.9803
15141TIP3    H266839   1.442   3.770  14.393  0.0450  0.2577  1.4156
15142TIP3   OH266840   1.993   1.350  13.356 -0.5980  0.1266 -0.7320
15142TIP3    H166841   1.995   1.419  13.422 -1.3253 -0.0096 -0.5617
15142TIP3    H266842   2.071   1.366  13.302  0.7159 -0.5422  0.9454
15143TIP3   OH266843   2.455   6.563   0.952  0.1887 -0.5124 -0.6285
15143TIP3    H166844   2.507   6.621   0.896  0.3738 -0.3474 -0.2841
15143TIP3    H266845   2.403   6.511   0.890  1.1202 -1.0164 -1.0066
15144TIP3   OH266846   3.906   3.779   3.246  0.4893 -0.1088 -0.1685
15144TIP3    H166847   3.973   3.833   3.203 -0.4795 -0.2561 -1.9515
15144TIP3    H266848   3.911   3.695   3.200  0.3681 -0.7513  0.9825
15145TIP3   OH266849   5.123   6.708  14.987 -0.3068  0.2256  0.1234
15145TIP3    H166850   5.200   6.685  15.038  0.8310  0.1104 -1.6020
15145TIP3    H266851   5.153   6.777  14.927 -0.9570 -1.3212 -2.0533
15146TIP3   OH266852   1.459   2.255  15.014  0.1990  0.3415 -1.0094
15146TIP3    H166853   1.452   2.309  15.093 -0.0055  0.5225 -1.1478
15146TIP3    H266854   1.458   2.165  15.045 -0.1818  0.4093 -0.8295
15147TIP3   OH266855   2.677   2.011   1.231 -0.7738  0.4750 -0.1491
15147TIP3    H166856   2.739   2.084   1.229  3.0272 -2.5114  1.6672
15147TIP3    H266857   2.680   1.974   1.142  1.4773 -0.6942  0.3755
15148TIP3   OH266858   1.944   5.655   1.644  0.3634  0.1487 -0.0510
15148TIP3    H166859   1.871   5.713   1.621 -0.1917 -0.9455 -1.0705
15148TIP3    H266860   1.931   5.636   1.737 -1.2886 -0.9502 -0.5006
15149TIP3   OH266861   5.664   6.325   0.927  0.6506  0.1047  0.2607
15149TIP3    H166862   5.677   6.420   0.928  0.0107  0.1967  0.4794
15149TIP3    H266863   5.585   6.312   0.874  0.8550 -0.3217  0.0589
15150TIP3   OH266864   5.595   3.014  12.780 -0.1618  0.3604 -0.4580
15150TIP3    H166865   5.563   2.997  12.692  0.6157 -0.4330 -0.6004
15150TIP3    H266866   5.562   3.101  12.802  0.9354  1.2033 -2.1168
15151TIP3   OH266867   3.858   2.497  13.488 -0.1211 -0.3646 -0.4490
15151TIP3    H166868   3.944   2.508  13.529 -0.6669  0.2437  0.5784
15151TIP3    H266869   3.807   2.448  13.552 -0.5748 -0.6081 -0.9963
15152TIP3   OH266870   0.223   0.223   0.996  0.4334  0.8879  0.1052
15152TIP3    H166871   0.217   0.192   1.086  0.3247  1.2941  0.2399
15152TIP3    H266872   0.271   0.154   0.949  0.4476  0.6571  0.4625
15153TIP3   OH266873   6.279   3.065   4.497 -0.1079 -0.4271 -0.1071
15153TIP3    H166874   6.274   2.977   4.460  0.6749 -1.1716  1.5075
15153TIP3    H266875   6.316   3.118   4.427  1.3062 -1.8005 -0.4365
15154TIP3   OH266876   1.489   4.805   2.867 -0.3039 -0.9391 -0.1080
15154TIP3    H166877   1.428   4.734   2.846 -0.3145 -0.9732  0.0365
15154TIP3    H266878   1.458   4.879   2.814  0.9680 -1.6356 -1.8533
15155TIP3   OH266879   0.431   2.641   4.773  0.7799  0.6261  0.1446
15155TIP3    H166880   0.490   2.683   4.835  2.6230  0.9683 -1.7631
15155TIP3    H266881   0.414   2.708   4.706 -0.6975  0.0895 -0.0431
15156TIP3   OH266882   4.336   2.854   3.759 -0.3832 -0.6521 -0.4107
15156TIP3    H166883   4.258   2.909   3.760 -1.4049 -2.0779 -0.9556
15156TIP3    H266884   4.360   2.845   3.851  1.2121  2.6511 -0.4316
15157TIP3   OH266885   5.120   0.896   0.571 -0.2941 -0.2684  0.0307
15157TIP3    H166886   5.063   0.840   0.519 -0.6690  0.6974 -0.6198
15157TIP3    H266887   5.067   0.922   0.646 -0.2730 -0.4101  0.0949
15158TIP3   OH266888   5.202   1.131   1.587  0.3422  0.1814 -0.4839
15158TIP3    H166889   5.289   1.140   1.625 -0.2212  1.2884  0.5648
15158TIP3    H266890   5.183   1.217   1.550 -0.4667  0.0630 -0.3569
15159TIP3   OH266891   5.475   3.343  13.404 -0.2622 -0.0253 -0.4507
15159TIP3    H166892   5.462   3.248  13.405  2.0598 -0.3457  1.2155
15159TIP3    H266893   5.542   3.358  13.338  0.6687  0.2576  0.5404
15160TIP3   OH266894   3.166   5.852  13.753  0.3552 -0.2532 -0.0286
15160TIP3    H166895   3.092   5.791  13.745  0.6740 -0.5041 -1.0716
15160TIP3    H266896   3.199   5.837  13.842 -0.0636 -1.0301  0.0048
15161TIP3   OH266897   4.734   5.748   5.458  0.0846 -0.1005 -0.0432
15161TIP3    H166898   4.799   5.682   5.483 -0.0870 -0.6129 -0.9139
15161TIP3    H266899   4.653   5.700   5.447 -1.3257  1.0625  4.4380
15162TIP3   OH266900   2.131   1.151  12.837 -0.6982 -1.2297 -0.0244
15162TIP3    H166901   2.218   1.150  12.797 -1.8947  0.4726 -2.7970
15162TIP3    H266902   2.071   1.133  12.765 -2.7210 -1.7091  1.7247
15163TIP3   OH266903   4.069   0.274  13.760 -0.1473  0.3999 -0.0307
15163TIP3    H166904   4.047   0.198  13.815 -0.8184  1.5557  1.3210
15163TIP3    H266905   3.994   0.333  13.770  1.5202  2.3970  1.0473
15164TIP3   OH266906   6.038   2.397  13.699  0.7249 -0.5393 -0.2058
15164TIP3    H166907   5.999   2.337  13.763 -0.5167 -0.0917 -0.5256
15164TIP3    H266908   6.076   2.339  13.633  0.5946 -0.9893  0.1034
15165TIP3   OH266909   5.986   1.863   5.089  0.1541 -0.8984  0.2017
15165TIP3    H166910   5.997   1.951   5.054  1.2226 -0.6436  1.1700
15165TIP3    H266911   5.981   1.807   5.011  2.3000 -0.3095 -0.3816
15166TIP3   OH266912   1.394   2.875  16.114 -0.2341  0.4966  0.1133
15166TIP3    H166913   1.321   2.841  16.062 -0.6488  1.7751 -0.1387
15166TIP3    H266914   1.390   2.826  16.196 -0.5988 -0.3348 -0.3887
15167TIP3   OH266915   5.051   0.104  12.240 -0.1526 -0.5122  0.0503
15167TIP3    H166916   4.995   0.104  12.162 -0.5079 -0.4003  0.3008
15167TIP3    H266917   5.139   0.089  12.207  0.1201  2.3690 -0.6901
15168TIP3   OH266918   5.820   5.723   4.903 -0.1666  0.0790  0.1981
15168TIP3    H166919   5.850   5.775   4.828  1.3896 -1.0107  0.0533
15168TIP3    H266920   5.801   5.789   4.971 -1.7073  1.0802 -1.1608
15169TIP3   OH266921   4.728   1.835   2.331  0.1178  0.3119 -0.2193
15169TIP3    H166922   4.654   1.834   2.271  0.3127  1.0898 -0.4812
15169TIP3    H266923   4.803   1.858   2.276  0.4227  0.2813  0.1817
15170TIP3   OH266924   2.727   1.147   2.240 -0.0086 -0.3262  0.3788
15170TIP3    H166925   2.730   1.189   2.155 -1.3490  2.6754  1.7407
15170TIP3    H266926   2.817   1.155   2.274 -0.5213  2.6570  1.1361
15171TIP3   OH266927   1.176   4.420  12.714 -0.1514  0.3001 -0.1624
15171TIP3    H166928   1.086   4.451  12.719 -0.0337  0.4524  1.0104
15171TIP3    H266929   1.177   4.338  12.764  0.0797 -0.3732 -1.2442
15172TIP3   OH266930   1.870   5.141   3.536 -0.3781 -0.0702 -0.4482
15172TIP3    H166931   1.862   5.113   3.627 -1.7534  1.3936 -0.0949
15172TIP3    H266932   1.887   5.061   3.488  0.3914 -0.8600  1.0978
15173TIP3   OH266933   5.209   2.501   0.277 -0.0933  0.3454  0.1023
15173TIP3    H166934   5.117   2.527   0.273 -0.2569 -0.2123  0.2870
15173TIP3    H266935   5.216   2.450   0.357 -0.0208 -1.1816 -0.8593
15174TIP3   OH266936   4.810   5.232  16.313 -0.0856 -0.3926  0.3430
15174TIP3    H166937   4.863   5.239  16.234 -0.6482  1.5089  0.1250
15174TIP3    H266938   4.782   5.140  16.314  1.7563 -1.0079 -0.4527
15175TIP3   OH266939   2.342   3.147   4.692 -0.3038  0.3391 -0.6897
15175TIP3    H166940   2.289   3.103   4.759 -1.3890 -1.2853 -2.5500
15175TIP3    H266941   2.283   3.212   4.654  0.5711  1.8348  0.4634
15176TIP3   OH266942   4.609   5.312   0.210  0.5807  0.1030 -0.3586
15176TIP3    H166943   4.637   5.403   0.203  0.1639  0.2714  0.1698
15176TIP3    H266944   4.577   5.303   0.300  0.4386 -0.5141 -0.4675
15177TIP3   OH266945   4.362   6.514   1.081  0.4628  0.4011  0.3713
15177TIP3    H166946   4.438   6.548   1.035 -0.1551  1.9998  0.4883
15177TIP3    H266947   4.398   6.462   1.153  1.4300  0.3056 -0.1820
15178TIP3   OH266948   4.673   6.058   5.650 -0.1934  0.1066  0.4397
15178TIP3    H166949   4.613   6.131   5.631 -1.0083 -1.2844 -2.6462
15178TIP3    H266950   4.615   5.983   5.664  0.7742 -0.8709 -0.7486
15179TIP3   OH266951   4.104   5.918   2.870  0.0175  0.0965 -0.0851
15179TIP3    H166952   4.044   5.977   2.825 -1.0431  0.5434  1.8459
15179TIP3    H266953   4.097   5.835   2.822  0.4826  1.1237 -1.9721
15180TIP3   OH266954   2.141   3.049  10.953  0.3258 -0.6253 -0.5820
15180TIP3    H166955   2.046   3.039  10.941 -0.2395  2.3083  0.8788
15180TIP3    H266956   2.172   3.083  10.869  0.0664 -1.4129 -1.0038
15181TIP3   OH266957   4.644   1.017   2.961  0.2071 -0.5681  0.2672
15181TIP3    H166958   4.703   0.943   2.980  0.9081 -0.0761  0.0374
15181TIP3    H266959   4.653   1.075   3.036  0.2728 -0.3271  0.0726
15182TIP3   OH266960   2.204   4.538  13.302 -0.2069  0.0704 -0.0526
15182TIP3    H166961   2.121   4.502  13.333 -0.4162  1.2890  0.8454
15182TIP3    H266962   2.267   4.512  13.369 -0.3623  1.3491  0.6124
15183TIP3   OH266963   1.080   3.096   4.195  0.1707 -0.6820 -0.2629
15183TIP3    H166964   1.067   3.128   4.106 -2.0954 -2.2961 -0.5744
15183TIP3    H266965   0.993   3.101   4.235  1.4555  1.4513  2.3749
15184TIP3   OH266966   5.550   2.429  11.195  0.0132 -0.1480 -0.0587
15184TIP3    H166967   5.554   2.426  11.291 -2.6828 -0.4048  0.0818
15184TIP3    H266968   5.623   2.487  11.170  0.8056 -0.1436  2.1214
15185TIP3   OH266969   6.110   3.798   4.246  0.0563 -0.4672 -0.0700
15185TIP3    H166970   6.031   3.745   4.253  0.0893 -0.4599  0.3564
15185TIP3    H266971   6.181   3.736   4.261  0.3099 -1.1276 -3.4793
15186TIP3   OH266972   0.486   6.641  11.324 -0.5200 -0.1939 -0.6217
15186TIP3    H166973   0.532   6.718  11.292 -0.1010  0.2910  1.0670
15186TIP3    H266974   0.555   6.584  11.358 -0.9674 -0.4578 -0.1348
15187TIP3   OH266975   5.343   6.067  12.593 -0.6995  0.5308 -0.2631
15187TIP3    H166976   5.348   6.049  12.499  1.0188  0.3731 -0.1519
15187TIP3    H266977   5.433   6.063  12.623 -1.3648 -0.8599  1.6677
15188TIP3   OH266978   6.531   0.808   0.921  0.1650 -0.0910  0.1853
15188TIP3    H166979   6.457   0.855   0.884 -0.2473  0.7523  2.0033
15188TIP3    H266980   6.517   0.716   0.897 -1.3446  0.1031  0.3312
15189TIP3   OH266981   2.264   5.610  11.347 -0.1580  0.0117 -0.0063
15189TIP3    H166982   2.232   5.600  11.437 -1.6138  0.0343 -0.5024
15189TIP3    H266983   2.193   5.576  11.293  1.0201 -0.7064 -1.1297
15190TIP3   OH266984   0.154   4.408   5.087  0.1240 -0.8245  0.3571
15190TIP3    H166985   0.108   4.359   5.019 -0.1696 -1.7345  1.1966
15190TIP3    H266986   0.117   4.496   5.082  1.3367 -0.4035 -1.8007
15191TIP3   OH266987   4.421   0.366  16.886  0.9349  0.2287 -0.1210
15191TIP3    H166988   4.360   0.412  16.828  0.4957 -0.3191 -0.0920
15191TIP3    H266989   4.468   0.306  16.828 -0.1428 -0.9774  0.2392
15192TIP3   OH266990   2.962   5.160   0.622  0.1320 -0.1800  0.1429
15192TIP3    H166991   3.046   5.188   0.586  0.4609 -0.3486  0.7613
15192TIP3    H266992   2.983   5.084   0.677 -0.5931 -0.9263 -0.6010
15193TIP3   OH266993   3.213   3.565   2.545  0.4563  0.1070 -0.1737
15193TIP3    H166994   3.250   3.479   2.525  0.2819 -0.2558  1.0014
15193TIP3    H266995   3.119   3.550   2.556  0.5976  0.2169  1.2544
15194TIP3   OH266996   5.011   0.457   4.117  0.0369  0.1430  0.1271
15194TIP3    H166997   5.073   0.386   4.132 -0.2565 -0.0925  0.2552
15194TIP3    H266998   5.065   0.536   4.109  0.2908  0.1065  1.3245
15195TIP3   OH266999   3.814   5.165   5.065  0.1514 -0.0971  0.8081
15195TIP3    H167000   3.850   5.228   5.128  1.1504 -1.0779  1.2395
15195TIP3    H267001   3.865   5.179   4.986  0.9881 -0.9473  1.1776
15196TIP3   OH267002   5.789   4.324  14.923  0.6107 -0.5115 -0.3677
15196TIP3    H167003   5.729   4.313  14.998  0.6065 -1.8507 -0.5431
15196TIP3    H267004   5.838   4.403  14.943  0.7834 -0.9886  1.1908
15197TIP3   OH267005   6.586   3.130   1.760  0.2218  0.1902 -0.6932
15197TIP3    H167006   6.615   3.043   1.734 -0.5210  0.0031 -0.9085
15197TIP3    H267007   6.624   3.143   1.847 -0.8100 -0.9138 -0.0664
15198TIP3   OH267008   6.628   0.911  14.104  0.4782  0.5413  0.3718
15198TIP3    H167009   6.539   0.931  14.077  0.9129  0.7308 -0.9507
15198TIP3    H267010   6.655   0.840  14.045  0.7515 -0.4106  1.6173
15199TIP3   OH267011   4.066   4.195  15.177 -0.1314 -0.6500 -0.4857
15199TIP3    H167012   3.988   4.251  15.170 -0.4859 -1.1128 -0.2608
15199TIP3    H267013   4.124   4.243  15.236 -0.4262 -0.5095 -0.3049
15200TIP3   OH267014   2.054   5.830   2.492 -0.2018  0.3610  0.2856
15200TIP3    H167015   2.070   5.923   2.476 -2.6405  1.5701  4.2960
15200TIP3    H267016   2.112   5.808   2.565 -0.5775 -0.9488  0.1942
15201TIP3   OH267017   2.497   6.694  16.209  0.8740  0.4195  0.2817
15201TIP3    H167018   2.423   6.744  16.174 -0.5234 -1.5728  0.3199
15201TIP3    H267019   2.563   6.761  16.230 -0.8583  2.2244  0.1566
15202TIP3   OH267020   4.692   2.278   1.826 -0.9350 -0.0658  0.5495
15202TIP3    H167021   4.624   2.336   1.861 -0.5997 -0.6121  2.1833
15202TIP3    H267022   4.772   2.305   1.871 -0.8384 -2.0017  1.6106
15203TIP3   OH267023   4.505   4.877  13.923 -0.1680 -0.8620  0.6714
15203TIP3    H167024   4.462   4.960  13.945  2.7123  0.7619  0.4250
15203TIP3    H267025   4.531   4.887  13.831 -1.1016 -2.6545  0.1956
15204TIP3   OH267026   0.032   4.555  11.563  0.3974  0.4273 -0.1475
15204TIP3    H167027  -0.060   4.540  11.544  1.0504 -0.4238 -2.7662
15204TIP3    H267028   0.079   4.488  11.513  2.3686 -0.1788  2.4124
15205TIP3   OH267029   3.658   5.186   6.143  0.2347 -0.3471 -0.1878
15205TIP3    H167030   3.629   5.197   6.234 -1.4436  2.1271 -0.9731
15205TIP3    H267031   3.754   5.186   6.149  0.1557  0.5972  1.5106
15206TIP3   OH267032   5.198   5.364   3.624 -0.1088 -0.1887  0.3052
15206TIP3    H167033   5.258   5.374   3.550 -0.0680  0.8681  0.4691
15206TIP3    H267034   5.234   5.421   3.692 -1.9707  1.4653 -0.0367
15207TIP3   OH267035   3.656   0.381   2.774 -0.1808 -0.2637 -0.1641
15207TIP3    H167036   3.563   0.360   2.777 -0.4803  0.9793 -0.5320
15207TIP3    H267037   3.700   0.296   2.779 -1.3025 -0.7658  1.4176
15208TIP3   OH267038   2.602   2.571   4.462 -0.3743 -0.7393 -0.1582
15208TIP3    H167039   2.606   2.491   4.514 -0.2895  0.9821  2.6037
15208TIP3    H267040   2.676   2.564   4.403  0.6364 -1.9698  1.2008
15209TIP3   OH267041   0.307   1.707  11.573  0.0585 -0.5051  0.4297
15209TIP3    H167042   0.383   1.655  11.548 -0.0594 -0.9181  0.9217
15209TIP3    H267043   0.342   1.794  11.594  0.3136 -0.5195  0.0636
15210TIP3   OH267044   4.341   4.130   5.370 -0.4277 -0.0681  0.0290
15210TIP3    H167045   4.421   4.112   5.321  0.1761  2.0845  0.1695
15210TIP3    H267046   4.279   4.160   5.304 -0.4433  0.2772  0.1969
15211TIP3   OH267047   5.546   0.597   2.941  0.4386  0.5829 -0.1769
15211TIP3    H167048   5.506   0.684   2.946  0.0868  0.3443  1.4764
15211TIP3    H267049   5.634   0.608   2.977 -0.1136 -0.0202  1.4156
15212TIP3   OH267050   1.098   2.003  12.880  0.0621  1.2213 -0.4616
15212TIP3    H167051   1.005   1.984  12.873  0.2563  0.7462 -2.1162
15212TIP3    H267052   1.122   1.977  12.969 -1.2792  0.9040 -0.1837
15213TIP3   OH267053   3.841   4.267   4.340  0.3481  0.0281 -0.6936
15213TIP3    H167054   3.831   4.205   4.412  2.0756 -0.0792 -0.5161
15213TIP3    H267055   3.861   4.212   4.264  2.2965  0.3434 -0.4532
15214TIP3   OH267056   4.760   2.625   1.416  0.3838 -0.1000  0.3437
15214TIP3    H167057   4.797   2.565   1.480 -0.2219 -0.8100  0.0257
15214TIP3    H267058   4.791   2.711   1.444  3.7969 -0.8421 -0.9142
15215TIP3   OH267059   4.122   6.689  11.916  0.5572  0.0420 -0.3422
15215TIP3    H167060   4.151   6.764  11.865  0.4309  0.7104  0.5514
15215TIP3    H267061   4.031   6.675  11.888  0.5102  0.3593 -0.3530
15216TIP3   OH267062   2.113   5.158  15.741  0.1464 -0.3185  0.5291
15216TIP3    H167063   2.022   5.132  15.728 -0.1298 -0.5859  2.7811
15216TIP3    H267064   2.133   5.130  15.831  1.9959  1.0251  0.5541
15217TIP3   OH267065   2.009   0.118   4.137  0.0845  0.2053 -0.2213
15217TIP3    H167066   2.003   0.093   4.230 -1.1287  2.9520  0.4929
15217TIP3    H267067   2.100   0.145   4.126  0.5877 -1.4172 -0.2058
15218TIP3   OH267068   4.374   1.783  15.863 -0.0685 -0.1794 -0.4980
15218TIP3    H167069   4.298   1.802  15.807  0.6129 -0.4719 -1.5406
15218TIP3    H267070   4.342   1.719  15.926 -0.8403  0.1295 -0.5707
15219TIP3   OH267071   4.804   3.293  14.446 -0.1682  0.2988  0.2302
15219TIP3    H167072   4.794   3.204  14.412 -2.1105  0.0226  1.4641
15219TIP3    H267073   4.748   3.347  14.389  0.0587  0.5335  0.2293
15220TIP3   OH267074   0.980   4.745   1.976 -0.4087  0.3868  0.2885
15220TIP3    H167075   0.926   4.820   1.949 -1.0769  0.0523  0.6787
15220TIP3    H267076   1.065   4.761   1.935 -0.5356  1.3776  0.3997
15221TIP3   OH267077   1.849   3.405  16.008  0.1948  0.4701 -0.2047
15221TIP3    H167078   1.786   3.404  16.080  0.4743  0.6681  0.0380
15221TIP3    H267079   1.932   3.381  16.048  0.6806  2.2089 -0.1556
15222TIP3   OH267080   3.987   1.962  12.740  1.0139  0.4136 -0.1568
15222TIP3    H167081   3.949   1.886  12.696  1.6612  1.2695 -2.2841
15222TIP3    H267082   3.912   2.006  12.780  0.4612 -0.6193 -0.0380
15223TIP3   OH267083   2.143   4.523  11.367  0.0886  0.1537  0.5887
15223TIP3    H167084   2.207   4.473  11.316  0.3662  1.0566  0.0324
15223TIP3    H267085   2.060   4.479  11.350  0.3031 -0.0263 -0.0335
15224TIP3   OH267086   1.410   5.211  16.026  0.4042  0.0416 -0.0491
15224TIP3    H167087   1.351   5.270  15.980 -0.7514  0.9521  2.4844
15224TIP3    H267088   1.357   5.176  16.098  2.2238 -1.0900  0.7686
15225TIP3   OH267089   4.474   4.452  10.782 -0.4513 -0.0950  0.7080
15225TIP3    H167090   4.477   4.384  10.715 -0.2333  0.9022 -0.3085
15225TIP3    H267091   4.389   4.440  10.824 -1.4624  0.5442 -1.1057
15226TIP3   OH267092   5.247   1.774   5.538 -0.1125  0.2242 -0.0874
15226TIP3    H167093   5.158   1.747   5.560  0.0183  0.0322  0.1953
15226TIP3    H267094   5.257   1.750   5.446 -0.4961  0.6151 -0.2342
15227TIP3   OH267095   4.695   5.704  16.880  0.9820  0.2718 -0.0962
15227TIP3    H167096   4.703   5.667  16.968 -0.2719 -1.1616 -0.5704
15227TIP3    H267097   4.668   5.795  16.896  0.0742 -0.1693  0.9988
15228TIP3   OH267098   2.013   0.644  14.252 -0.2909  0.3474 -0.1241
15228TIP3    H167099   1.936   0.624  14.306  0.7855 -0.0238  1.2902
15228TIP3    H267100   2.035   0.561  14.210  2.0997 -0.7324  3.0784
15229TIP3   OH267101   6.576   6.391  15.170 -0.0329  0.1365 -0.1241
15229TIP3    H167102   6.571   6.306  15.213 -0.2155 -0.2648 -0.9369
15229TIP3    H267103   6.497   6.396  15.116 -0.2913  1.0460  0.3319
15230TIP3   OH267104   6.689   0.628   2.531  0.3298 -0.4010 -0.3304
15230TIP3    H167105   6.665   0.568   2.603 -1.6869  0.9285  0.1468
15230TIP3    H267106   6.620   0.693   2.530  1.7565  1.1468 -1.7773
15231TIP3   OH267107   1.918   5.976   0.604  0.1855 -0.4292 -0.7749
15231TIP3    H167108   1.976   6.011   0.672 -1.5245  0.0318  0.4787
15231TIP3    H267109   1.944   5.884   0.596 -1.0632 -1.1249  2.1701
15232TIP3   OH267110   2.142   2.961  16.424  0.3385 -0.2519 -0.1721
15232TIP3    H167111   2.212   2.898  16.407  1.0767  0.4412  0.2184
15232TIP3    H267112   2.150   2.980  16.518  0.3333  0.6651 -0.3528
15233TIP3   OH267113   2.218   3.116  16.191  0.3749 -0.5294 -0.1331
15233TIP3    H167114   2.206   3.076  16.277 -1.2972 -0.4051 -0.2991
15233TIP3    H267115   2.311   3.103  16.172  0.4502 -1.8803  1.0373
15234TIP3   OH267116   5.866   2.978   5.280  0.0808  0.1317 -0.3754
15234TIP3    H167117   5.901   2.996   5.193  0.8191 -2.1307 -0.5732
15234TIP3    H267118   5.811   2.901   5.268  1.3474 -1.0692  1.4231
15235TIP3   OH267119   5.834   4.090  16.054  0.5238 -0.4671 -0.4292
15235TIP3    H167120   5.838   4.029  15.981 -3.5167 -2.9068  1.2913
15235TIP3    H267121   5.756   4.143  16.038  1.4638  1.2664  0.4462
15236TIP3   OH267122   3.043   3.510  10.862  0.2001 -0.8404  0.4409
15236TIP3    H167123   3.053   3.537  10.954  0.8375 -0.4134  0.2513
15236TIP3    H267124   3.129   3.473  10.839  0.0647 -0.8805 -0.0037
15237TIP3   OH267125   0.653   1.917   3.280 -0.0397  0.3852  0.5777
15237TIP3    H167126   0.696   1.847   3.329 -0.3575 -0.4323 -0.3132
15237TIP3    H267127   0.691   1.998   3.316  3.4686 -0.3367 -1.2772
15238TIP3   OH267128   5.899   4.098  14.551  0.2419 -0.2382 -0.0939
15238TIP3    H167129   5.906   4.186  14.586  2.5355  0.1122 -1.3612
15238TIP3    H267130   5.812   4.068  14.579 -0.7867  2.5918 -0.1102
15239TIP3   OH267131   5.589   5.521  12.859 -0.2199 -0.0159 -0.2137
15239TIP3    H167132   5.673   5.547  12.897 -0.0365 -0.2072 -0.4889
15239TIP3    H267133   5.531   5.596  12.874 -1.0056 -1.2007  3.1156
15240TIP3   OH267134   6.061   6.482   3.271  0.4758  0.3690 -0.2596
15240TIP3    H167135   5.994   6.417   3.254 -0.2710  0.8944  0.6274
15240TIP3    H267136   6.087   6.513   3.184 -2.2294  1.9754 -0.5379
15241TIP3   OH267137   1.289   6.630  11.528  0.3635  0.0264  0.0201
15241TIP3    H167138   1.252   6.716  11.549  0.2629 -0.3711  1.4848
15241TIP3    H267139   1.342   6.607  11.604  1.0416 -0.8511 -0.7080
15242TIP3   OH267140   1.684   3.614  12.137 -0.0524  0.1292  0.2582
15242TIP3    H167141   1.597   3.600  12.099  0.6757 -0.8862 -1.0418
15242TIP3    H267142   1.684   3.707  12.163 -1.1218  0.4188 -0.7460
15243TIP3   OH267143   5.505   4.255  11.406 -0.3718 -0.3246 -0.2686
15243TIP3    H167144   5.482   4.302  11.326 -1.3861 -1.0737 -0.4224
15243TIP3    H267145   5.491   4.319  11.476  1.0675  0.5122 -0.7219
15244TIP3   OH267146   6.192   2.108  13.927  0.3988  0.1955 -0.5118
15244TIP3    H167147   6.132   2.178  13.900 -0.0487 -0.3264 -0.8834
15244TIP3    H267148   6.192   2.047  13.854  1.4498  0.2260 -0.5401
15245TIP3   OH267149   2.428   4.277  13.817 -0.1308 -0.1137  0.0247
15245TIP3    H167150   2.452   4.264  13.725 -0.3182  1.2164 -0.2165
15245TIP3    H267151   2.467   4.202  13.862 -0.5748 -1.1115 -1.2280
15246TIP3   OH267152   1.157   5.496  13.474  0.2039  0.5681 -0.0183
15246TIP3    H167153   1.201   5.436  13.413 -0.9228 -2.8810  2.4396
15246TIP3    H267154   1.088   5.536  13.422  0.0804 -1.3294 -1.3709
15247TIP3   OH267155   4.610   0.658  15.191  0.0759 -0.0625 -0.2397
15247TIP3    H167156   4.617   0.721  15.262  0.7856  0.3990 -0.7088
15247TIP3    H267157   4.602   0.573  15.234  1.4478  0.1130  0.4043
15248TIP3   OH267158   2.971   0.382   3.290  0.6302 -0.2655  0.1609
15248TIP3    H167159   2.943   0.290   3.295 -0.7534  0.1398  0.0246
15248TIP3    H267160   2.903   0.430   3.337  0.3484  0.8942 -1.3834
15249TIP3   OH267161   2.468   6.601   2.517 -0.0667 -0.4041 -0.0566
15249TIP3    H167162   2.415   6.654   2.577 -1.6488 -1.5994 -0.3850
15249TIP3    H267163   2.558   6.622   2.541 -0.6569  2.3602 -0.0980
15250TIP3   OH267164   1.496   0.114  15.604  1.2628 -0.3744  0.2165
15250TIP3    H167165   1.471   0.144  15.691 -0.2728  2.0573 -1.0199
15250TIP3    H267166   1.516   0.193  15.555  0.2381 -1.5435 -2.1965
15251TIP3   OH267167   4.002   3.751  13.893 -0.0430 -0.5522 -0.1693
15251TIP3    H167168   3.929   3.771  13.835  0.0498  1.1714  0.3011
15251TIP3    H267169   4.057   3.692  13.842 -0.7527 -0.2774 -1.2616
15252TIP3   OH267170   2.777   6.043  12.446  0.3082  0.0390 -0.1157
15252TIP3    H167171   2.769   6.006  12.358  0.1295 -1.9415  0.7269
15252TIP3    H267172   2.749   6.134  12.436  2.6677  0.5613 -2.6176
15253TIP3   OH267173   1.651   2.010   2.176  0.4286  0.4848  0.4080
15253TIP3    H167174   1.595   1.949   2.128  0.7084 -0.3061  1.0739
15253TIP3    H267175   1.719   2.034   2.114 -0.8023  1.6945 -0.5135
15254TIP3   OH267176   1.992   4.487  17.083  0.3200  0.1491  0.3511
15254TIP3    H167177   1.932   4.555  17.114  1.7263  0.8330  1.6846
15254TIP3    H267178   1.940   4.407  17.082 -1.6336  1.3942 -2.1573
15255TIP3   OH267179   2.538   6.232  16.148 -0.0130 -0.2099  0.0617
15255TIP3    H167180   2.466   6.271  16.197  0.2713  1.6813 -0.9719
15255TIP3    H267181   2.588   6.307  16.115  1.2152 -1.4688 -1.0080
15256TIP3   OH267182   3.863   6.487   0.578  0.2934 -0.8796  0.1346
15256TIP3    H167183   3.915   6.445   0.509  1.9587  0.5014  0.4877
15256TIP3    H267184   3.901   6.575   0.585 -1.3962 -0.2240  1.1924
15257TIP3   OH267185   0.425   1.201  15.203 -0.4572 -0.2952  0.3188
15257TIP3    H167186   0.496   1.137  15.200  0.5876  0.8461  0.5987
15257TIP3    H267187   0.425   1.233  15.293 -3.4672 -2.6434  1.2758
15258TIP3   OH267188   0.762   1.826   1.335  0.2206 -0.0551  0.1063
15258TIP3    H167189   0.786   1.888   1.403  0.5883  1.3053 -1.2281
15258TIP3    H267190   0.734   1.881   1.261 -0.0315 -1.4867 -0.8888
15259TIP3   OH267191   4.727   6.110   2.858 -0.3168 -0.3576  0.1099
15259TIP3    H167192   4.732   6.019   2.827 -0.9471 -0.4905  0.3899
15259TIP3    H267193   4.739   6.162   2.778  1.8331 -0.6575  0.2102
15260TIP3   OH267194   1.409   6.002   4.662 -0.6531 -0.2508  0.1897
15260TIP3    H167195   1.451   5.932   4.613  1.1031  0.4383  0.6932
15260TIP3    H267196   1.387   5.962   4.746 -0.2471 -0.3782  0.2356
15261TIP3   OH267197   0.939   3.101   3.117  0.7802  0.3596 -0.5079
15261TIP3    H167198   0.901   3.035   3.177  1.0072 -0.6365 -1.4424
15261TIP3    H267199   0.890   3.181   3.136  0.7020  0.0070  0.8675
15262TIP3   OH267200   6.594   3.680   4.096 -0.2001  0.5640  1.2579
15262TIP3    H167201   6.570   3.752   4.037 -0.5249  0.2580  1.0122
15262TIP3    H267202   6.563   3.707   4.182  0.3999  1.0764  1.3123
15263TIP3   OH267203   4.613   0.135  16.246  0.0647  0.2767  0.6817
15263TIP3    H167204   4.529   0.129  16.291 -1.9380 -1.3367 -3.0900
15263TIP3    H267205   4.645   0.045  16.242  0.4243  0.4434 -0.6247
15264TIP3   OH267206   0.760   3.905   0.625 -0.0553  0.3687 -0.0409
15264TIP3    H167207   0.733   3.846   0.555 -2.2994  1.6537 -0.3296
15264TIP3    H267208   0.703   3.882   0.699  0.4229  0.8433  0.4804
15265TIP3   OH267209   5.707   1.769  12.327 -0.0776 -0.1989 -0.0560
15265TIP3    H167210   5.713   1.743  12.235 -0.5344 -0.5028 -0.0037
15265TIP3    H267211   5.796   1.790  12.353 -0.0027  0.2357 -0.6730
15266TIP3   OH267212   6.006   6.633  12.625 -0.4116  0.1237  0.8414
15266TIP3    H167213   5.941   6.594  12.568 -1.9321  0.4187  2.3350
15266TIP3    H267214   6.054   6.694  12.569 -0.7314 -0.8437 -0.5079
15267TIP3   OH267215   5.405   6.509   5.253  0.0544  0.1427  0.2146
15267TIP3    H167216   5.381   6.541   5.166 -1.4906 -1.1893  0.1149
15267TIP3    H267217   5.385   6.581   5.312 -1.1802  0.2074 -0.2707
15268TIP3   OH267218   2.233   3.502  11.761  0.0870 -0.5440  0.4021
15268TIP3    H167219   2.242   3.409  11.741  1.3773 -0.2858 -0.2595
15268TIP3    H267220   2.222   3.506  11.856 -0.1947 -1.3788  0.4076
15269TIP3   OH267221   1.346   5.943  13.265  0.1124 -0.3575 -0.2298
15269TIP3    H167222   1.274   5.996  13.230  0.7927  1.2234  0.6644
15269TIP3    H267223   1.420   5.962  13.207  0.8222  1.0658  1.0744
15270TIP3   OH267224   5.777   2.247   0.563  0.1407  0.1731 -0.1240
15270TIP3    H167225   5.778   2.317   0.497  0.7508 -0.4068 -0.7483
15270TIP3    H267226   5.862   2.203   0.551  0.1230 -0.1229  0.8484
15271TIP3   OH267227   1.482   5.188   2.094  0.0332 -0.2274  0.1566
15271TIP3    H167228   1.445   5.273   2.114 -0.5412 -0.7291  1.2699
15271TIP3    H267229   1.501   5.191   2.000  0.1790  1.1744  0.2248
15272TIP3   OH267230   4.105   2.986   2.739  0.2192 -0.4492  0.1889
15272TIP3    H167231   4.066   3.068   2.707 -0.8217 -1.8802 -2.3843
15272TIP3    H267232   4.033   2.942   2.784  0.9117  0.2247  2.0139
15273TIP3   OH267233   2.101   3.582   2.362 -0.1075  0.3254  0.6488
15273TIP3    H167234   2.057   3.637   2.426 -1.1619 -0.0832  0.2868
15273TIP3    H267235   2.031   3.533   2.320  0.5759  0.5214 -0.7547
15274TIP3   OH267236   2.717   5.932   2.943  0.5655 -0.5346  0.1811
15274TIP3    H167237   2.665   6.003   2.906  0.0228  0.2175  2.3213
15274TIP3    H267238   2.805   5.945   2.907  0.0643  0.2238 -0.7643
15275TIP3   OH267239   3.728   4.069   0.925  0.4292  0.5265 -0.1631
15275TIP3    H167240   3.721   3.974   0.927 -0.3625  0.5852  0.0107
15275TIP3    H267241   3.708   4.092   0.834  0.5081  0.5359 -0.1783
15276TIP3   OH267242   4.343   1.465  13.012  0.5136 -0.0887  0.0425
15276TIP3    H167243   4.352   1.559  13.032 -0.9713 -0.1094  0.8618
15276TIP3    H267244   4.410   1.449  12.946  0.1550  1.7725 -0.8229
15277TIP3   OH267245   4.501   6.343  14.003  0.0142  0.4197  0.3501
15277TIP3    H167246   4.495   6.336  13.908  0.2760 -0.3866  0.3965
15277TIP3    H267247   4.411   6.359  14.031 -0.4919 -2.0088  0.1967
15278TIP3   OH267248   1.847   4.602   4.662  0.5555  0.3077 -0.5180
15278TIP3    H167249   1.924   4.557   4.698 -1.3666 -2.4176  0.3897
15278TIP3    H267250   1.845   4.576   4.570 -1.5239 -3.1157  0.3815
15279TIP3   OH267251   4.521   5.097   2.015 -0.8582 -0.1369  0.2881
15279TIP3    H167252   4.600   5.140   1.983 -0.1533  0.7673  3.1327
15279TIP3    H267253   4.553   5.025   2.070 -2.0074 -0.4031  0.6321
15280TIP3   OH267254   0.374   2.261  13.691  0.2941  0.2933 -0.3966
15280TIP3    H167255   0.365   2.356  13.684  0.2643  0.1528 -2.7722
15280TIP3    H267256   0.467   2.244  13.677  0.5014  0.0412  1.1912
15281TIP3   OH267257   4.987   0.016   4.025 -0.1479  0.1071 -0.0328
15281TIP3    H167258   4.898  -0.020   4.016 -0.9090  2.1236 -0.8184
15281TIP3    H267259   4.973   0.103   4.062  1.5254  0.4100 -0.0977
15282TIP3   OH267260   6.069   1.071   0.677 -0.2671  0.8499  0.0453
15282TIP3    H167261   6.052   1.165   0.688  0.3945  0.8876  0.7821
15282TIP3    H267262   5.985   1.029   0.695 -1.2328  1.4451 -2.7345
15283TIP3   OH267263   0.574   5.647  13.488  0.1908 -0.2139  0.2890
15283TIP3    H167264   0.664   5.672  13.466  0.0429 -0.6703 -0.8653
15283TIP3    H267265   0.564   5.559  13.453 -0.9930  0.1870 -0.4268
15284TIP3   OH267266   3.290   0.177   1.337  0.2941 -0.3482 -0.2530
15284TIP3    H167267   3.293   0.176   1.432 -0.5434 -0.2209 -0.2237
15284TIP3    H267268   3.377   0.207   1.310  0.0368  1.0673  0.4892
15285TIP3   OH267269   2.225   5.088  13.784  0.5182 -0.4674  0.6120
15285TIP3    H167270   2.131   5.091  13.762  0.3137 -3.0873  1.0075
15285TIP3    H267271   2.235   5.157  13.850 -0.9096  0.5108 -0.1366
15286TIP3   OH267272   6.533   4.526   5.660 -0.0147 -0.0473 -0.0651
15286TIP3    H167273   6.456   4.547   5.713  0.7908  1.1768  0.6275
15286TIP3    H267274   6.604   4.576   5.699  1.3108 -1.7628 -0.2315
15287TIP3   OH267275   6.686   0.889   4.280  0.6599  0.4425  0.0728
15287TIP3    H167276   6.703   0.973   4.238  0.8097  0.1122 -0.5310
15287TIP3    H267277   6.707   0.904   4.372  2.1521  0.6500 -0.2816
15288TIP3   OH267278   2.972   3.409   1.446 -0.0132 -0.3429 -0.7992
15288TIP3    H167279   3.044   3.467   1.424  0.8288 -0.7214  0.8870
15288TIP3    H267280   2.899   3.439   1.391  0.1752  2.7736  0.5531
15289TIP3   OH267281   5.053   2.257   6.263  0.1379  0.0728 -0.0535
15289TIP3    H167282   5.056   2.208   6.346  0.4825  0.0001 -0.1095
15289TIP3    H267283   5.123   2.219   6.210  0.2240  0.4407 -0.2021
15290TIP3   OH267284   0.718   5.950  13.294  0.2127  0.1429  0.4051
15290TIP3    H167285   0.755   5.870  13.330 -0.4821 -0.4828 -0.2566
15290TIP3    H267286   0.664   5.921  13.221  0.8963  1.3168 -0.5855
15291TIP3   OH267287   4.293   6.019  15.071  0.2133  0.0883  0.5010
15291TIP3    H167288   4.296   5.984  14.982  1.0009 -0.5054  0.7498
15291TIP3    H267289   4.205   6.055  15.081  0.3798  0.8886 -0.7979
15292TIP3   OH267290   5.125   5.814  15.886  1.1667  0.2440 -0.1545
15292TIP3    H167291   5.174   5.767  15.953  0.6605 -0.3708 -0.2135
15292TIP3    H267292   5.192   5.845  15.825  1.7244  1.6013  1.1147
15293TIP3   OH267293   2.525   1.205   2.935 -0.8192  0.0784  0.4895
15293TIP3    H167294   2.611   1.239   2.907 -0.8639 -1.5335 -1.7534
15293TIP3    H267295   2.493   1.270   2.998  1.7452  1.0506  0.8505
15294TIP3   OH267296   2.123   3.536  15.575  0.0622  0.1885  0.0082
15294TIP3    H167297   2.056   3.545  15.642  0.9372  0.6171  0.8291
15294TIP3    H267298   2.183   3.470  15.610 -0.4312 -0.8916 -1.1433
15295TIP3   OH267299   4.694   1.735  11.381 -0.2911 -0.5224  0.1901
15295TIP3    H167300   4.688   1.787  11.462  1.3363 -2.5057  1.6415
15295TIP3    H267301   4.605   1.700  11.370 -0.9654  1.1362  0.1366
15296TIP3   OH267302   1.540   1.562  14.245  0.2419 -0.0468  0.4881
15296TIP3    H167303   1.472   1.533  14.184  0.9093 -0.5159 -0.0344
15296TIP3    H267304   1.500   1.636  14.291 -1.0215 -0.9928  0.9587
15297TIP3   OH267305   2.699   2.699   0.413 -0.2654  0.4109  0.0780
15297TIP3    H167306   2.627   2.666   0.359 -1.0400  3.5996 -0.9581
15297TIP3    H267307   2.655   2.745   0.485  0.7456  1.1946  0.1938
15298TIP3   OH267308   6.532   4.857   4.493 -0.7827 -0.3122 -0.6817
15298TIP3    H167309   6.580   4.864   4.410 -1.9536  0.6897 -1.2898
15298TIP3    H267310   6.520   4.948   4.521  2.2556 -0.7074  2.1605
15299TIP3   OH267311   6.738   0.712   5.723 -0.2283  0.3343  0.3253
15299TIP3    H167312   6.671   0.656   5.683  0.9016 -0.2377 -0.7607
15299TIP3    H267313   6.688   0.773   5.777 -1.6801  0.2975 -0.9468
15300TIP3   OH267314   0.388   1.261  12.248 -0.5776  0.1559  0.0656
15300TIP3    H167315   0.453   1.203  12.208 -0.5899 -0.0582  0.3553
15300TIP3    H267316   0.439   1.321  12.302 -0.4551  1.2158 -1.2053
15301TIP3   OH267317   4.541   0.199   3.597 -0.2504  0.2073  0.6936
15301TIP3    H167318   4.508   0.183   3.509 -0.9548  2.0403  0.5994
15301TIP3    H267319   4.635   0.181   3.592  0.4418  3.9167 -1.4374
15302TIP3   OH267320   6.771   3.292   1.543  0.1077 -0.1475  0.0202
15302TIP3    H167321   6.732   3.372   1.578 -0.2374 -0.0656 -0.5417
15302TIP3    H267322   6.701   3.227   1.548  0.4893 -0.5058  0.7827
15303TIP3   OH267323   4.564   4.328   6.308 -0.4065 -0.3266  0.4003
15303TIP3    H167324   4.527   4.246   6.339 -0.2426 -0.3636  0.4986
15303TIP3    H267325   4.655   4.327   6.338 -0.1621 -0.4944 -0.3322
15304TIP3   OH267326   3.226   0.282   3.302 -0.2452 -0.0766 -0.4800
15304TIP3    H167327   3.144   0.330   3.287  0.5552  1.1965 -0.9317
15304TIP3    H267328   3.291   0.351   3.319  1.0045 -0.9846 -1.4544
15305TIP3   OH267329   4.539   6.541   3.905  0.2438  0.2832  0.1365
15305TIP3    H167330   4.498   6.590   3.976 -1.5603 -1.1087  0.1000
15305TIP3    H267331   4.477   6.470   3.886  1.5890 -0.4834 -1.5351
15306TIP3   OH267332   1.310   2.437  16.729 -0.1488 -0.1852  0.2105
15306TIP3    H167333   1.404   2.425  16.740 -0.1893  1.1478  2.2559
15306TIP3    H267334   1.274   2.348  16.727  0.9916 -0.6640  0.8959
15307TIP3   OH267335   4.258   0.120  16.927 -0.3488  0.1655 -0.8236
15307TIP3    H167336   4.225   0.163  16.848 -2.1265 -0.6332 -0.5398
15307TIP3    H267337   4.288   0.192  16.983 -1.4141  0.8954 -1.1774
15308TIP3   OH267338   0.386   2.487  13.437 -0.0106 -0.2372 -0.4880
15308TIP3    H167339   0.404   2.508  13.529  1.1863  1.1619 -1.0154
15308TIP3    H267340   0.387   2.572  13.393 -0.1304 -0.9378 -1.8696
15309TIP3   OH267341   3.029   6.646   6.000 -0.1216 -0.2588  0.5226
15309TIP3    H167342   3.116   6.674   5.972 -1.1618  2.0083 -0.5317
15309TIP3    H267343   2.993   6.599   5.925 -0.4112  0.1919  0.3765
15310TIP3   OH267344   0.595   4.286  14.071  0.3181  0.2867  0.1529
15310TIP3    H167345   0.512   4.272  14.116  1.2247 -1.0842  1.4424
15310TIP3    H267346   0.658   4.303  14.142  1.9252 -2.7258 -0.4951
15311TIP3   OH267347   3.297   3.558   5.185  0.3195  0.1572 -0.0387
15311TIP3    H167348   3.202   3.544   5.186  0.6341 -2.1338  1.0298
15311TIP3    H267349   3.310   3.633   5.126 -2.0852  0.0480 -0.7542
15312TIP3   OH267350   0.469   4.656   1.490 -0.1696  0.0486  0.0442
15312TIP3    H167351   0.470   4.738   1.539 -0.9058 -0.3288  0.7274
15312TIP3    H267352   0.431   4.679   1.405  1.8601  0.8670 -0.6757
15313TIP3   OH267353   0.028   2.476   5.642 -0.5289 -0.0881  0.3189
15313TIP3    H167354  -0.031   2.423   5.696 -0.3572 -0.5887  0.0202
15313TIP3    H267355   0.082   2.412   5.596 -1.3329  0.2928 -1.1910
15314TIP3   OH267356   2.234   4.386   3.114 -0.0816 -0.5631 -0.1319
15314TIP3    H167357   2.297   4.321   3.145  0.4510  0.1559  0.3232
15314TIP3    H267358   2.229   4.371   3.019  2.7557  0.9979 -0.6150
15315TIP3   OH267359   0.567   6.351   2.988 -0.2019 -0.0984  0.2469
15315TIP3    H167360   0.596   6.305   2.910 -2.7415  0.3942 -1.0384
15315TIP3    H267361   0.474   6.328   2.997 -0.2908  0.9438  2.3122
15316TIP3   OH267362   3.794   0.074   4.819  0.3837  0.1046  0.1517
15316TIP3    H167363   3.857   0.145   4.807  0.9439 -0.3535  0.3649
15316TIP3    H267364   3.783   0.067   4.914  0.7451 -0.4555  0.1536
15317TIP3   OH267365   1.051   3.998   2.059 -0.1612 -0.2186  0.3696
15317TIP3    H167366   1.095   4.083   2.065  1.5352 -1.0220 -0.1828
15317TIP3    H267367   1.034   3.973   2.150  1.6033 -0.4112  0.6733
15318TIP3   OH267368   3.858   2.453   3.813  0.0939  0.1095 -0.3456
15318TIP3    H167369   3.829   2.543   3.804  0.2357  0.1324 -0.5722
15318TIP3    H267370   3.948   2.460   3.845  0.7834  0.0799 -2.2522
15319TIP3   OH267371   0.379   0.768   3.503  0.7332 -0.0395  0.2251
15319TIP3    H167372   0.324   0.824   3.448  1.7392  1.3410  0.6160
15319TIP3    H267373   0.374   0.682   3.461 -1.8247  0.0075  0.3107
15320TIP3   OH267374   0.410   4.226  14.966 -0.2652  0.5000  0.7403
15320TIP3    H167375   0.320   4.257  14.962  0.5184  2.7871 -0.0007
15320TIP3    H267376   0.413   4.150  14.908 -1.6141  0.6882  0.4255
15321TIP3   OH267377   5.472   1.811  14.407  0.1184 -0.3159  0.1503
15321TIP3    H167378   5.470   1.786  14.315  2.2897 -0.6177  0.1713
15321TIP3    H267379   5.380   1.828  14.429 -0.2116  1.8471 -2.6277
15322TIP3   OH267380   6.486   2.965  13.864 -0.6073  0.6430  0.3528
15322TIP3    H167381   6.568   2.974  13.912 -0.6678  0.3155  0.5185
15322TIP3    H267382   6.511   2.967  13.771 -0.4398  0.7854  0.4025
15323TIP3   OH267383   1.690   4.761  12.519 -0.4569 -0.3845 -0.3039
15323TIP3    H167384   1.693   4.694  12.451 -1.8091 -1.5820  0.7944
15323TIP3    H267385   1.669   4.713  12.599  1.9909  0.8787  1.1438
15324TIP3   OH267386   4.631   1.454  15.530  0.3637  0.8020 -0.5357
15324TIP3    H167387   4.646   1.438  15.623 -1.9953  0.0619 -0.2369
15324TIP3    H267388   4.678   1.535  15.511  2.0133  0.2199  0.9638
15325TIP3   OH267389   6.515   5.304   6.441  0.1684 -0.4664  0.2081
15325TIP3    H167390   6.442   5.327   6.499  1.1896 -1.6227  1.9653
15325TIP3    H267391   6.488   5.222   6.399  0.3406 -0.7463  0.6457
15326TIP3   OH267392   1.864   3.980  12.763 -0.2399 -0.1205 -0.0750
15326TIP3    H167393   1.901   4.043  12.701  1.2990  0.0253  0.9624
15326TIP3    H267394   1.935   3.918  12.781 -1.8500 -2.4245 -1.3770
15327TIP3   OH267395   0.193   3.514  13.025 -0.0246 -0.4652 -0.0182
15327TIP3    H167396   0.179   3.427  12.988 -0.3358 -0.4165 -0.0176
15327TIP3    H267397   0.225   3.498  13.114  2.0599 -0.6001 -0.7570
15328TIP3   OH267398   2.057   0.707  11.533 -0.1166 -0.2514 -0.6630
15328TIP3    H167399   2.045   0.733  11.442  0.5136 -0.2883 -0.7546
15328TIP3    H267400   2.103   0.623  11.528  2.5841  1.1665 -0.2488
15329TIP3   OH267401   0.161   5.059  15.707  0.5189 -0.2665  0.2510
15329TIP3    H167402   0.180   5.140  15.660  0.2123  1.4661  3.0329
15329TIP3    H267403   0.237   5.003  15.691  1.3822  1.1107 -0.5160
15330TIP3   OH267404   6.605   2.122  13.237  0.8193  0.1813 -0.0106
15330TIP3    H167405   6.682   2.149  13.286  0.9960  0.7354 -0.5842
15330TIP3    H267406   6.634   2.119  13.145  0.4292 -0.5862 -0.1179
15331TIP3   OH267407   5.127   3.143  14.726 -0.1083  0.1955 -0.3538
15331TIP3    H167408   5.052   3.158  14.669  0.2272  0.0362 -0.8388
15331TIP3    H267409   5.142   3.048  14.721  0.5995  0.3301 -0.8605
15332TIP3   OH267410   0.752   1.141  15.200 -0.1829 -0.1421  0.0598
15332TIP3    H167411   0.738   1.104  15.113  0.1986 -1.3927  0.5202
15332TIP3    H267412   0.809   1.078  15.244  0.0958  0.7646  1.0227
15333TIP3   OH267413   0.610   4.812   1.135 -0.8638  0.7623 -0.3379
15333TIP3    H167414   0.565   4.811   1.051  0.5807 -2.4119 -1.1653
15333TIP3    H267415   0.572   4.738   1.183  0.1212  0.9644  0.7894
15334TIP3   OH267416   3.087   6.284  12.561 -0.6288  0.0334  0.2404
15334TIP3    H167417   2.997   6.313  12.576 -0.0270  1.3481  1.3637
15334TIP3    H267418   3.126   6.282  12.648  1.5202  3.0800 -0.5987
15335TIP3   OH267419   0.931   0.090   4.984  0.2662  0.3321 -0.2697
15335TIP3    H167420   0.873   0.075   5.058  0.6140  0.0241 -0.0605
15335TIP3    H267421   0.908   0.178   4.953 -0.4271  0.1409 -0.2954
15336TIP3   OH267422   0.606   0.274  14.336 -0.5710 -0.0686  0.3614
15336TIP3    H167423   0.511   0.269  14.341 -0.5793 -0.8042 -0.4201
15336TIP3    H267424   0.637   0.261  14.425 -1.2270  0.8048  0.7190
15337TIP3   OH267425   5.676   4.773   4.330  0.4221  0.5035  0.0541
15337TIP3    H167426   5.661   4.702   4.391  0.2982  0.2403 -0.2798
15337TIP3    H267427   5.589   4.795   4.297  0.5078  0.5279 -0.1563
15338TIP3   OH267428   3.023   0.592  11.191  0.1505  0.7473 -0.0643
15338TIP3    H167429   2.938   0.572  11.153 -0.6495  0.2452  1.9770
15338TIP3    H267430   3.030   0.688  11.185 -1.2505  0.9458  1.1750
15339TIP3   OH267431   3.263   4.957   3.627  0.0318 -0.5468  0.3730
15339TIP3    H167432   3.226   5.028   3.575  1.7436 -0.0934 -0.2330
15339TIP3    H267433   3.301   5.000   3.703 -1.9900 -1.1601  1.7667
15340TIP3   OH267434   4.303   3.071   5.707 -0.1407  0.1629 -0.0800
15340TIP3    H167435   4.341   3.033   5.786  0.1022  3.1778  1.3325
15340TIP3    H267436   4.375   3.071   5.644  0.3680  0.0125  0.4934
15341TIP3   OH267437   2.514   4.988   3.177  0.1239 -0.4459 -0.0220
15341TIP3    H167438   2.500   5.045   3.253  0.0008 -2.0591  1.1921
15341TIP3    H267439   2.473   5.035   3.104 -0.6975  0.6366  1.1047
15342TIP3   OH267440   5.638   1.565  13.548 -0.0158 -0.4017  0.2838
15342TIP3    H167441   5.667   1.527  13.465 -0.2456  0.8777 -0.3944
15342TIP3    H267442   5.696   1.526  13.614  1.6193  0.2145 -0.7426
15343TIP3   OH267443   1.363   2.471   3.299 -0.0510 -0.2887  0.3534
15343TIP3    H167444   1.343   2.380   3.320 -3.3045  0.3431  0.2254
15343TIP3    H267445   1.390   2.470   3.208  1.1584 -1.2829  0.7170
15344TIP3   OH267446   1.105   5.089  14.011  0.0923 -0.1508  0.0307
15344TIP3    H167447   1.096   5.078  14.106 -1.1398 -3.6186 -0.4217
15344TIP3    H267448   1.049   5.164  13.990 -0.3531  0.0689  1.9293
15345TIP3   OH267449   1.756   0.680  14.419  0.2492 -0.3258  0.4332
15345TIP3    H167450   1.697   0.708  14.489 -1.1265 -0.7922 -0.5421
15345TIP3    H267451   1.699   0.652  14.348  1.5939 -3.0898  0.3580
15346TIP3   OH267452   1.399   5.400  17.236  0.7301 -0.0633 -0.0856
15346TIP3    H167453   1.328   5.398  17.301  0.6207 -1.0471 -0.2397
15346TIP3    H267454   1.364   5.453  17.164  1.1033  1.6329  0.9451
15347TIP3   OH267455   1.126   2.286  12.804 -0.1926  0.5436 -0.0523
15347TIP3    H167456   1.221   2.283  12.814  0.1058 -0.3028 -2.8140
15347TIP3    H267457   1.100   2.195  12.798 -1.2182  0.7700  0.7556
15348TIP3   OH267458   2.629   0.379  16.204  0.0706  0.2846 -0.0891
15348TIP3    H167459   2.653   0.425  16.124  1.6599  0.6112  0.5392
15348TIP3    H267460   2.713   0.359  16.246 -0.7008 -0.7035  1.0352
15349TIP3   OH267461   2.851   1.397   4.879  0.0884  0.4223 -0.6726
15349TIP3    H167462   2.805   1.339   4.818 -0.5432 -0.0732  0.2618
15349TIP3    H267463   2.844   1.484   4.839 -2.2152  0.4690 -0.2583
15350TIP3   OH267464   3.941   6.013   2.600 -0.2158  0.2197  0.4957
15350TIP3    H167465   3.872   5.946   2.605 -0.5402  0.4940 -0.3550
15350TIP3    H267466   3.953   6.029   2.507  1.0450  0.1368  0.6348
15351TIP3   OH267467   4.825   5.272   2.600 -0.6831  1.3295 -0.0728
15351TIP3    H167468   4.851   5.313   2.683 -1.2522 -0.4324  1.0147
15351TIP3    H267469   4.906   5.271   2.548 -0.0739  1.5665  0.8503
15352TIP3   OH267470   2.892   5.990  15.346  0.2776  0.1215 -0.1153
15352TIP3    H167471   2.893   6.059  15.412 -3.6481  0.8856 -0.7589
15352TIP3    H267472   2.904   5.909  15.395 -0.4586  0.8489  1.2892
15353TIP3   OH267473   4.277   6.430   4.470  0.0803 -0.5259  0.5411
15353TIP3    H167474   4.271   6.340   4.438 -1.8594 -0.5840  0.9858
15353TIP3    H267475   4.366   6.439   4.502  0.3090 -2.2615  0.4195
15354TIP3   OH267476   4.805   1.536  10.930 -0.1024  0.3709 -0.2174
15354TIP3    H167477   4.808   1.497  10.843  0.7094  1.2137 -0.5765
15354TIP3    H267478   4.803   1.461  10.990  1.9581 -0.2509 -0.8729
15355TIP3   OH267479   2.923   4.177   2.507 -0.6401  0.4821 -0.2426
15355TIP3    H167480   2.982   4.210   2.575 -0.6060  0.0852 -0.0738
15355TIP3    H267481   2.909   4.251   2.449 -1.6663  1.1753  0.8886
15356TIP3   OH267482   5.800   0.520   4.830 -0.3452  0.3038  0.0194
15356TIP3    H167483   5.872   0.465   4.801  0.6104  0.7030  1.6266
15356TIP3    H267484   5.802   0.595   4.771  0.0273 -0.0795 -0.4601
15357TIP3   OH267485   4.018   3.560   0.661  0.2510  0.0516  0.3188
15357TIP3    H167486   4.083   3.569   0.731  0.1479 -1.6862  0.6575
15357TIP3    H267487   4.002   3.650   0.632  1.3781  0.6677  1.5311
15358TIP3   OH267488   0.341   0.857   3.796 -0.6351  0.9085  0.8404
15358TIP3    H167489   0.416   0.893   3.749  2.3387 -2.3140  2.8939
15358TIP3    H267490   0.292   0.809   3.728  0.8315  0.5264  0.0224
15359TIP3   OH267491   1.321   5.527  15.481 -0.5285 -0.4767  0.7768
15359TIP3    H167492   1.298   5.611  15.519 -0.3386 -0.5445  1.0447
15359TIP3    H267493   1.363   5.479  15.553 -1.4403 -1.1321  0.8758
15360TIP3   OH267494   0.553   5.412  11.312  0.0508 -0.0297  0.2901
15360TIP3    H167495   0.648   5.410  11.324  0.1781 -0.5648 -0.6933
15360TIP3    H267496   0.517   5.394  11.399  0.8509  0.2613  0.6839
15361TIP3   OH267497   3.490   0.946  13.098 -0.1252  0.5972  0.1147
15361TIP3    H167498   3.482   0.965  13.005  0.5640 -0.2495 -0.1298
15361TIP3    H267499   3.418   0.994  13.139 -1.1754  0.0027 -0.9939
15362TIP3   OH267500   0.670   0.064   0.008 -0.0497  0.1038  0.3954
15362TIP3    H167501   0.642  -0.017  -0.035 -0.1817  0.5937 -0.4593
15362TIP3    H267502   0.757   0.044   0.042  0.2656 -0.1375 -0.5467
15363TIP3   OH267503   0.250   5.985   1.397 -0.2336  0.1330  0.1963
15363TIP3    H167504   0.198   6.064   1.409  0.0869  0.3919 -0.1119
15363TIP3    H267505   0.198   5.916   1.438 -0.1923  0.6174  1.0821
15364TIP3   OH267506   3.531   3.383   4.229  0.7680 -0.2369  0.0177
15364TIP3    H167507   3.572   3.305   4.268  1.5655 -0.3963 -1.1179
15364TIP3    H267508   3.532   3.366   4.135  0.9773  1.1677 -0.2440
15365TIP3   OH267509   2.111   6.756  15.045  0.2985 -0.6432 -0.4951
15365TIP3    H167510   2.129   6.662  15.038  2.2400 -0.4987  1.6935
15365TIP3    H267511   2.074   6.766  15.133 -0.0053  0.6183 -0.7634
15366TIP3   OH267512   5.081   1.885  11.338 -0.7006 -0.1763  0.0071
15366TIP3    H167513   5.118   1.817  11.393 -1.4768 -0.7232 -0.1426
15366TIP3    H267514   5.150   1.952  11.333 -0.4699 -0.2959  1.3070
15367TIP3   OH267515   4.142   5.358  12.077  0.6617  0.4297 -0.6914
15367TIP3    H167516   4.172   5.299  12.147  0.3278 -0.9258 -1.6660
15367TIP3    H267517   4.103   5.300  12.012 -2.4667  1.9619 -0.3061
15368TIP3   OH267518   1.198   6.644  14.535  0.1004  0.1774 -0.1735
15368TIP3    H167519   1.161   6.710  14.594  1.2608  0.7871 -0.1242
15368TIP3    H267520   1.291   6.665  14.530  0.6537 -2.0285  0.5536
15369TIP3   OH267521   0.677   5.830   5.515  0.3903  0.1865  0.0459
15369TIP3    H167522   0.595   5.847   5.469  1.5381  1.3718 -1.6312
15369TIP3    H267523   0.661   5.857   5.605 -0.9355  0.7642 -0.3617
15370TIP3   OH267524   5.495   1.739   1.472 -0.9065 -0.1598  0.1605
15370TIP3    H167525   5.582   1.703   1.485 -0.5892  0.0196 -1.2957
15370TIP3    H267526   5.479   1.795   1.548 -0.1354 -0.9235  0.8850
15371TIP3   OH267527   6.223   1.895  12.268  0.7286 -0.5305  0.4376
15371TIP3    H167528   6.278   1.966  12.233  0.8112 -1.1443 -0.6939
15371TIP3    H267529   6.212   1.835  12.195  1.4939 -2.2049  1.6616
15372TIP3   OH267530   6.667   6.327  11.810 -0.1649 -0.0526  0.1472
15372TIP3    H167531   6.690   6.269  11.882  0.6858 -0.5322 -0.4906
15372TIP3    H267532   6.729   6.304  11.740 -1.6811 -0.3639 -1.1207
15373TIP3   OH267533   4.599   0.928   2.397  0.2680  0.0117 -0.0187
15373TIP3    H167534   4.589   0.915   2.491  0.5143  1.9542  0.3122
15373TIP3    H267535   4.627   1.020   2.389 -2.6939  0.7989 -2.1514
15374TIP3   OH267536   3.679   5.986  11.499 -0.2118  0.3271  0.2348
15374TIP3    H167537   3.617   6.050  11.534 -0.6509 -0.2466  0.5021
15374TIP3    H267538   3.645   5.901  11.527  0.0430 -0.0672 -0.6336
15375TIP3   OH267539   3.252   3.986  12.798 -0.0556  0.2627  0.4237
15375TIP3    H167540   3.175   4.028  12.761 -0.6424 -1.1779 -0.0288
15375TIP3    H267541   3.232   3.892  12.796  0.8001  0.0111  2.3326
15376TIP3   OH267542   4.196   1.007   4.686 -0.1014  0.8583  0.0980
15376TIP3    H167543   4.147   0.934   4.725  1.8381 -0.1555  0.7112
15376TIP3    H267544   4.217   0.976   4.598  1.3721  0.3222  0.6119
15377TIP3   OH267545   0.948   3.528   4.969  0.7415  0.5264 -0.1166
15377TIP3    H167546   0.993   3.489   4.894  1.6898  1.0929  0.1489
15377TIP3    H267547   0.998   3.607   4.988 -1.6976  2.4116 -1.2394
15378TIP3   OH267548   0.070   4.830  13.785 -0.0043  0.0818  0.4536
15378TIP3    H167549   0.046   4.742  13.758  0.2169 -0.8672  3.1371
15378TIP3    H267550  -0.012   4.870  13.815 -0.3665  1.3423 -2.1179
15379TIP3   OH267551   2.956   5.294  11.861  0.3172  0.5491  0.4760
15379TIP3    H167552   2.987   5.312  11.772  0.2926  1.6621  0.6881
15379TIP3    H267553   2.955   5.379  11.904 -1.6987  0.3457  0.9044
15380TIP3   OH267554   0.267   4.877  15.139  0.0660  0.6007  0.3915
15380TIP3    H167555   0.300   4.849  15.224  0.0429 -0.8114 -0.0570
15380TIP3    H267556   0.343   4.913  15.094  0.2523  0.5695  0.6849
15381TIP3   OH267557   2.263   3.179   2.482 -0.4710 -0.4148 -0.1232
15381TIP3    H167558   2.278   3.229   2.402 -3.4831 -0.7643 -0.9633
15381TIP3    H267559   2.266   3.244   2.552  0.2432  0.1975 -0.7170
15382TIP3   OH267560   0.184   3.077   2.178 -0.4275  0.1387  0.0949
15382TIP3    H167561   0.259   3.079   2.119  0.4103 -0.6673  1.0982
15382TIP3    H267562   0.208   3.138   2.249  0.2015 -1.6448  1.4593
15383TIP3   OH267563   0.158   1.835  15.319 -0.1333  0.4320 -0.5878
15383TIP3    H167564   0.245   1.872  15.337  0.2926 -0.2073 -1.3095
15383TIP3    H267565   0.099   1.888  15.372  0.6982  0.8577 -0.0594
15384TIP3   OH267566   2.372   5.722  12.663 -0.5710 -0.2601  0.0690
15384TIP3    H167567   2.360   5.632  12.634  0.5376 -0.7418  1.0825
15384TIP3    H267568   2.379   5.773  12.582  1.4037 -1.4262 -0.5145
15385TIP3   OH267569   0.924   2.526   4.675  0.1339 -0.0495  0.3334
15385TIP3    H167570   0.947   2.436   4.653 -0.4345 -0.2151  0.3838
15385TIP3    H267571   0.955   2.537   4.765 -0.6939 -0.5318  0.6871
15386TIP3   OH267572   0.896   3.900   2.546  0.7131  0.8107 -0.0927
15386TIP3    H167573   0.895   3.990   2.579 -1.6671  1.3176 -1.4690
15386TIP3    H267574   0.864   3.847   2.619  0.5391  1.2703  0.1627
15387TIP3   OH267575   1.886   4.044  11.996  0.3256  0.2827  0.2748
15387TIP3    H167576   1.915   4.021  11.908 -0.9582 -0.9147  0.1537
15387TIP3    H267577   1.809   4.100  11.982  0.6045  0.7535  0.6248
15388TIP3   OH267578   4.716   2.560  12.777 -0.4278  0.1623 -0.0918
15388TIP3    H167579   4.638   2.552  12.723 -1.4339  0.1372  1.3137
15388TIP3    H267580   4.691   2.520  12.861  1.0390  0.3015  0.4391
15389TIP3   OH267581   3.550   1.498   3.602  0.6283  0.2322  0.3140
15389TIP3    H167582   3.562   1.434   3.672 -2.0234 -0.0255  0.5967
15389TIP3    H267583   3.573   1.450   3.522  1.2402 -0.2447  0.7666
15390TIP3   OH267584   5.952   2.852  13.995  0.0002  0.2543  0.6615
15390TIP3    H167585   5.939   2.775  14.050  0.1212  0.8515  1.5448
15390TIP3    H267586   5.954   2.818  13.905 -1.5249 -0.5762  0.9269
15391TIP3   OH267587   0.811   5.018  14.707 -0.0289  0.4618 -0.5892
15391TIP3    H167588   0.770   5.053  14.786  0.0605  2.3497 -1.3589
15391TIP3    H267589   0.738   4.982  14.657 -0.3402  0.9572 -0.4998
15392TIP3   OH267590   0.247   2.504  14.291  0.7742 -0.2726  0.0161
15392TIP3    H167591   0.218   2.486  14.380  0.9090 -0.1131  0.0899
15392TIP3    H267592   0.234   2.420  14.245 -1.3713  0.2418 -0.3713
15393TIP3   OH267593   3.106   3.650  11.101  0.4960 -0.0488  0.4038
15393TIP3    H167594   3.068   3.663  11.187 -0.5699 -0.0395 -0.0612
15393TIP3    H267595   3.087   3.731  11.054  4.9123  1.8374  1.5279
15394TIP3   OH267596   0.803   1.645   4.736 -0.2076 -0.0109 -0.4906
15394TIP3    H167597   0.875   1.655   4.798  0.0861 -0.1083 -0.8159
15394TIP3    H267598   0.845   1.616   4.655 -0.7156 -0.9747 -0.4151
15395TIP3   OH267599   0.043   1.841  11.067 -0.0669  0.9558  0.2710
15395TIP3    H167600   0.037   1.869  10.976  2.2831  1.9194  0.4001
15395TIP3    H267601   0.042   1.745  11.063 -2.6405  0.9796 -0.5419
15396TIP3   OH267602   3.414   6.684  17.025 -0.0403  0.2011 -0.2659
15396TIP3    H167603   3.487   6.733  16.987  0.1012  1.4443  1.5634
15396TIP3    H267604   3.342   6.748  17.028 -0.7053 -0.5300 -0.4953
15397TIP3   OH267605   2.646   6.279  11.157  0.3516 -0.2665 -0.5648
15397TIP3    H167606   2.693   6.305  11.078 -1.7682  2.1213 -1.1157
15397TIP3    H267607   2.574   6.225  11.126 -0.2153  0.2909 -0.2347
15398TIP3   OH267608   0.242   0.015  13.552  0.0245  0.0780  0.2791
15398TIP3    H167609   0.251  -0.059  13.612  0.1026 -1.0944 -1.1477
15398TIP3    H267610   0.148   0.017  13.531  0.4506 -1.5545 -2.0352
15399TIP3   OH267611   4.717   0.397   4.694  0.1410 -0.1825  0.0883
15399TIP3    H167612   4.699   0.374   4.603 -0.4069 -1.7980  0.5787
15399TIP3    H267613   4.792   0.342   4.718 -0.1543 -0.2738  0.8139
15400TIP3   OH267614   3.576   1.892   4.280 -0.1695 -0.2918  0.1559
15400TIP3    H167615   3.662   1.928   4.257  0.3649 -0.1447  2.2753
15400TIP3    H267616   3.592   1.800   4.296 -0.6989 -0.5683 -0.8271
15401TIP3   OH267617   1.205   3.354   5.910 -0.1971 -0.4226  0.0660
15401TIP3    H167618   1.212   3.359   6.005  1.4732 -1.3151 -0.0009
15401TIP3    H267619   1.178   3.442   5.884 -1.6648 -0.4378  1.4305
15402TIP3   OH267620   5.114   2.340  14.364  0.1318  0.1054  0.0784
15402TIP3    H167621   5.051   2.354  14.293  0.5491  0.8768 -0.1482
15402TIP3    H267622   5.126   2.245  14.368  0.2570  0.0690 -1.0117
15403TIP3   OH267623   5.164   1.378   1.505  0.1226 -0.4610  0.0749
15403TIP3    H167624   5.096   1.429   1.548  0.9842  0.1329  0.7576
15403TIP3    H267625   5.141   1.379   1.412  0.7567  2.1520 -0.0892
15404TIP3   OH267626   2.004   3.420  13.912  0.0575 -0.1623  0.3681
15404TIP3    H167627   1.984   3.327  13.896 -0.5676  0.2034 -0.9827
15404TIP3    H267628   1.941   3.447  13.979  1.4175 -1.1731  2.1221
15405TIP3   OH267629   2.506   2.265   1.600  0.2879 -0.0854 -0.1404
15405TIP3    H167630   2.489   2.289   1.691  0.6889 -2.1883  0.5237
15405TIP3    H267631   2.600   2.247   1.598  0.3978  0.6179 -1.1295
15406TIP3   OH267632   1.586   2.555  11.175  0.6154  0.3835  0.4457
15406TIP3    H167633   1.628   2.529  11.093  1.0124 -0.4384  0.9026
15406TIP3    H267634   1.657   2.557  11.239 -0.2007 -2.3517  1.5436
15407TIP3   OH267635   1.495   6.725  14.703  0.2774 -0.2641 -0.1348
15407TIP3    H167636   1.568   6.667  14.679 -0.9403 -1.3453 -1.2879
15407TIP3    H267637   1.429   6.667  14.739 -0.5409  0.5405 -0.3097
15408TIP3   OH267638   6.147   5.464  15.026  0.3970  0.4236 -0.1647
15408TIP3    H167639   6.099   5.474  15.108  0.7530  1.2608 -0.0537
15408TIP3    H267640   6.083   5.431  14.964 -0.1177  0.7754  0.1823
15409TIP3   OH267641   2.390   0.742  11.828 -0.3776 -0.3533  0.6840
15409TIP3    H167642   2.416   0.649  11.827  1.3931  0.1130 -1.1856
15409TIP3    H267643   2.387   0.766  11.735 -1.5311  1.2799  1.1310
15410TIP3   OH267644   3.163   2.259   4.848  0.6262  0.2692  0.0596
15410TIP3    H167645   3.228   2.188   4.852 -0.6057 -0.8664  0.0774
15410TIP3    H267646   3.176   2.298   4.761 -1.2483 -2.4721 -1.5353
15411TIP3   OH267647   3.333   3.056   2.381 -0.0139  0.5243  0.1962
15411TIP3    H167648   3.328   3.113   2.304  1.5184  0.6577  0.1845
15411TIP3    H267649   3.312   2.969   2.348  2.2660  0.3000 -0.6981
15412TIP3   OH267650   0.024   5.836   3.981  0.0905  0.9064  0.0089
15412TIP3    H167651  -0.045   5.778   3.950 -0.4830  1.7347 -0.2777
15412TIP3    H267652   0.072   5.862   3.902  0.1326  1.0962  0.0949
15413TIP3   OH267653   4.863   2.410   6.135 -0.0188  0.2771 -0.5849
15413TIP3    H167654   4.932   2.372   6.190 -0.9502  0.2586  0.5986
15413TIP3    H267655   4.864   2.503   6.157  0.1686  0.4136 -1.1663
15414TIP3   OH267656   4.618   1.570   2.201  0.3244 -0.6738 -0.5563
15414TIP3    H167657   4.551   1.575   2.133 -0.7389 -3.0404  0.2620
15414TIP3    H267658   4.669   1.492   2.179  1.7730  0.1592 -0.2223
15415TIP3   OH267659   0.538   5.579   5.815 -0.4424 -0.0650  0.2231
15415TIP3    H167660   0.609   5.578   5.750  0.3428 -0.4600  1.0559
15415TIP3    H267661   0.458   5.588   5.764 -0.0764 -3.1838 -1.0624
15416TIP3   OH267662   2.898   2.770   5.405 -1.0131 -0.3918  0.4445
15416TIP3    H167663   2.865   2.757   5.494 -0.4841  0.0408  0.7022
15416TIP3    H267664   2.825   2.812   5.358 -0.1459  2.4330  1.5388
15417TIP3   OH267665   5.971   4.745   2.760 -0.3889 -0.5950  1.0607
15417TIP3    H167666   6.019   4.795   2.694 -0.2652 -1.1081  0.7544
15417TIP3    H267667   5.903   4.700   2.709 -0.4276 -0.8223  1.3149
15418TIP3   OH267668   1.285   4.442  11.589  0.5392 -0.4427 -0.1347
15418TIP3    H167669   1.203   4.449  11.638  1.3819  0.9471  1.1163
15418TIP3    H267670   1.334   4.373  11.634  0.1669 -1.0843 -0.7166
15419TIP3   OH267671   4.484   2.263   1.407 -0.1016 -0.4481 -0.1919
15419TIP3    H167672   4.438   2.342   1.435  2.1657 -0.1672  3.0190
15419TIP3    H267673   4.554   2.294   1.349 -1.2194 -0.4754 -1.5967
15420TIP3   OH267674   1.034   2.425  13.008 -0.0011  0.6510 -0.4680
15420TIP3    H167675   1.054   2.352  12.949 -1.1447  1.1214 -1.4524
15420TIP3    H267676   1.023   2.501  12.951 -1.1111  1.1173  0.3498
15421TIP3   OH267677   6.771   3.561   0.573 -0.2757 -0.6571 -0.2820
15421TIP3    H167678   6.799   3.615   0.647  0.4564 -2.0848  0.4976
15421TIP3    H267679   6.678   3.545   0.589 -0.0421 -1.2615  0.5506
15422TIP3   OH267680   1.906   5.306   5.126  0.1065  0.1378 -0.1460
15422TIP3    H167681   1.928   5.212   5.122 -1.2386 -0.2277  0.5564
15422TIP3    H267682   1.814   5.310   5.099  0.3162  1.3232 -0.6774
15423TIP3   OH267683   1.571   0.622   1.672  0.1088 -0.1876  0.4454
15423TIP3    H167684   1.597   0.695   1.728  0.5685 -0.5701  0.7359
15423TIP3    H267685   1.631   0.626   1.598  0.3266 -0.4407  0.6047
15424TIP3   OH267686   3.253   3.647   0.186  0.1820 -0.2098  0.1351
15424TIP3    H167687   3.345   3.620   0.198 -0.5532 -2.7217  0.5121
15424TIP3    H267688   3.222   3.592   0.113 -0.8730  1.0314 -0.3628
15425TIP3   OH267689   6.693   3.245  13.908 -0.1815  0.1427  0.2651
15425TIP3    H167690   6.645   3.276  13.831  0.2142 -0.4408 -0.2137
15425TIP3    H267691   6.673   3.310  13.976 -3.5391 -1.2891  0.7640
15426TIP3   OH267692   2.904   5.341   0.295  0.1699  0.2182  0.4190
15426TIP3    H167693   2.864   5.275   0.351 -2.5535  1.5267  0.1149
15426TIP3    H267694   2.902   5.421   0.348  0.5108  0.7510 -0.3719
15427TIP3   OH267695   4.338   3.696  12.076 -0.0862 -0.5969 -0.2031
15427TIP3    H167696   4.398   3.763  12.108  0.4835 -0.0328 -2.4279
15427TIP3    H267697   4.313   3.648  12.155  1.9484  0.2223  0.9838
15428TIP3   OH267698   5.838   0.231  14.838 -0.3779  0.2434  0.5046
15428TIP3    H167699   5.816   0.324  14.834 -1.3402  0.1857  3.3351
15428TIP3    H267700   5.756   0.187  14.816 -0.1416  0.0576 -0.0047
15429TIP3   OH267701   0.120   5.113   4.566 -0.3079 -0.0595  0.1936
15429TIP3    H167702   0.202   5.153   4.535 -0.7330 -0.0291 -0.9052
15429TIP3    H267703   0.052   5.155   4.515 -0.9343 -0.8015  0.4083
15430TIP3   OH267704   2.389   6.362   1.653  0.2507 -0.0484  0.0501
15430TIP3    H167705   2.448   6.430   1.621 -1.0108 -0.6207 -3.7380
15430TIP3    H267706   2.359   6.394   1.738  0.3352  3.7682 -1.2559
15431TIP3   OH267707   3.137   6.774  14.544  0.0479  0.9694  0.0405
15431TIP3    H167708   3.111   6.865  14.534  0.7205  1.0040 -1.4073
15431TIP3    H267709   3.220   6.766  14.497  0.4863 -0.1600  0.9703
15432TIP3   OH267710   6.734   4.312   3.356 -0.4395  0.3954  0.5715
15432TIP3    H167711   6.808   4.252   3.352  0.0891  1.1316 -1.4956
15432TIP3    H267712   6.663   4.265   3.312  0.0221  1.3251 -1.1966
15433TIP3   OH267713   5.899   1.139   3.362 -0.1638 -0.0274 -0.5644
15433TIP3    H167714   5.895   1.046   3.341 -2.3443 -0.0252 -0.2573
15433TIP3    H267715   5.950   1.144   3.442  1.6583 -0.7614 -1.6588
15434TIP3   OH267716   6.639   5.793   5.723  0.3048  0.6782 -0.4903
15434TIP3    H167717   6.701   5.724   5.701  1.4446  1.2569  0.8521
15434TIP3    H267718   6.604   5.767   5.809  1.3260  2.1608  0.3875
15435TIP3   OH267719   4.596   5.532   2.989 -0.7943 -0.5820  0.2935
15435TIP3    H167720   4.580   5.611   3.042 -1.7328 -0.3601 -0.2997
15435TIP3    H267721   4.621   5.566   2.903  1.2760 -0.9412  0.7347
15436TIP3   OH267722   2.220   4.329   1.006 -0.5880 -0.1341 -0.7230
15436TIP3    H167723   2.215   4.326   0.911  0.8128 -0.2806 -0.7996
15436TIP3    H267724   2.201   4.420   1.029  0.4036  0.2029 -1.2286
15437TIP3   OH267725   3.120   5.859   1.996  0.8163 -0.1011 -0.1112
15437TIP3    H167726   3.156   5.937   2.039 -0.1238  0.1555  0.2235
15437TIP3    H267727   3.161   5.859   1.910  1.7147  0.1145  0.3050
15438TIP3   OH267728   5.431   5.109  10.962 -0.1315 -0.0437 -0.4104
15438TIP3    H167729   5.342   5.083  10.937  0.4332  0.1329 -2.6638
15438TIP3    H267730   5.438   5.201  10.937 -0.1766  0.7339  2.2366
15439TIP3   OH267731   0.751   0.283   0.460 -0.4618  0.2214  0.0811
15439TIP3    H167732   0.779   0.369   0.491  1.9074 -0.1251 -1.0400
15439TIP3    H267733   0.739   0.294   0.366 -0.1908 -0.6777 -0.0655
15440TIP3   OH267734   3.119   4.483  11.352  0.3911 -0.1936 -0.0002
15440TIP3    H167735   3.138   4.576  11.338 -2.3256  0.3884 -0.1633
15440TIP3    H267736   3.062   4.459  11.279  1.0543 -2.0101  0.0505
15441TIP3   OH267737   5.421   5.942   1.455 -0.4867  0.1038 -0.5650
15441TIP3    H167738   5.513   5.950   1.429 -0.5024 -0.9166 -0.9626
15441TIP3    H267739   5.385   5.876   1.396 -0.7686 -1.5299  1.3801
15442TIP3   OH267740   4.565   3.172  11.825 -0.4058  0.4868  0.7759
15442TIP3    H167741   4.656   3.198  11.843  0.3352 -1.1486 -0.5095
15442TIP3    H267742   4.542   3.116  11.899  0.1370 -0.2873  0.3628
15443TIP3   OH267743   4.857   3.561  16.793  0.7355 -0.1547  0.2830
15443TIP3    H167744   4.840   3.554  16.887  2.3517  1.8911  0.7446
15443TIP3    H267745   4.950   3.541  16.784  1.3900  2.9830 -0.4416
15444TIP3   OH267746   4.768   1.874   4.816 -0.0338 -0.0100 -0.1968
15444TIP3    H167747   4.842   1.890   4.874 -0.9671  0.5683  0.8453
15444TIP3    H267748   4.769   1.780   4.800  0.1268 -0.1952  0.8936
15445TIP3   OH267749   5.173   1.141   0.458  0.3296  0.4610  0.4631
15445TIP3    H167750   5.165   1.067   0.518 -0.3986 -0.4352 -0.7271
15445TIP3    H267751   5.084   1.161   0.431  0.6191  1.0741 -0.0717
15446TIP3   OH267752   4.359   4.449  16.958 -0.3199 -0.0032 -0.3981
15446TIP3    H167753   4.427   4.388  16.985 -0.9329 -0.4807  0.0663
15446TIP3    H267754   4.278   4.398  16.959 -0.6618  0.5164 -1.1132
15447TIP3   OH267755   2.322   6.679   0.513  0.2820 -0.1650  0.0855
15447TIP3    H167756   2.328   6.772   0.531 -1.0379 -0.1378  0.3755
15447TIP3    H267757   2.285   6.673   0.425  1.2026 -0.4074 -0.2947
15448TIP3   OH267758   3.476   5.414   6.578 -0.8558 -0.1802  0.2290
15448TIP3    H167759   3.561   5.406   6.534  0.0917  1.0575  1.7847
15448TIP3    H267760   3.415   5.438   6.509  0.2033 -0.3436 -0.7725
15449TIP3   OH267761   3.611   4.935  12.708 -0.4343 -0.4768 -0.0959
15449TIP3    H167762   3.685   4.877  12.722  0.5805  0.5647 -1.0998
15449TIP3    H267763   3.649   5.022  12.695 -1.8360  0.1525 -0.1891
15450TIP3   OH267764   6.394   5.540  13.790  0.3500 -0.1410  0.6101
15450TIP3    H167765   6.320   5.512  13.843  1.0318  0.1500  1.7409
15450TIP3    H267766   6.453   5.583  13.852 -0.2097  2.9358 -0.8946
15451TIP3   OH267767   5.918   2.101   5.775 -0.1442 -0.0091  0.1044
15451TIP3    H167768   5.922   2.013   5.812  1.3322 -0.2697 -0.6397
15451TIP3    H267769   5.875   2.153   5.843  2.1049 -0.5816  2.0348
15452TIP3   OH267770   3.925   1.487   3.339  0.7577  0.3617 -0.1179
15452TIP3    H167771   3.991   1.465   3.406  0.1475  0.6585  0.5893
15452TIP3    H267772   3.893   1.573   3.365  0.2685  0.3217 -0.6005
15453TIP3   OH267773   6.065   2.455  15.492  0.9535 -0.0924  0.3378
15453TIP3    H167774   6.150   2.497  15.478  0.5529  0.1429 -1.5018
15453TIP3    H267775   6.067   2.377  15.436 -0.4256  0.4819 -0.5468
15454TIP3   OH267776   5.121   3.199   4.349 -0.0727 -0.0562 -0.3365
15454TIP3    H167777   5.077   3.183   4.432  0.7827  0.8159  0.3035
15454TIP3    H267778   5.053   3.190   4.282 -0.7715 -0.7151  0.4640
15455TIP3   OH267779   3.919   5.620   2.462  0.2260 -0.3419  0.5141
15455TIP3    H167780   3.932   5.661   2.377 -1.9004 -0.3630  0.1495
15455TIP3    H267781   3.937   5.527   2.448 -1.0061 -0.4935 -0.1606
15456TIP3   OH267782   1.103   5.668  15.873 -0.0269  0.0409 -0.3443
15456TIP3    H167783   1.042   5.692  15.803 -0.8440 -2.0760 -0.3995
15456TIP3    H267784   1.106   5.745  15.930 -2.2336  0.4147 -0.6984
15457TIP3   OH267785   6.670   0.644   4.683  0.3600  0.3370 -0.0722
15457TIP3    H167786   6.693   0.735   4.663  0.7876  0.3297  0.3770
15457TIP3    H267787   6.727   0.620   4.756 -0.2841 -0.0476  0.3153
15458TIP3   OH267788   5.683   4.212  14.198  0.0641 -0.1682 -0.1556
15458TIP3    H167789   5.655   4.280  14.136 -0.8650  0.4917  0.9511
15458TIP3    H267790   5.745   4.256  14.255  0.1916 -0.5109 -0.0303
15459TIP3   OH267791   0.003   3.197  14.379 -0.1039 -0.2312  0.0130
15459TIP3    H167792  -0.066   3.212  14.443  0.6965 -0.5517  0.9686
15459TIP3    H267793  -0.028   3.123  14.327 -0.5996 -0.2008  0.2650
15460TIP3   OH267794   5.539   1.426  14.583  0.0139  0.0056  0.1474
15460TIP3    H167795   5.580   1.374  14.651  1.0481  0.6444  0.0215
15460TIP3    H267796   5.501   1.501  14.629  1.4981  0.9081 -0.0758
15461TIP3   OH267797   5.713   3.472   2.058 -0.3459  0.2688 -0.1182
15461TIP3    H167798   5.722   3.437   1.969  0.7877  0.0086  0.0908
15461TIP3    H267799   5.753   3.558   2.054 -1.5497  0.8382 -0.1900
15462TIP3   OH267800   3.451   0.339   5.180  0.2986 -0.2003 -0.2255
15462TIP3    H167801   3.365   0.380   5.175 -0.0572 -0.8215  0.5764
15462TIP3    H267802   3.498   0.371   5.103 -0.4308  0.6360 -0.3306
15463TIP3   OH267803   2.012   2.764  14.284 -0.0952 -0.2651  0.4588
15463TIP3    H167804   1.929   2.762  14.330  0.1123  2.4683  1.0328
15463TIP3    H267805   1.997   2.821  14.208  0.8591 -0.9047 -0.2340
15464TIP3   OH267806   1.667   0.405  14.077  0.0747 -0.3180 -0.2829
15464TIP3    H167807   1.753   0.446  14.064  0.1997  0.2261  1.9297
15464TIP3    H267808   1.672   0.322  14.030  0.3489  1.5028 -3.5883
15465TIP3   OH267809   4.423   1.910  14.047  0.1550 -0.2344  0.0184
15465TIP3    H167810   4.507   1.893  14.089 -0.0896 -1.8705 -0.1162
15465TIP3    H267811   4.365   1.934  14.119  0.9546  1.8479  0.0020
15466TIP3   OH267812   5.524   6.556   2.869 -0.0919 -0.0338 -0.3671
15466TIP3    H167813   5.607   6.559   2.821  0.4530 -0.9399  0.5063
15466TIP3    H267814   5.522   6.639   2.918  1.0473 -0.6769  0.8138
15467TIP3   OH267815   4.281   5.058  12.251  0.2407  0.3153  0.8141
15467TIP3    H167816   4.320   5.054  12.164  2.5837 -0.2993  1.8631
15467TIP3    H267817   4.187   5.047  12.235  0.3958  2.1858 -1.7874
15468TIP3   OH267818   5.689   5.349  15.243 -0.0166 -0.1063 -0.0869
15468TIP3    H167819   5.636   5.424  15.268 -1.7237 -2.4391  3.7598
15468TIP3    H267820   5.635   5.300  15.181 -1.5086 -1.2346  2.0271
15469TIP3   OH267821   1.851   3.299   3.850 -1.0576  0.4888 -0.3683
15469TIP3    H167822   1.835   3.314   3.943 -3.0673  1.1635 -0.7881
15469TIP3    H267823   1.897   3.377   3.821 -0.6252  0.3779  0.0177
15470TIP3   OH267824   2.648   6.656   0.405  0.2926  0.2039  0.1920
15470TIP3    H167825   2.568   6.696   0.373 -0.0358  0.0642  0.8196
15470TIP3    H267826   2.620   6.576   0.449  0.8119 -0.0351  0.0976
15471TIP3   OH267827   6.072   1.116  16.855 -0.4671 -0.1622  0.2240
15471TIP3    H167828   5.982   1.084  16.854 -0.4523 -0.2368  1.0319
15471TIP3    H267829   6.078   1.174  16.779 -1.4466  0.5233  0.6600
15472TIP3   OH267830   4.393   2.779   0.277 -0.1103  0.2694 -0.2232
15472TIP3    H167831   4.428   2.841   0.342  0.8315 -0.0623 -0.4085
15472TIP3    H267832   4.426   2.694   0.306 -0.2952  0.0267 -0.7312
15473TIP3   OH267833   5.519   5.018  13.647 -0.3421  0.0194 -0.7396
15473TIP3    H167834   5.612   5.040  13.641 -0.1907 -0.2681  0.5919
15473TIP3    H267835   5.515   4.940  13.702 -1.4366  0.4857 -0.1296
15474TIP3   OH267836   3.703   2.064  13.592  0.0264  0.1842 -0.4915
15474TIP3    H167837   3.670   2.049  13.503 -1.0409  0.5859 -0.1691
15474TIP3    H267838   3.796   2.083  13.579  0.1415 -0.9212 -1.4148
15475TIP3   OH267839   2.407   1.581   1.086  0.6146  0.1203  0.0189
15475TIP3    H167840   2.420   1.608   0.995 -0.6386  0.6301 -0.0190
15475TIP3    H267841   2.477   1.624   1.135 -0.0273  1.6452 -0.3795
15476TIP3   OH267842   3.556   4.852   1.854 -0.0938 -0.5783  0.1002
15476TIP3    H167843   3.533   4.815   1.769 -1.0873  0.8658 -0.2608
15476TIP3    H267844   3.575   4.775   1.909 -0.1873 -1.5401 -1.1960
15477TIP3   OH267845   1.270   2.785   6.360 -0.6871 -0.3305 -0.1609
15477TIP3    H167846   1.341   2.745   6.410 -1.4041  1.3278  2.2931
15477TIP3    H267847   1.206   2.715   6.347 -0.0790 -1.0054  0.5024
15478TIP3   OH267848   4.184   3.545  16.874  0.1472  0.2652  0.0573
15478TIP3    H167849   4.245   3.492  16.825  0.6412  1.2534 -0.4043
15478TIP3    H267850   4.108   3.488  16.889  0.6961 -0.5715 -0.3749
15479TIP3   OH267851   5.374   1.267  12.614 -0.1510 -0.3134  0.5366
15479TIP3    H167852   5.373   1.173  12.597  0.7137 -0.0299 -1.0998
15479TIP3    H267853   5.443   1.302  12.558 -0.4888  1.3104  1.0933
15480TIP3   OH267854   2.728   6.067   6.274  0.4663  0.1644  0.2163
15480TIP3    H167855   2.783   6.128   6.324 -0.3424  0.5543  0.6415
15480TIP3    H267856   2.652   6.052   6.329 -0.3770  0.4930 -0.8278
15481TIP3   OH267857   2.775   1.807  17.237  0.5361  0.0712 -0.4489
15481TIP3    H167858   2.799   1.834  17.326 -0.1521 -0.1208 -0.1986
15481TIP3    H267859   2.698   1.752  17.249  1.2052 -1.0035 -1.0620
15482TIP3   OH267860   5.793   6.497  15.133 -0.0578 -0.2953  0.1360
15482TIP3    H167861   5.751   6.515  15.217 -0.4453 -2.2817  0.3803
15482TIP3    H267862   5.743   6.548  15.070 -0.4699  0.3188  0.9476
15483TIP3   OH267863   1.534   4.121   4.468 -0.2396  0.1657  0.1841
15483TIP3    H167864   1.476   4.089   4.537  1.0356  0.6687  1.5133
15483TIP3    H267865   1.565   4.205   4.499 -0.2163  0.7550 -1.3593
15484TIP3   OH267866   5.775   4.518   5.217  0.7793 -0.3841  0.6240
15484TIP3    H167867   5.847   4.541   5.157 -1.6592  1.0863 -1.8618
15484TIP3    H267868   5.786   4.577   5.292  0.8220  1.5131 -0.8252
15485TIP3   OH267869   0.640   6.722   5.825 -0.4947  0.6432  0.4948
15485TIP3    H167870   0.613   6.812   5.808  1.2398  0.8305 -1.4059
15485TIP3    H267871   0.639   6.714   5.920 -2.5648  2.0535  0.6356
15486TIP3   OH267872   5.368   5.377  14.469 -0.3966 -0.4035  0.0829
15486TIP3    H167873   5.314   5.337  14.538  0.1734 -1.4736 -0.0822
15486TIP3    H267874   5.379   5.307  14.404  1.1575 -0.1763  0.0959
15487TIP3   OH267875   2.976   3.898   4.824 -0.0927  0.1830 -0.4363
15487TIP3    H167876   2.955   3.866   4.736  1.0574 -0.4649 -0.4975
15487TIP3    H267877   2.935   3.835   4.883  1.3094 -0.8715 -0.5495
15488TIP3   OH267878   6.317   3.182   0.018 -0.0463  0.1765 -0.2330
15488TIP3    H167879   6.299   3.258   0.073 -3.1613  0.1110 -1.0653
15488TIP3    H267880   6.259   3.113   0.052  0.4455 -0.8737 -1.4721
15489TIP3   OH267881   2.824   1.335  10.722  0.3369  0.2128  0.2667
15489TIP3    H167882   2.873   1.412  10.752  1.0589 -0.2602  0.2984
15489TIP3    H267883   2.889   1.266  10.715 -0.3836 -0.5136  0.6245
15490TIP3   OH267884   0.755   3.507  14.316 -0.0473 -0.1002  0.0989
15490TIP3    H167885   0.771   3.478  14.227 -0.9735  0.4853 -0.2562
15490TIP3    H267886   0.663   3.487  14.333 -0.5768  2.1582  0.0125
15491TIP3   OH267887   3.122   3.516  11.819  0.1053 -0.4887 -0.8458
15491TIP3    H167888   3.133   3.473  11.904 -1.0229 -0.9182 -0.8960
15491TIP3    H267889   3.177   3.466  11.759  0.2205 -0.7363 -0.5337
15492TIP3   OH267890   2.609   6.532  14.477 -0.6384  0.2595 -0.2928
15492TIP3    H167891   2.671   6.509  14.409 -0.6914 -0.9448  0.0481
15492TIP3    H267892   2.646   6.494  14.557 -1.7728 -0.4217 -0.0807
15493TIP3   OH267893   5.118   0.930  12.013 -0.7968 -0.1252  0.3291
15493TIP3    H167894   5.127   0.869  12.087  2.4257 -0.5209 -0.3330
15493TIP3    H267895   5.094   0.874  11.939 -2.2966  0.0403  0.6769
15494TIP3   OH267896   3.303   5.830   3.324 -1.1630 -0.1281  0.2517
15494TIP3    H167897   3.305   5.805   3.416 -0.0506 -1.2129 -0.0605
15494TIP3    H267898   3.392   5.814   3.292 -1.0593  1.9359 -0.5783
15495TIP3   OH267899   6.122   1.568   1.337  0.5912  0.0381  0.1705
15495TIP3    H167900   6.213   1.586   1.361  0.9416  0.9167 -1.7343
15495TIP3    H267901   6.071   1.628   1.391  1.1960  0.1765  0.5934
15496TIP3   OH267902   2.876   3.142   4.421  0.5524  0.1803  0.4497
15496TIP3    H167903   2.962   3.184   4.420  0.4708  0.4863 -3.3323
15496TIP3    H267904   2.838   3.165   4.336 -1.7101 -3.0897  0.4885
15497TIP3   OH267905   4.420   4.734  14.779  0.6285 -0.6526 -0.6599
15497TIP3    H167906   4.456   4.777  14.857  1.1112  0.4821 -1.4882
15497TIP3    H267907   4.475   4.657  14.767 -0.5094 -1.7840  1.0882
15498TIP3   OH267908   4.829   4.571   1.312  0.0609  0.0980  0.0447
15498TIP3    H167909   4.800   4.652   1.354 -0.2232 -0.2589  0.5432
15498TIP3    H267910   4.865   4.519   1.384 -0.6456 -0.6145 -0.1210
15499TIP3   OH267911   6.414   2.093  16.184  0.3803  0.1280  0.2963
15499TIP3    H167912   6.327   2.066  16.154  0.8164 -1.6682  0.5988
15499TIP3    H267913   6.403   2.185  16.206 -1.4272 -0.0339  0.2284
15500TIP3   OH267914   1.312   0.449   5.826 -0.2891  0.2055 -0.0805
15500TIP3    H167915   1.287   0.449   5.918 -1.5693  0.5895 -0.4262
15500TIP3    H267916   1.403   0.480   5.826  0.0601 -0.7738  1.1364
15501TIP3   OH267917   1.091   1.296  14.991  0.2771  0.1553  0.1937
15501TIP3    H167918   1.138   1.285  14.908 -0.4392  0.4661 -0.2697
15501TIP3    H267919   1.097   1.211  15.034  0.7119  0.0103 -0.1563
15502TIP3   OH267920   4.909   1.482  13.290 -0.0651  0.4507  0.1628
15502TIP3    H167921   4.848   1.512  13.223 -0.0902  0.3418  0.1371
15502TIP3    H267922   4.904   1.548  13.359 -1.7979 -0.6236  1.1139
15503TIP3   OH267923   1.686   0.115   2.693  0.0324  0.2337 -0.2204
15503TIP3    H167924   1.645   0.029   2.698 -1.8340  1.0954 -0.4912
15503TIP3    H267925   1.676   0.142   2.602 -2.5866  2.2446  0.5981
15504TIP3   OH267926   2.978   0.246   4.496  0.2127 -0.2223  0.8028
15504TIP3    H167927   3.022   0.326   4.526 -0.3105  0.2045  0.4366
15504TIP3    H267928   3.011   0.177   4.555  0.7770  0.2311  1.0247
15505TIP3   OH267929   4.112   1.324  12.743 -0.2360  0.1893  0.7486
15505TIP3    H167930   4.065   1.294  12.665 -0.1284 -0.0410  0.7690
15505TIP3    H267931   4.148   1.409  12.718 -0.9626  0.5304  0.8546
15506TIP3   OH267932   3.956   0.281   4.936 -0.3062  0.3889  0.0009
15506TIP3    H167933   3.989   0.368   4.960  0.3352 -0.0002  0.5433
15506TIP3    H267934   3.970   0.276   4.841  0.3221  0.5926  0.0807
15507TIP3   OH267935   2.358   4.479  13.531  0.2100 -0.3816 -0.0854
15507TIP3    H167936   2.340   4.385  13.528  0.4854 -0.4241 -0.5541
15507TIP3    H267937   2.329   4.507  13.617  3.0867 -1.5238  1.3415
15508TIP3   OH267938   6.523   4.589   4.555  0.0456 -0.4012 -0.3362
15508TIP3    H167939   6.538   4.563   4.464 -1.3634 -1.2284 -0.3361
15508TIP3    H267940   6.505   4.683   4.550  0.4420 -0.3465 -0.8486
15509TIP3   OH267941   6.287   2.587  15.469 -0.3287  0.0229  0.3824
15509TIP3    H167942   6.365   2.598  15.416 -0.5464  1.0362  0.2520
15509TIP3    H267943   6.237   2.668  15.456 -1.2938 -0.5174  0.6276
15510TIP3   OH267944   1.158   6.253  12.075 -0.2452 -0.2623  0.1283
15510TIP3    H167945   1.174   6.344  12.103 -0.8304  0.1100 -0.7168
15510TIP3    H267946   1.075   6.230  12.117  0.3012 -0.6852  0.9845
15511TIP3   OH267947   1.085   5.959  11.461  0.6889  0.1621 -0.2167
15511TIP3    H167948   1.058   6.043  11.422 -0.2895 -0.5058 -1.0169
15511TIP3    H267949   1.135   5.916  11.391 -0.5086 -0.7585 -0.5333
15512TIP3   OH267950   5.441   1.128   1.716 -0.3997  0.6717 -0.4326
15512TIP3    H167951   5.393   1.124   1.799  1.3385 -2.4297  0.4890
15512TIP3    H267952   5.533   1.140   1.741 -0.0617  1.6617 -2.0108
15513TIP3   OH267953   1.367   6.052   0.861  0.4722 -0.1061  0.0240
15513TIP3    H167954   1.273   6.072   0.856  0.4292  0.0992  1.3967
15513TIP3    H267955   1.402   6.080   0.777 -0.5475  0.6577 -0.1565
15514TIP3   OH267956   1.211   3.696   4.473  0.2292  0.0067 -0.2762
15514TIP3    H167957   1.142   3.703   4.539  1.4649 -0.4568  1.0785
15514TIP3    H267958   1.227   3.786   4.446 -2.0133  0.0011 -1.7918
15515TIP3   OH267959   6.179   3.637  13.118  0.1986 -0.1353 -0.5439
15515TIP3    H167960   6.204   3.596  13.201  0.7971  1.3838  0.0437
15515TIP3    H267961   6.236   3.595  13.053  1.5289  0.4717  0.2064
15516TIP3   OH267962   5.792   1.950   1.047 -0.3077  0.2410  0.6838
15516TIP3    H167963   5.876   1.909   1.028 -0.1233  1.1402 -0.5213
15516TIP3    H267964   5.799   2.038   1.009 -2.1397 -0.0133 -0.3057
15517TIP3   OH267965   5.030   2.982  12.263 -0.9703  0.3778 -0.6566
15517TIP3    H167966   5.118   2.944  12.261 -0.4002  1.6405 -0.2064
15517TIP3    H267967   5.039   3.060  12.317 -1.8707  1.7534 -2.4575
15518TIP3   OH267968   1.615   4.857   0.672 -0.0912  0.4342 -0.4771
15518TIP3    H167969   1.589   4.785   0.730  0.6469  1.9521  1.7965
15518TIP3    H267970   1.680   4.817   0.613  0.8539 -0.6185  1.2152
15519TIP3   OH267971   0.211   1.802  16.047  0.3037  0.1393 -0.2176
15519TIP3    H167972   0.214   1.830  16.138  0.3643  1.9646 -0.7556
15519TIP3    H267973   0.143   1.735  16.045  0.5147 -0.1283  1.2231
15520TIP3   OH267974   5.950   2.799  13.454 -0.6067  0.5295  0.3291
15520TIP3    H167975   5.860   2.829  13.469 -1.0246  0.3136 -1.5540
15520TIP3    H267976   5.947   2.705  13.474 -0.9887  0.3713 -0.4627
15521TIP3   OH267977   3.444   1.144   3.614 -0.2245  0.2436  0.2957
15521TIP3    H167978   3.510   1.077   3.631 -0.9482 -0.2025  1.4050
15521TIP3    H267979   3.364   1.094   3.597 -0.4057  0.7903 -0.5016
15522TIP3   OH267980   0.831   4.518  11.564  0.5614 -0.4362 -0.0307
15522TIP3    H167981   0.742   4.545  11.587  0.6724 -0.4864  0.4709
15522TIP3    H267982   0.854   4.570  11.487 -0.3320 -1.2436 -0.8607
15523TIP3   OH267983   3.844   4.998  11.435  0.1889 -0.6257  0.0086
15523TIP3    H167984   3.902   4.924  11.417 -0.4698 -1.0235 -0.5005
15523TIP3    H267985   3.865   5.062  11.368 -0.6485 -1.1740 -0.7912
15524TIP3   OH267986   3.692   3.269  10.947 -0.2895 -0.6455 -0.8661
15524TIP3    H167987   3.661   3.218  10.873 -1.7420 -0.3978 -0.4376
15524TIP3    H267988   3.675   3.360  10.923  2.1092 -0.3490 -1.5435
15525TIP3   OH267989   5.980   1.950   2.585  0.2969 -0.0356  0.5492
15525TIP3    H167990   5.898   1.933   2.632  0.1891 -1.2056 -0.0166
15525TIP3    H267991   5.952   1.966   2.495  0.7209 -1.1262  0.2074
15526TIP3   OH267992   2.247   5.346  15.104 -0.0127  0.0706  0.1339
15526TIP3    H167993   2.203   5.420  15.062  0.5662  0.1580 -0.3335
15526TIP3    H267994   2.296   5.385  15.176  1.7193  0.4083 -1.1912
15527TIP3   OH267995   0.308   5.751  13.736 -0.2787 -0.0144 -0.1070
15527TIP3    H167996   0.267   5.832  13.766 -0.7479 -0.0818 -0.5662
15527TIP3    H267997   0.354   5.776  13.656 -0.8328 -0.3037 -0.5213
15528TIP3   OH267998   2.497   3.782  14.080 -0.2265  0.1041 -0.0259
15528TIP3    H167999   2.544   3.839  14.141  0.2390 -0.4678  0.1503
15528TIP3    H268000   2.522   3.694  14.105  0.3061 -0.1230 -1.3013
15529TIP3   OH268001   3.025   0.869  15.794  0.1950  0.0414  0.6048
15529TIP3    H168002   3.114   0.874  15.761  0.6000  1.3604  1.8771
15529TIP3    H268003   3.033   0.882  15.888 -1.3574  0.3471  0.7123
15530TIP3   OH268004   0.848   1.625   6.579 -0.0669 -0.0603  0.1389
15530TIP3    H168005   0.865   1.560   6.647 -3.8194 -1.7894 -0.4723
15530TIP3    H268006   0.824   1.704   6.628 -1.7815 -1.0051  0.8458
15531TIP3   OH268007   4.642   2.544  13.097 -0.3907  0.4785  0.1256
15531TIP3    H168008   4.652   2.540  13.192  1.4497  0.4720 -0.0392
15531TIP3    H268009   4.561   2.593  13.083  0.7068  2.8616  1.7037
15532TIP3   OH268010   1.583   6.625   2.645 -0.8678  0.0577 -0.0877
15532TIP3    H168011   1.490   6.643   2.639 -1.0098 -0.4964  0.3804
15532TIP3    H268012   1.589   6.547   2.700 -0.2386 -0.9796 -1.5856
15533TIP3   OH268013   0.187   2.828  11.583 -0.1166  0.2775 -0.1503
15533TIP3    H168014   0.212   2.793  11.498  1.3688  1.1371 -0.0811
15533TIP3    H268015   0.250   2.790  11.644 -0.8095  0.1327  0.4853
15534TIP3   OH268016   2.739   2.832  16.834 -0.0705 -0.1527  0.1557
15534TIP3    H168017   2.692   2.909  16.866  1.6920  0.9794  0.1089
15534TIP3    H268018   2.748   2.776  16.910 -0.8649 -0.0511  0.3293
15535TIP3   OH268019   6.208   0.311  14.207 -0.8809 -0.2241 -0.1697
15535TIP3    H168020   6.217   0.332  14.114 -1.2521  2.3974  0.3518
15535TIP3    H268021   6.121   0.271  14.214 -1.2087  0.3685 -0.8203
15536TIP3   OH268022   0.095   6.211   1.393  0.2593 -0.4045  0.5402
15536TIP3    H168023   0.097   6.236   1.485 -2.0323  0.0752  0.5038
15536TIP3    H268024   0.017   6.255   1.358 -0.0054 -2.1228 -1.1515
15537TIP3   OH268025   2.780   5.557  11.786  0.3982 -0.3326 -0.2532
15537TIP3    H168026   2.771   5.591  11.875  0.6935 -0.1949 -0.2743
15537TIP3    H268027   2.852   5.607  11.749 -0.0975  0.0103 -0.7621
15538TIP3   OH268028   3.989   3.798  16.433  0.6375 -0.2614 -0.1528
15538TIP3    H168029   3.968   3.859  16.504  2.3589  0.8857 -0.5917
15538TIP3    H268030   4.062   3.746  16.467  2.7819  1.6033 -1.7421
15539TIP3   OH268031   0.143   1.446   2.798  0.0006  0.1104 -0.3933
15539TIP3    H168032   0.168   1.430   2.889  2.1675  2.1063 -0.5876
15539TIP3    H268033   0.221   1.486   2.758 -1.7801  1.6738 -2.4311
15540TIP3   OH268034   5.426   2.836  14.535  0.0507  0.8690  0.2737
15540TIP3    H168035   5.446   2.899  14.603  0.3623 -0.4945  1.4821
15540TIP3    H268036   5.511   2.810  14.499 -0.0609  0.9854 -0.0790
15541TIP3   OH268037   1.228   6.280  16.205  0.3670 -0.2192 -0.4420
15541TIP3    H168038   1.321   6.300  16.214  0.3055 -0.0722 -0.1227
15541TIP3    H268039   1.201   6.252  16.292  0.4910 -1.9310 -0.9372
15542TIP3   OH268040   6.181   1.765  11.160 -0.1014 -0.4773  0.3007
15542TIP3    H168041   6.123   1.690  11.170  0.0023 -0.5629  0.2642
15542TIP3    H268042   6.208   1.787  11.249 -0.6303 -0.0880  0.3713
15543TIP3   OH268043   2.587   6.189   2.851 -0.2033  0.2097  0.0367
15543TIP3    H168044   2.647   6.251   2.893 -1.0367  1.0133  0.0508
15543TIP3    H268045   2.500   6.218   2.876 -0.6736  0.0248 -1.3052
15544TIP3   OH268046   0.019   4.378  15.705  0.3870 -0.2980  0.2642
15544TIP3    H168047   0.057   4.308  15.757 -1.9690 -0.6845  1.5459
15544TIP3    H268048   0.091   4.410  15.650  2.1022 -2.0200  1.4703
15545TIP3   OH268049   1.343   5.643  11.516  0.0337  0.5226 -0.0364
15545TIP3    H168050   1.364   5.614  11.427  0.2718 -0.9803  0.4964
15545TIP3    H268051   1.262   5.598  11.538  0.5819 -0.0036  0.9331
15546TIP3   OH268052   3.812   0.622   2.681  0.6377  0.1369  0.1139
15546TIP3    H168053   3.846   0.594   2.596 -0.4765  1.0357 -0.6505
15546TIP3    H268054   3.743   0.559   2.702  1.4536 -0.5558  0.7448
15547TIP3   OH268055   0.096   5.372   4.097  0.2504 -0.1019  0.4244
15547TIP3    H168056   0.188   5.395   4.110  0.0911 -0.0694  1.5191
15547TIP3    H268057   0.066   5.433   4.030  1.0786 -0.2568 -0.1022
15548TIP3   OH268058   0.043   1.393  12.711  0.3291 -0.3050  0.2494
15548TIP3    H168059  -0.001   1.477  12.697  0.3414 -0.4367 -0.6469
15548TIP3    H268060  -0.012   1.347  12.774 -1.2148 -0.7323 -1.3386
15549TIP3   OH268061   1.951   2.093  15.530 -0.0917  0.6499  0.5812
15549TIP3    H168062   1.960   2.155  15.603  0.4262 -1.0040  1.9619
15549TIP3    H268063   2.041   2.074  15.504 -0.3096  2.2203 -1.3639
15550TIP3   OH268064   1.617   0.286  12.815  0.0369  1.0250 -0.2551
15550TIP3    H168065   1.631   0.380  12.824 -0.9695  1.1933 -0.4108
15550TIP3    H268066   1.522   0.275  12.823  0.2119 -0.0518  0.4393
15551TIP3   OH268067   2.562   0.890   3.912 -0.2970  0.6374  0.2362
15551TIP3    H168068   2.600   0.820   3.858 -0.5104  1.4864 -1.0180
15551TIP3    H268069   2.619   0.894   3.988 -0.3865 -1.0451  0.4196
15552TIP3   OH268070   2.522   1.326  16.083  0.0026 -0.4703 -0.0465
15552TIP3    H168071   2.438   1.282  16.070 -0.2524 -0.2102  0.7113
15552TIP3    H268072   2.524   1.347  16.176  0.7495 -0.1544 -0.1307
15553TIP3   OH268073   3.100   2.173   2.337  0.2163 -0.4695 -0.0573
15553TIP3    H168074   3.180   2.142   2.381 -1.6443 -2.2101  2.2502
15553TIP3    H268075   3.090   2.114   2.262 -0.1218 -1.7723  0.9841
15554TIP3   OH268076   4.643   0.941  12.672  0.1237  0.2608 -0.0536
15554TIP3    H168077   4.568   0.941  12.613  0.4762  1.0289 -0.5093
15554TIP3    H268078   4.705   1.001  12.631  0.5576  0.4396  0.8619
15555TIP3   OH268079   1.434   1.686   1.808 -0.1539  0.2887  0.1166
15555TIP3    H168080   1.516   1.663   1.850 -0.6462 -0.0202  0.9093
15555TIP3    H268081   1.410   1.608   1.758 -0.3999  0.0744  0.5685
15556TIP3   OH268082   5.371   5.214  12.148  0.4188  0.5774  0.5900
15556TIP3    H168083   5.361   5.176  12.061  0.3925  0.8163  0.4876
15556TIP3    H268084   5.365   5.140  12.208  0.0137  0.4707  0.4124
15557TIP3   OH268085   5.672   2.490  13.103  0.0549  0.2726 -0.6795
15557TIP3    H168086   5.693   2.409  13.056 -1.3732 -0.4644 -0.1068
15557TIP3    H268087   5.752   2.511  13.151  0.1815 -1.2848 -0.1712
15558TIP3   OH268088   4.130   0.050  12.563 -0.0473 -0.3160  0.2381
15558TIP3    H168089   4.121   0.060  12.658  0.3909 -0.1672  0.2660
15558TIP3    H268090   4.224   0.051  12.548 -0.1136 -0.5096 -0.1825
15559TIP3   OH268091   4.795   3.219   1.381  0.0236  0.5188 -0.3275
15559TIP3    H168092   4.850   3.282   1.335 -0.1427  2.1932  1.6916
15559TIP3    H268093   4.706   3.241   1.353  0.0452  0.5402 -0.3805
15560TIP3   OH268094   6.645   3.899  13.412  0.6372  0.7740 -0.4037
15560TIP3    H168095   6.568   3.931  13.458  0.4607 -0.8600  0.4954
15560TIP3    H268096   6.656   3.809  13.443  2.8340  0.9332 -0.6222
15561TIP3   OH268097   2.123   0.362  12.311  0.4428  0.3916 -0.4472
15561TIP3    H168098   2.124   0.344  12.405  1.9730 -1.0003 -0.6920
15561TIP3    H268099   2.200   0.316  12.278 -1.3598 -1.0656 -2.7442
15562TIP3   OH268100   1.488   6.206   4.966  0.4282 -0.2580 -0.5179
15562TIP3    H168101   1.485   6.281   4.906 -0.3526 -0.3618 -0.6132
15562TIP3    H268102   1.444   6.135   4.918  0.7929 -0.6590 -0.2646
15563TIP3   OH268103   2.382   3.621   4.639  0.0676  0.1368  0.5712
15563TIP3    H168104   2.350   3.709   4.661  0.1395  0.1236  0.7313
15563TIP3    H268105   2.396   3.623   4.544  0.5745  0.4654  0.6495
15564TIP3   OH268106   6.692   3.834  15.802  0.0329 -0.0056  0.0841
15564TIP3    H168107   6.684   3.929  15.802  0.0276  0.0146  1.7070
15564TIP3    H268108   6.609   3.804  15.840  0.5145 -0.5904  0.6900
15565TIP3   OH268109   2.469   3.815   5.128 -0.8286  0.0115  0.1176
15565TIP3    H168110   2.456   3.777   5.040 -0.4993 -0.8712  0.4433
15565TIP3    H268111   2.407   3.888   5.132 -1.9496 -0.8991 -0.2839
15566TIP3   OH268112   5.421   0.985   4.019 -0.4431 -0.0718 -0.2158
15566TIP3    H168113   5.488   1.050   4.042 -0.1128 -0.5795  0.2844
15566TIP3    H268114   5.338   1.028   4.039 -0.2230  0.1532  0.2344
15567TIP3   OH268115   0.808   2.504  13.979 -0.9962 -0.0595  0.2336
15567TIP3    H168116   0.835   2.571  14.042 -0.4923  0.0140 -0.0553
15567TIP3    H268117   0.883   2.444  13.974 -0.3267  0.8695 -1.5630
15568TIP3   OH268118   2.274   6.684   2.334  0.3626  0.0062 -0.0191
15568TIP3    H168119   2.332   6.665   2.408  0.6791  0.0775 -0.2504
15568TIP3    H268120   2.208   6.614   2.337 -2.0491  2.2566  2.8222
15569TIP3   OH268121   6.643   0.217   2.003 -0.1502 -0.1009  0.2204
15569TIP3    H168122   6.626   0.277   2.075 -1.6025 -1.4673  1.0441
15569TIP3    H268123   6.656   0.132   2.045 -2.5834 -1.2243 -1.1939
15570TIP3   OH268124   2.186   2.866  12.297  0.1823  0.3921 -0.5502
15570TIP3    H168125   2.261   2.863  12.356 -0.3598  1.0835  0.1875
15570TIP3    H268126   2.132   2.938  12.330 -1.3952 -0.8486 -0.3716
15571TIP3   OH268127   0.165   1.369   2.242  0.1913  0.0764 -0.2996
15571TIP3    H168128   0.148   1.295   2.182  0.5204  0.3956 -0.7897
15571TIP3    H268129   0.093   1.430   2.225 -0.1522 -0.1841  0.1975
15572TIP3   OH268130   2.816   1.423  16.245  0.1453  0.0557 -0.1379
15572TIP3    H168131   2.722   1.409  16.259  0.1545 -0.0307 -0.1693
15572TIP3    H268132   2.821   1.514  16.214  0.3134  0.9860  2.5108
15573TIP3   OH268133   6.768   3.427  10.336 -0.2999 -0.2891 -0.2251
15573TIP3    H168134   6.691   3.393  10.289 -1.3914  0.0132  1.2975
15573TIP3    H268135   6.771   3.377  10.417  1.3775 -0.5686 -0.4426
15574TIP3   OH268136   4.591   0.714   1.462 -0.2812  0.4330 -0.1997
15574TIP3    H168137   4.628   0.756   1.539  0.5176  1.1639 -0.9680
15574TIP3    H268138   4.611   0.621   1.473 -0.1561  0.5386  0.4604
15575TIP3   OH268139   2.601   2.894   3.855 -0.5003  0.8120  0.0155
15575TIP3    H168140   2.640   2.807   3.863  0.5416  1.3903  1.5223
15575TIP3    H268141   2.550   2.905   3.935 -0.7357  1.5292 -0.2288
15576TIP3   OH268142   1.507   4.232  14.709  0.0206 -0.1970 -0.5230
15576TIP3    H168143   1.432   4.214  14.767  0.2461 -2.1226 -0.8032
15576TIP3    H268144   1.469   4.279  14.635 -0.6360  0.2724  0.1010
15577TIP3   OH268145   5.164   6.191   6.035  0.0803 -0.0524  0.0185
15577TIP3    H168146   5.108   6.267   6.016  1.3342  0.9802  0.4251
15577TIP3    H268147   5.119   6.147   6.108 -0.6141  0.3280 -0.1701
15578TIP3   OH268148   3.210   5.144   6.583 -0.2857  0.2841 -0.7451
15578TIP3    H168149   3.273   5.139   6.655 -2.3999  1.2719  1.2706
15578TIP3    H268150   3.212   5.057   6.543  1.7317  0.0642 -0.1949
15579TIP3   OH268151   3.355   6.009   5.809 -0.0796  0.4550  0.1796
15579TIP3    H168152   3.425   5.979   5.868  0.4142 -0.7937 -1.0115
15579TIP3    H268153   3.281   5.951   5.828 -0.1982  0.5946  0.1501
15580TIP3   OH268154   2.893   5.902   1.055  0.2167  0.2802 -0.7891
15580TIP3    H168155   2.880   5.858   1.139  0.4535  0.2758 -0.7530
15580TIP3    H268156   2.883   5.995   1.074  0.6597  0.3078 -0.6756
15581TIP3   OH268157   5.464   6.427   2.174 -1.1631 -0.1682 -0.4329
15581TIP3    H168158   5.480   6.420   2.080 -2.6966  1.6117 -0.8634
15581TIP3    H268159   5.377   6.467   2.180 -0.6080  0.7843  1.7252
15582TIP3   OH268160   0.009   4.733  15.182 -0.0326  0.2305  0.2581
15582TIP3    H168161   0.077   4.786  15.142 -0.3274 -0.1134 -0.7047
15582TIP3    H268162   0.004   4.764  15.272 -0.0610  1.6908 -0.2419
15583TIP3   OH268163   3.730   3.572   4.393 -0.3401 -0.4490 -0.4158
15583TIP3    H168164   3.665   3.553   4.325 -0.8377  1.1613 -0.4116
15583TIP3    H268165   3.788   3.496   4.392 -1.4813 -1.3255 -1.3010
15584TIP3   OH268166   4.263   3.959  15.280  0.1054 -0.1134  0.4320
15584TIP3    H168167   4.175   3.987  15.306 -0.2913 -1.6142  0.7356
15584TIP3    H268168   4.274   3.873  15.320  0.8233 -0.9608 -1.5331
15585TIP3   OH268169   3.799   1.544  13.221  0.3869  0.1808 -0.1448
15585TIP3    H168170   3.704   1.548  13.214  0.4392 -0.7919 -1.4928
15585TIP3    H268171   3.831   1.588  13.142  1.1228  4.7065  2.4975
15586TIP3   OH268172   3.495   5.323  16.241  0.3035  0.2615  0.2834
15586TIP3    H168173   3.444   5.403  16.231 -1.1122 -0.6437  0.2847
15586TIP3    H268174   3.507   5.315  16.336  0.4003  0.4364  0.2889
15587TIP3   OH268175   6.262   4.948   3.907 -0.4223  0.2134 -0.0681
15587TIP3    H168176   6.172   4.916   3.917 -0.2940  0.2783  1.3858
15587TIP3    H268177   6.253   5.026   3.852 -1.1251 -0.3590 -0.7909
15588TIP3   OH268178   6.712   6.076   4.209 -0.7654 -0.2558 -0.0837
15588TIP3    H168179   6.700   6.127   4.129  0.5906  2.3606  1.3053
15588TIP3    H268180   6.803   6.048   4.205 -1.1929 -1.6256 -0.2896
15589TIP3   OH268181   0.488   5.640  15.478 -0.2442 -0.3995 -0.2604
15589TIP3    H168182   0.458   5.669  15.392 -1.5334  2.1142  0.9743
15589TIP3    H268183   0.566   5.693  15.495 -1.2017  0.6268  0.9888
15590TIP3   OH268184   3.104   0.071   0.023 -0.6786 -0.3473 -0.2786
15590TIP3    H168185   3.050  -0.006   0.012 -1.8862  0.0436  2.5216
15590TIP3    H268186   3.149   0.058   0.106  1.4691  0.5893 -1.2326
15591TIP3   OH268187   5.357   2.457   3.451  0.0831 -0.4686 -0.0738
15591TIP3    H168188   5.343   2.468   3.545 -1.2594 -0.2835 -0.2824
15591TIP3    H268189   5.412   2.531   3.426  1.1040 -0.9573  0.6993
15592TIP3   OH268190   3.201   5.582   0.120  0.0179  0.2885  0.1790
15592TIP3    H168191   3.293   5.590   0.143  0.4115 -1.2261 -0.8157
15592TIP3    H268192   3.173   5.672   0.101  1.3811  0.7019  0.0781
15593TIP3   OH268193   3.474   2.486  12.844  0.0239  0.5160 -0.3077
15593TIP3    H168194   3.380   2.503  12.840 -0.1767 -0.7556 -1.0980
15593TIP3    H268195   3.482   2.399  12.883  1.0175  1.9709  2.8455
15594TIP3   OH268196   6.187   3.427  11.486 -0.1052  0.2513  1.0385
15594TIP3    H168197   6.194   3.446  11.392  2.4577 -2.0078  0.7003
15594TIP3    H268198   6.155   3.336  11.489  0.3840  0.1213  2.3511
15595TIP3   OH268199   4.186   1.738   1.340  0.0536  0.0990 -0.1119
15595TIP3    H168200   4.182   1.803   1.270 -0.1030  0.8132  0.5554
15595TIP3    H268201   4.245   1.670   1.307 -1.3115 -0.3772 -1.5909
15596TIP3   OH268202   4.069   3.862  15.761  0.1520 -0.8083 -0.9128
15596TIP3    H168203   3.975   3.868  15.778  0.5538 -0.5800  1.4653
15596TIP3    H268204   4.094   3.951  15.736  0.3136  0.0424  2.0006
15597TIP3   OH268205   5.657   5.382  15.592  0.0520 -0.1066 -0.5447
15597TIP3    H168206   5.569   5.349  15.574 -0.3179  0.5551 -0.0033
15597TIP3    H268207   5.650   5.423  15.679  0.7611  0.4048 -0.7190
15598TIP3   OH268208   0.846   4.285  12.953  0.0050 -0.1599  0.2581
15598TIP3    H168209   0.810   4.198  12.933 -0.2759 -0.5029  2.1621
15598TIP3    H268210   0.937   4.280  12.922  0.0231 -1.1710  0.4527
15599TIP3   OH268211   5.865   1.623   4.480  0.4114 -0.0769 -0.2543
15599TIP3    H168212   5.849   1.540   4.436 -0.2963 -0.4346  0.6718
15599TIP3    H268213   5.928   1.668   4.424  1.4675 -1.5947 -0.3221
15600TIP3   OH268214   5.209   2.172  17.006  0.2532  0.2428 -0.2455
15600TIP3    H168215   5.291   2.216  16.981  0.2251 -0.0062 -0.7874
15600TIP3    H268216   5.201   2.189  17.100 -0.4355  2.5306 -0.6664
15601TIP3   OH268217   6.284   3.325  14.040 -0.1148 -0.1019 -0.0890
15601TIP3    H168218   6.315   3.358  13.955 -1.7761 -0.1914 -0.7487
15601TIP3    H268219   6.205   3.376  14.058  0.3785  0.1074  1.5503
15602TIP3   OH268220   4.447   0.943   6.220 -0.3795 -0.1551  0.6011
15602TIP3    H168221   4.432   0.851   6.241 -0.5868 -0.4051 -0.6481
15602TIP3    H268222   4.531   0.963   6.262 -0.6521 -0.7162  1.4394
15603TIP3   OH268223   2.096   3.673   1.117  0.0695 -0.0737  0.5722
15603TIP3    H168224   2.128   3.743   1.173  2.0295 -0.6410  0.2196
15603TIP3    H268225   2.011   3.703   1.086  0.6953  1.9695  0.7605
15604TIP3   OH268226   4.903   6.544  14.780  0.1247  0.2145 -0.4416
15604TIP3    H168227   4.857   6.543  14.695 -0.0308 -2.3749 -0.3595
15604TIP3    H268228   4.932   6.453  14.793 -1.3544  0.1755  3.0858
15605TIP3   OH268229   0.245   6.662   6.041  0.3243  0.2276  0.0347
15605TIP3    H168230   0.325   6.627   6.080  1.4610  1.5217 -1.0652
15605TIP3    H268231   0.268   6.751   6.015 -1.0101  0.0939 -1.6898
15606TIP3   OH268232   5.778   4.463   2.858 -0.2493 -0.0106  0.3405
15606TIP3    H168233   5.814   4.502   2.778 -0.4641 -1.0600 -0.2691
15606TIP3    H268234   5.814   4.374   2.860 -0.5770 -0.1242  1.1968
15607TIP3   OH268235   6.474   5.349  12.334  0.7220  0.2973  0.3092
15607TIP3    H168236   6.381   5.373  12.333 -0.3687 -3.5748  0.0317
15607TIP3    H268237   6.509   5.385  12.253 -0.8466  0.7470 -0.1808
15608TIP3   OH268238   2.731   2.711   6.035  0.0425 -0.6277  0.0202
15608TIP3    H168239   2.795   2.780   6.015 -0.9290  0.0007 -0.9948
15608TIP3    H268240   2.663   2.756   6.086  1.4556 -1.7618  2.9634
15609TIP3   OH268241   0.912   4.281  14.027  0.2090  0.3343 -0.5269
15609TIP3    H168242   0.839   4.250  14.081  1.1259 -0.3694  0.3157
15609TIP3    H268243   0.979   4.214  14.037  1.0379  1.0636 -1.1730
15610TIP3   OH268244   4.543   1.297   1.891  0.2192  0.1797 -0.2663
15610TIP3    H168245   4.601   1.343   1.951 -2.7944  2.3995  1.1085
15610TIP3    H268246   4.534   1.355   1.816 -1.7022  0.8287  0.4148
15611TIP3   OH268247   1.477   1.786   0.864  0.7752  0.0687  0.2123
15611TIP3    H168248   1.500   1.862   0.917 -0.8425  0.8065 -0.0952
15611TIP3    H268249   1.382   1.793   0.852  1.0985 -0.1308 -2.7188
15612TIP3   OH268250   4.310   0.988  13.517  0.1608 -0.2063  0.3787
15612TIP3    H168251   4.271   0.907  13.550  0.7627 -0.7654 -0.2585
15612TIP3    H268252   4.257   1.011  13.440  0.4019 -0.3615  0.1660
15613TIP3   OH268253   3.287   1.337  17.218  0.2476 -0.2659  0.0111
15613TIP3    H168254   3.231   1.296  17.151 -0.5953  1.9455 -0.6742
15613TIP3    H268255   3.255   1.301  17.301 -1.2304 -0.1411 -0.4827
15614TIP3   OH268256   0.805   4.520   6.078 -0.5135  0.1533 -0.3171
15614TIP3    H168257   0.797   4.613   6.101 -0.9510 -0.1034  0.5848
15614TIP3    H268258   0.768   4.514   5.990  0.0039  0.9262 -0.5938
15615TIP3   OH268259   1.152   1.712  16.030  0.3422  0.3472  0.3415
15615TIP3    H168260   1.225   1.672  15.981 -0.8629 -1.8819  0.2792
15615TIP3    H268261   1.103   1.637  16.064 -1.9965  1.8229  0.2816
15616TIP3   OH268262   0.443   2.036   3.960  0.1430  0.3716 -0.3207
15616TIP3    H168263   0.514   1.986   3.922 -0.2125  0.4336 -1.0707
15616TIP3    H268264   0.393   1.972   4.012  1.8188  0.7041  1.7548
15617TIP3   OH268265   4.982   1.372  12.697  0.2569 -0.1221  0.2407
15617TIP3    H168266   5.021   1.294  12.737 -0.1492 -0.1438  0.5952
15617TIP3    H268267   5.021   1.445  12.746  2.3714  0.0219 -1.5680
15618TIP3   OH268268   1.494   3.945   0.426 -0.0336  1.0506  0.1196
15618TIP3    H168269   1.523   3.855   0.411  0.9980  1.4244 -0.1853
15618TIP3    H268270   1.400   3.937   0.442  0.1865 -0.1662  0.9060
15619TIP3   OH268271   3.590   4.842  13.812  0.1303 -0.0604  0.2114
15619TIP3    H168272   3.624   4.865  13.725 -0.1917 -1.2586 -0.2540
15619TIP3    H268273   3.660   4.865  13.872  0.7907 -0.1945 -0.4871
15620TIP3   OH268274   4.516   0.278   1.699 -0.7353 -0.3933 -0.1676
15620TIP3    H168275   4.599   0.231   1.685 -2.3508 -3.0431 -1.2880
15620TIP3    H268276   4.508   0.335   1.623  1.1200  1.5773  1.0676
15621TIP3   OH268277   1.224   4.201   3.247 -0.3115  0.6881  0.0288
15621TIP3    H168278   1.302   4.161   3.207 -1.1591 -0.4618 -0.4986
15621TIP3    H268279   1.259   4.252   3.320  0.7624 -1.6589  1.2312
15622TIP3   OH268280   2.645   0.519  10.872 -0.3489  0.0571  0.2269
15622TIP3    H168281   2.672   0.583  10.806 -0.9312 -1.6625 -1.7381
15622TIP3    H268282   2.727   0.493  10.915 -0.1057  2.0374  0.9901
15623TIP3   OH268283   2.625   0.905   4.318  0.4488  0.4380  0.4818
15623TIP3    H168284   2.708   0.912   4.365  0.4150 -0.0133  0.6050
15623TIP3    H268285   2.558   0.910   4.387  0.4165 -0.9463  0.5537
15624TIP3   OH268286   4.980   3.406  15.034 -0.1370  0.5323  0.1463
15624TIP3    H168287   5.009   3.497  15.029 -0.3280  0.5881  0.0693
15624TIP3    H268288   4.932   3.391  14.952  0.4287  0.1781 -0.1253
15625TIP3   OH268289   6.457   6.398   0.702 -0.4428  0.4698 -0.2630
15625TIP3    H168290   6.403   6.383   0.780 -0.6036  0.8145 -0.3083
15625TIP3    H268291   6.488   6.311   0.677  1.7823  0.5950  1.7683
15626TIP3   OH268292   1.948   4.727   1.157 -0.5465 -0.2795 -0.3022
15626TIP3    H168293   2.025   4.683   1.192 -1.1001 -0.3701  0.8083
15626TIP3    H268294   1.983   4.800   1.105  0.2161  1.8457  3.0771
15627TIP3   OH268295   1.018   2.726  16.204  0.6050  0.0276  0.1592
15627TIP3    H168296   1.050   2.764  16.285  0.7337  1.0913 -0.3788
15627TIP3    H268297   1.091   2.674  16.171  0.2777 -1.0413  1.1273
15628TIP3   OH268298   0.623   2.001   5.091 -0.7419  0.2744 -0.1614
15628TIP3    H168299   0.561   1.940   5.053 -0.2714 -0.2443 -0.1088
15628TIP3    H268300   0.638   1.967   5.180  0.3505 -0.1552 -0.5058
15629TIP3   OH268301   1.977   1.247  13.030 -0.5243 -1.3665  0.3205
15629TIP3    H168302   2.023   1.191  12.968 -0.6919  0.3524 -1.3991
15629TIP3    H268303   2.019   1.332  13.022 -2.8436 -0.2243 -0.0140
15630TIP3   OH268304   6.436   0.436  11.967 -0.0168 -0.5999  0.1057
15630TIP3    H168305   6.434   0.500  12.038 -1.8985  0.1441 -0.5827
15630TIP3    H268306   6.420   0.488  11.888 -1.0196 -1.8366 -0.5252
15631TIP3   OH268307   0.650   0.946  15.415  0.2515  0.4582 -0.2618
15631TIP3    H168308   0.609   1.033  15.424  1.4717  1.0648 -0.5101
15631TIP3    H268309   0.726   0.950  15.473 -0.6772 -1.0718  1.0901
15632TIP3   OH268310   0.507   0.930   0.833  0.5743  0.4313  0.1915
15632TIP3    H168311   0.422   0.886   0.834  0.2627  1.0454  1.7846
15632TIP3    H268312   0.487   1.023   0.831  1.2028  0.5733  0.2241
15633TIP3   OH268313   6.230   2.629   2.076 -0.1519 -0.3439  0.2237
15633TIP3    H168314   6.163   2.564   2.057  0.0072  0.2770 -2.6611
15633TIP3    H268315   6.182   2.712   2.080  0.2651 -0.0430 -0.7805
15634TIP3   OH268316   0.628   4.381  14.995  0.3184 -0.6795 -0.1495
15634TIP3    H168317   0.712   4.350  14.962 -0.1958 -0.8343 -1.3527
15634TIP3    H268318   0.563   4.333  14.943 -0.5069  0.1168  0.1313
15635TIP3   OH268319   2.142   6.201  13.621  0.3863  0.2541 -0.1309
15635TIP3    H168320   2.138   6.148  13.701  0.4531  1.9959  1.0424
15635TIP3    H268321   2.133   6.137  13.551 -0.8862 -1.1846  1.2815
15636TIP3   OH268322   5.140   0.098  13.355 -0.0698  0.6275  0.0562
15636TIP3    H168323   5.222   0.076  13.400 -0.2306  0.3128  0.1969
15636TIP3    H268324   5.077   0.113  13.426 -0.6861 -1.2498 -0.0753
15637TIP3   OH268325   4.748   6.462   4.739 -0.1321  0.2819 -0.2341
15637TIP3    H168326   4.786   6.470   4.826  0.3755 -0.4336 -0.3841
15637TIP3    H268327   4.809   6.509   4.682 -1.0139  1.6635 -0.0615
15638TIP3   OH268328   6.349   5.124   4.503 -0.4208  0.7901 -0.5876
15638TIP3    H168329   6.259   5.108   4.475 -0.6628 -0.9139  1.0472
15638TIP3    H268330   6.346   5.209   4.547 -1.4105  0.3912  0.1369
15639TIP3   OH268331   2.442   3.348  14.547  0.2813 -0.4538 -0.4519
15639TIP3    H168332   2.503   3.312  14.611 -1.3020  0.7279  1.8190
15639TIP3    H268333   2.473   3.437  14.532 -0.5256 -0.0352  0.2909
15640TIP3   OH268334   2.293   6.548  15.283  0.3927  0.2343  0.5271
15640TIP3    H168335   2.339   6.483  15.231  0.6727  0.2072  0.8085
15640TIP3    H268336   2.322   6.633  15.249 -0.6272  0.2179 -0.4189
15641TIP3   OH268337   1.225   3.446  15.058 -0.2913  0.5275 -0.1625
15641TIP3    H168338   1.292   3.475  14.996 -0.1945 -0.0016 -0.3082
15641TIP3    H268339   1.251   3.357  15.083 -1.1209  0.1807 -0.4894
15642TIP3   OH268340   6.628   0.787  15.158 -0.4553 -0.0894 -0.1941
15642TIP3    H168341   6.613   0.729  15.084  1.2661  0.1486 -0.7437
15642TIP3    H268342   6.648   0.728  15.231  3.5860 -0.2032 -1.2699
15643TIP3   OH268343   5.944   4.344  15.324  1.0357  0.7014 -1.0514
15643TIP3    H168344   5.892   4.264  15.317 -0.9865  1.8070  0.9968
15643TIP3    H268345   5.926   4.392  15.243 -0.6193  0.7661 -0.6549
15644TIP3   OH268346   3.695   6.140   6.131  0.0065 -0.0703 -0.1391
15644TIP3    H168347   3.695   6.207   6.063  1.1526  0.5327  0.4399
15644TIP3    H268348   3.641   6.176   6.201 -1.2284 -0.7197 -0.7557
15645TIP3   OH268349   3.674   0.586  15.657 -0.4500  0.2272  0.2722
15645TIP3    H168350   3.699   0.516  15.717 -2.2432  0.0627  0.8748
15645TIP3    H268351   3.660   0.541  15.573 -0.7218 -0.0066  0.4395
15646TIP3   OH268352   1.164   5.536  16.342  0.0458  0.5392  0.2223
15646TIP3    H168353   1.252   5.550  16.305  0.0100 -0.8359 -0.4106
15646TIP3    H268354   1.110   5.603  16.299  0.4877  0.4669 -0.4570
15647TIP3   OH268355   4.874   3.071  12.052 -0.6404  0.4025  0.2780
15647TIP3    H168356   4.866   3.002  11.986 -1.4875  0.7693 -0.0166
15647TIP3    H268357   4.955   3.051  12.098 -1.2737 -1.2334  0.7026
15648TIP3   OH268358   6.031   6.415  14.885  0.2020 -0.2669 -0.1045
15648TIP3    H168359   6.089   6.475  14.932  0.2518  0.6169 -1.2600
15648TIP3    H268360   5.993   6.469  14.816 -2.5883 -0.6627  1.0917
15649TIP3   OH268361   1.250   1.780  14.032 -0.0727 -0.2659 -0.2139
15649TIP3    H168362   1.286   1.859  13.991 -2.8907  0.8703 -0.5928
15649TIP3    H268363   1.191   1.743  13.966  0.7831 -2.4208  0.1678
15650TIP3   OH268364   5.084   4.844   5.129 -0.2610 -0.3911 -0.0053
15650TIP3    H168365   5.100   4.906   5.058  1.6339 -1.7295 -0.7941
15650TIP3    H268366   5.106   4.893   5.208  1.0519  0.0259 -0.6011
15651TIP3   OH268367   1.214   4.466   4.872 -0.0846 -0.4119  0.1238
15651TIP3    H168368   1.163   4.525   4.817 -0.2283 -0.6453  0.0075
15651TIP3    H268369   1.155   4.394   4.891 -0.0646 -0.2866  0.6613
15652TIP3   OH268370   0.928   6.353   4.415 -0.3800 -0.5892  0.0207
15652TIP3    H168371   0.983   6.377   4.490 -3.2165 -1.0376  2.3870
15652TIP3    H268372   0.961   6.267   4.388  3.1160  1.2163 -1.7905
15653TIP3   OH268373   0.365   1.348  16.190 -0.3559  0.0843 -0.5720
15653TIP3    H168374   0.391   1.263  16.155 -3.0551 -0.5208 -1.2406
15653TIP3    H268375   0.375   1.408  16.116  0.8859  0.2404 -0.2939
15654TIP3   OH268376   2.990   5.508  12.008  0.0183 -0.3890  0.1493
15654TIP3    H168377   2.943   5.474  12.084  0.6963  0.5562  0.9990
15654TIP3    H268378   2.941   5.585  11.980 -0.8156 -1.3200 -1.0211
15655TIP3   OH268379   3.632   2.999  12.168  0.3345  0.0264 -0.5111
15655TIP3    H168380   3.687   2.947  12.227 -1.3685  1.5570  2.5720
15655TIP3    H268381   3.662   3.089  12.182 -0.2323  0.4426 -1.9016
15656TIP3   OH268382   0.467   4.926   1.639 -0.0711  0.4053 -0.2790
15656TIP3    H168383   0.515   4.993   1.688  0.3469  2.4351 -3.3226
15656TIP3    H268384   0.410   4.885   1.704  0.7594  2.7046  1.9731
15657TIP3   OH268385   3.444   3.378  15.416  0.0286  0.3585 -0.2607
15657TIP3    H168386   3.451   3.282  15.411 -0.1355  0.2647  1.0353
15657TIP3    H268387   3.350   3.394  15.424  0.0891  0.6033 -0.0431
15658TIP3   OH268388   2.824   1.916   0.254 -0.1050 -0.2169  0.0644
15658TIP3    H168389   2.893   1.972   0.288  0.1264 -1.6270  2.0396
15658TIP3    H268390   2.745   1.970   0.257  0.9535  1.5799 -2.7030
15659TIP3   OH268391   1.199   3.698  14.597 -0.3437  0.2924 -0.2129
15659TIP3    H168392   1.266   3.703  14.529  1.3585  1.0793  1.4546
15659TIP3    H268393   1.166   3.787  14.606 -0.5734  0.1913 -0.0383
15660TIP3   OH268394   3.122   0.788   0.693 -0.1654 -0.5797 -0.8874
15660TIP3    H168395   3.137   0.720   0.628  1.2057  0.5020 -1.7515
15660TIP3    H268396   3.177   0.861   0.664 -1.3130  0.7604  0.2126
15661TIP3   OH268397   6.276   0.065   0.768  0.4668  0.4083 -0.1674
15661TIP3    H168398   6.339   0.103   0.829  1.2511  1.3898 -1.5745
15661TIP3    H268399   6.190   0.090   0.804  0.9269  1.2206  0.3879
15662TIP3   OH268400   1.626   3.032  14.620 -0.2099  0.1482  0.5157
15662TIP3    H168401   1.601   2.972  14.690 -2.8413  0.3979 -0.1843
15662TIP3    H268402   1.568   3.010  14.547  2.0483  0.3080 -1.4101
15663TIP3   OH268403   4.529   4.984  17.010 -0.3492  0.2618 -0.1680
15663TIP3    H168404   4.576   5.053  16.962  0.2306  0.3308  0.4934
15663TIP3    H268405   4.533   4.908  16.952 -0.5711  0.6449 -0.6910
15664TIP3   OH268406   4.955   0.768  12.987 -0.1882 -0.3263  0.4175
15664TIP3    H168407   4.936   0.862  12.988  1.8732  0.1315 -0.3392
15664TIP3    H268408   4.967   0.744  13.079  0.0965  0.3182  0.5472
15665TIP3   OH268409   5.431   6.322   3.491  0.5689 -0.0682 -0.1683
15665TIP3    H168410   5.518   6.351   3.465  0.4268  0.0052 -0.5692
15665TIP3    H268411   5.416   6.242   3.441 -0.1591  0.6847 -1.1847
15666TIP3   OH268412   3.785   0.395  12.536 -0.6403 -0.1048 -0.1546
15666TIP3    H168413   3.746   0.355  12.614  4.9516 -0.1830  2.9011
15666TIP3    H268414   3.838   0.325  12.498  1.2205  1.5545 -0.6651
15667TIP3   OH268415   5.976   1.255   1.979  0.0762  0.6254  0.2844
15667TIP3    H168416   6.039   1.261   1.907 -0.1546  0.4363  0.0653
15667TIP3    H268417   6.028   1.234   2.056  0.1157 -0.9275 -0.1508
15668TIP3   OH268418   4.305   2.819  17.146 -0.7394  0.4133 -0.4350
15668TIP3    H168419   4.253   2.854  17.218 -0.7754  0.5084 -0.5062
15668TIP3    H268420   4.389   2.796  17.186 -1.1812 -0.6723 -0.1204
15669TIP3   OH268421   4.794   0.832  11.786 -0.3257  0.0799  0.2423
15669TIP3    H168422   4.790   0.922  11.817  0.4985  0.2496 -0.1470
15669TIP3    H268423   4.887   0.813  11.777 -0.4726 -1.0065  0.8843
15670TIP3   OH268424   2.531   4.087  11.827 -0.4587  0.6768 -0.6462
15670TIP3    H168425   2.506   4.178  11.813  0.3497  0.8466 -0.9994
15670TIP3    H268426   2.620   4.080  11.792  0.4350  0.3732  1.5989
15671TIP3   OH268427   4.727   2.093   1.610  0.1038  0.2866  0.5363
15671TIP3    H168428   4.759   2.146   1.537  2.8088  1.4169  2.4495
15671TIP3    H268429   4.725   2.154   1.684 -0.7068 -1.3052  1.8625
15672TIP3   OH268430   6.179   4.147   4.032  0.7925 -0.0568 -0.6079
15672TIP3    H168431   6.155   4.131   3.940 -0.8203  0.4187 -0.2937
15672TIP3    H268432   6.114   4.211   4.062  1.1837 -0.3694  0.9276
15673TIP3   OH268433   3.354   2.163   2.419 -0.5209  0.3351 -1.0509
15673TIP3    H168434   3.395   2.249   2.412  0.6690 -0.2656 -1.6452
15673TIP3    H268435   3.426   2.101   2.407 -1.2640 -0.7470 -0.0308
15674TIP3   OH268436   5.441   3.101  16.834  0.2112 -0.0894 -0.3299
15674TIP3    H168437   5.501   3.154  16.886 -0.3923  1.1561 -0.8688
15674TIP3    H268438   5.365   3.157  16.822 -1.9353 -2.4012  2.0534
15675TIP3   OH268439   0.943   0.861  11.752 -0.0577  0.6697  0.0496
15675TIP3    H168440   0.956   0.779  11.704  0.5786  0.6602  0.2322
15675TIP3    H268441   0.854   0.887  11.730 -0.2701 -0.0745 -0.0106
15676TIP3   OH268442   5.094   3.032   4.124  0.1943  0.4135 -0.0167
15676TIP3    H168443   5.115   3.105   4.066  0.8447  0.2058 -0.0471
15676TIP3    H268444   5.174   3.017   4.173 -0.3934  0.6954  1.0642
15677TIP3   OH268445   4.741   0.879   4.216 -0.4884 -0.0230  0.0954
15677TIP3    H168446   4.779   0.851   4.300  2.1420  0.7257 -0.7884
15677TIP3    H268447   4.698   0.962   4.236 -2.2985 -1.1866  1.2476
15678TIP3   OH268448   4.976   0.678  16.187 -0.0087  0.8112 -0.2270
15678TIP3    H168449   5.054   0.730  16.207  0.0751  0.3105  0.8007
15678TIP3    H268450   4.932   0.668  16.271  0.8286 -2.1524 -0.0811
15679TIP3   OH268451   2.751   4.455   2.826 -0.3051 -0.3921 -0.7273
15679TIP3    H168452   2.675   4.397   2.828 -1.0903  0.6506  0.1190
15679TIP3    H268453   2.823   4.400   2.857 -1.1506 -0.7831  0.5727
15680TIP3   OH268454   0.702   3.339   1.150 -0.7000 -0.5289 -0.1594
15680TIP3    H168455   0.616   3.329   1.193 -2.0875 -0.5014 -2.8293
15680TIP3    H268456   0.718   3.253   1.110  1.3124 -1.0379  1.6675
15681TIP3   OH268457   6.268   6.316  17.222 -0.5770  0.0878 -0.4859
15681TIP3    H168458   6.320   6.392  17.196 -0.2826  0.5147  1.3150
15681TIP3    H268459   6.248   6.271  17.139  0.3456  1.4016 -1.4367
15682TIP3   OH268460   6.549   2.055   2.030  0.5898 -0.9533  0.2417
15682TIP3    H168461   6.548   2.082   1.939 -0.7220  0.8669  0.7704
15682TIP3    H268462   6.490   1.980   2.034 -0.5392 -0.0886 -0.1254
15683TIP3   OH268463   3.145   3.148   4.746 -0.3656  0.0417 -0.1235
15683TIP3    H168464   3.164   3.214   4.813 -0.6579  0.8055 -0.7814
15683TIP3    H268465   3.058   3.172   4.714  0.5538  0.8343 -2.1056
15684TIP3   OH268466   3.163   4.698   3.924 -0.1222 -0.1259  0.2939
15684TIP3    H168467   3.116   4.754   3.861 -1.9203  0.0065  1.7216
15684TIP3    H268468   3.170   4.752   4.003  0.3150 -1.0324  0.8770
15685TIP3   OH268469   0.215   5.548  13.034 -0.2525  0.2761  0.5626
15685TIP3    H168470   0.238   5.492  12.960 -0.3646 -1.2951  1.6880
15685TIP3    H268471   0.298   5.590  13.059 -0.2859  1.0746 -0.6544
15686TIP3   OH268472   5.872   1.607  16.196 -0.0731  0.2013 -0.2433
15686TIP3    H168473   5.884   1.658  16.276  0.2846  0.8232 -0.6822
15686TIP3    H268474   5.933   1.646  16.134 -0.9728  0.3043 -1.0872
15687TIP3   OH268475   4.463   5.173   5.805  0.1985 -0.4152 -0.3014
15687TIP3    H168476   4.421   5.129   5.879 -0.4595 -0.9986 -1.0171
15687TIP3    H268477   4.452   5.266   5.824 -0.0698 -0.5618  0.2779
15688TIP3   OH268478   6.381   6.575  15.778  0.3708  0.2813 -0.3775
15688TIP3    H168479   6.303   6.613  15.739 -0.0022  0.9454  0.9869
15688TIP3    H268480   6.355   6.485  15.801  0.0721  0.4285 -0.1335
15689TIP3   OH268481   4.168   0.153   3.094  0.4394  0.7750  0.3857
15689TIP3    H168482   4.085   0.109   3.110  1.5607 -0.7215  2.4777
15689TIP3    H268483   4.160   0.191   3.007 -2.4126  0.6544  0.5701
15690TIP3   OH268484   1.535   6.031   5.214 -0.3509  0.0016 -0.7257
15690TIP3    H168485   1.549   5.982   5.295  0.2689  0.0059 -0.8265
15690TIP3    H268486   1.463   5.985   5.170 -0.9067  0.1957 -0.0170
15691TIP3   OH268487   5.375   3.382  12.560 -0.1212  0.1166 -0.1317
15691TIP3    H168488   5.400   3.363  12.470 -0.1906 -0.7320  0.0204
15691TIP3    H268489   5.319   3.309  12.585  1.3386 -0.5824  1.1810
15692TIP3   OH268490   3.838   2.027  13.082 -0.0751  0.2225 -0.7291
15692TIP3    H168491   3.863   1.943  13.043 -0.3128 -1.6594  2.9898
15692TIP3    H268492   3.918   2.061  13.121 -0.3782  0.8519 -0.6383
15693TIP3   OH268493   4.182   2.081   1.804  0.3731  0.0331 -0.0542
15693TIP3    H168494   4.270   2.102   1.772  0.5539  2.3378  1.8472
15693TIP3    H268495   4.182   2.109   1.896 -1.7006 -1.8565  0.5646
15694TIP3   OH268496   1.152   2.254   2.977 -0.4826 -0.1514 -0.1201
15694TIP3    H168497   1.125   2.295   2.894  0.4759 -1.0254 -0.8641
15694TIP3    H268498   1.079   2.272   3.036  0.4268  3.7557 -0.0255
15695TIP3   OH268499   0.345   5.020   1.064  0.6813 -0.1129 -0.2195
15695TIP3    H168500   0.387   4.983   1.142  0.8976 -0.1023 -0.3287
15695TIP3    H268501   0.346   5.114   1.079 -1.6407 -0.2465  0.9447
15696TIP3   OH268502   2.741   3.363   1.886 -0.3158  0.4490  0.5394
15696TIP3    H168503   2.775   3.450   1.864 -0.4916  0.2747 -0.4409
15696TIP3    H268504   2.772   3.348   1.975  1.3056  0.7408  0.0477
15697TIP3   OH268505   4.236   0.590   3.047 -0.4418  0.7801 -0.1579
15697TIP3    H168506   4.260   0.499   3.028  0.2662  1.1147 -0.9529
15697TIP3    H268507   4.155   0.603   2.999  0.2912  1.0258 -1.3649
15698TIP3   OH268508   4.877   4.275   2.995  0.0363 -0.3389 -0.0206
15698TIP3    H168509   4.897   4.273   3.089 -0.5847 -1.9574  0.0886
15698TIP3    H268510   4.815   4.204   2.982 -2.7034  2.1104 -1.0533
15699TIP3   OH268511   1.564   0.082  12.536  0.4568  0.0765  0.4004
15699TIP3    H168512   1.498   0.112  12.599 -0.5070 -0.6061 -0.2595
15699TIP3    H268513   1.615   0.160  12.516 -0.8018  0.8618  0.1601
15700TIP3   OH268514   0.874   4.289  11.399  0.0069  0.5276 -0.0733
15700TIP3    H168515   0.857   4.371  11.445  0.4268  0.5478  0.0511
15700TIP3    H268516   0.888   4.316  11.308  0.1418  0.5931 -0.0340
15701TIP3   OH268517   4.706   5.323   4.715 -0.2804  0.3231 -0.0780
15701TIP3    H168518   4.794   5.336   4.750 -0.6046 -1.7658  1.6489
15701TIP3    H268519   4.651   5.385   4.762 -0.0400  0.3321  0.1883
15702TIP3   OH268520   2.299   1.049   2.337  0.1960  0.0409 -0.5145
15702TIP3    H168521   2.391   1.052   2.363 -0.3541  0.7936  1.3962
15702TIP3    H268522   2.261   1.129   2.374 -1.5006 -0.8901 -0.2133
15703TIP3   OH268523   5.413   2.390  10.838 -0.4087 -0.2744 -0.7708
15703TIP3    H168524   5.409   2.485  10.827 -1.1302 -0.3367 -1.0835
15703TIP3    H268525   5.329   2.359  10.806 -1.2127 -0.7842  1.7261
15704TIP3   OH268526   5.278   3.168  11.067 -0.3879  0.0500  0.1601
15704TIP3    H168527   5.259   3.261  11.058  2.3551  0.6949  0.6708
15704TIP3    H268528   5.322   3.144  10.986  0.2219 -0.4626  0.6394
15705TIP3   OH268529   4.157   0.506   6.065 -0.1725 -0.1195  0.4706
15705TIP3    H168530   4.094   0.578   6.061  0.6956  0.6151 -0.5205
15705TIP3    H268531   4.109   0.433   6.104 -1.8233  0.2196 -0.8833
15706TIP3   OH268532   6.091   5.963  13.276 -0.6367  0.5034  0.2998
15706TIP3    H168533   6.140   6.018  13.214 -1.5008  1.8685  0.8063
15706TIP3    H268534   6.159   5.924  13.331  0.1332 -0.6225 -1.3907
15707TIP3   OH268535   2.424   2.318  13.906 -0.7564 -0.1093  0.0661
15707TIP3    H168536   2.492   2.383  13.926 -0.5353  0.3253 -1.9365
15707TIP3    H268537   2.349   2.345  13.958 -0.1208  0.7541  0.5601
15708TIP3   OH268538   0.853   5.664   5.326  0.7011  0.1957 -0.2462
15708TIP3    H168539   0.794   5.700   5.392  1.9603  3.2596 -0.7227
15708TIP3    H268540   0.938   5.657   5.369  0.9959 -0.0477 -0.8515
15709TIP3   OH268541   6.175   1.624   5.755 -0.6282  0.1253 -0.4009
15709TIP3    H168542   6.177   1.709   5.800 -1.7418  1.0940 -2.1361
15709TIP3    H268543   6.264   1.590   5.766 -0.3602  1.1886  0.9057
15710TIP3   OH268544   0.938   3.825  13.305  0.0638 -0.4265  0.1199
15710TIP3    H168545   0.933   3.729  13.307 -0.5458 -0.4837 -2.6943
15710TIP3    H268546   0.851   3.854  13.331  0.2672 -0.6281  1.0396
15711TIP3   OH268547   0.549   2.672   3.891  0.8107  0.0248  0.5046
15711TIP3    H168548   0.585   2.755   3.860  1.1454 -0.0080  0.7957
15711TIP3    H268549   0.625   2.624   3.925  0.2695  0.6896  2.7801
15712TIP3   OH268550   1.812   0.468   4.640  0.1490 -0.6276  0.1704
15712TIP3    H168551   1.719   0.452   4.650 -0.2371  0.3992 -1.4898
15712TIP3    H268552   1.822   0.563   4.651  1.0899 -0.8082  0.9715
15713TIP3   OH268553   1.746   3.988   0.874  0.3620 -0.1359 -0.1708
15713TIP3    H168554   1.692   4.006   0.797  0.4989 -1.8120 -0.6640
15713TIP3    H268555   1.832   4.024   0.852  0.2499 -0.1171 -0.5801
15714TIP3   OH268556   4.759   0.713  12.303  0.3139  0.2882 -0.2084
15714TIP3    H168557   4.771   0.808  12.313  0.9104  0.1900  0.0414
15714TIP3    H268558   4.836   0.675  12.344  1.0179 -0.2502 -1.9746
15715TIP3   OH268559   3.579   2.335  13.550  0.1893  0.0228  0.5103
15715TIP3    H168560   3.536   2.291  13.477 -0.6748 -1.0721  1.6553
15715TIP3    H268561   3.624   2.265  13.597  0.9431  0.7583  0.9003
15716TIP3   OH268562   1.638   4.967   1.163 -0.2180  0.3805 -0.3000
15716TIP3    H168563   1.694   4.906   1.210 -0.1000  0.5114 -0.2691
15716TIP3    H268564   1.698   5.033   1.129 -0.2733  0.1507 -0.8449
15717TIP3   OH268565   2.743   6.771   3.814 -0.0036  0.1703 -0.2055
15717TIP3    H168566   2.743   6.858   3.776  0.7445  0.4485  0.4162
15717TIP3    H268567   2.785   6.715   3.749  1.1573  0.6184  0.1484
15718TIP3   OH268568   6.778   0.318  14.474 -0.2562  0.1143  0.0099
15718TIP3    H168569   6.840   0.382  14.440 -0.8775  1.1184  0.7214
15718TIP3    H268570   6.815   0.291  14.558 -0.3036  0.0194  0.0006
15719TIP3   OH268571   6.128   4.117   3.228 -1.0048  0.3931 -0.6043
15719TIP3    H168572   6.203   4.090   3.281  1.2923  0.8603 -3.5061
15719TIP3    H268573   6.081   4.181   3.283  0.7583  0.1640  1.2118
15720TIP3   OH268574   1.616   0.266   6.622  0.4487  0.1927  0.1712
15720TIP3    H168575   1.702   0.250   6.583  1.3647 -1.0030  2.5882
15720TIP3    H268576   1.554   0.226   6.560  1.6471  0.6066 -1.3284
15721TIP3   OH268577   2.707   6.710  14.911  0.2661 -0.5647 -0.2098
15721TIP3    H168578   2.631   6.670  14.953  0.5201 -1.6999 -0.8122
15721TIP3    H268579   2.781   6.656  14.937  0.9937  0.9493  0.9390
15722TIP3   OH268580   5.774   2.761   4.364 -0.1011 -0.2294 -0.3938
15722TIP3    H168581   5.848   2.793   4.416 -0.1523  0.3861 -0.6975
15722TIP3    H268582   5.768   2.821   4.290  0.0958 -1.2289 -1.2341
15723TIP3   OH268583   0.430   3.890   0.276 -0.4902  0.1841 -0.0350
15723TIP3    H168584   0.355   3.842   0.241 -0.4273 -1.1185  1.5708
15723TIP3    H268585   0.427   3.875   0.370  2.0998 -0.3266  0.0012
15724TIP3   OH268586   4.243   0.385   5.336 -0.7267 -0.3595  0.0771
15724TIP3    H168587   4.175   0.437   5.379  0.8854  0.7026  1.3744
15724TIP3    H268588   4.201   0.301   5.319 -3.5653  1.4861 -2.5596
15725TIP3   OH268589   4.568   1.019  14.574  0.6342  0.9076  0.0552
15725TIP3    H168590   4.603   0.942  14.619  1.1021  0.9174 -0.2903
15725TIP3    H268591   4.486   0.989  14.535  0.5583  0.7230  0.3611
15726TIP3   OH268592   3.618   4.631   6.343 -0.3995 -0.0717 -0.0568
15726TIP3    H168593   3.617   4.543   6.306  1.6345 -0.0583 -0.2274
15726TIP3    H268594   3.704   4.666   6.318 -0.3986  1.2351  1.6859
15727TIP3   OH268595   3.414   3.286  17.142 -0.4519  0.3810 -0.2847
15727TIP3    H168596   3.426   3.227  17.068 -3.1555 -0.1355 -0.3633
15727TIP3    H268597   3.461   3.244  17.214  1.0816  0.2256 -1.3533
15728TIP3   OH268598   5.780   5.166   0.009  0.3081 -0.1667  0.1483
15728TIP3    H168599   5.769   5.260   0.028 -0.2470 -0.4415  1.2408
15728TIP3    H268600   5.828   5.133   0.085 -0.6712 -1.0242  0.3989
15729TIP3   OH268601   6.044   1.269  16.178  0.6455  0.3022 -0.1262
15729TIP3    H168602   6.126   1.222  16.172  0.5778  0.0147  0.9901
15729TIP3    H268603   6.004   1.237  16.259 -1.2820 -0.6944 -1.4218
15730TIP3   OH268604   3.034   1.080   1.574 -0.0018  0.1446  0.1350
15730TIP3    H168605   2.971   1.048   1.510  0.1645  2.4902 -1.2862
15730TIP3    H268606   3.071   1.159   1.533  0.8601  1.1181  2.6866
15731TIP3   OH268607   5.900   1.002   6.050  0.0663 -0.3796 -0.8357
15731TIP3    H168608   5.846   1.028   6.125 -0.3438 -1.7092 -0.6446
15731TIP3    H268609   5.838   1.001   5.976  0.2180 -0.1871 -0.9652
15732TIP3   OH268610   5.421   1.877  14.998 -0.3772 -0.0748  0.5861
15732TIP3    H168611   5.454   1.800  15.044  0.4148  0.0834  0.2892
15732TIP3    H268612   5.446   1.951  15.053  1.6269  0.2074 -0.6719
15733TIP3   OH268613   4.081   3.791   0.439 -0.5694 -0.5915  0.2886
15733TIP3    H168614   4.070   3.880   0.471 -0.8045 -0.7945  0.7780
15733TIP3    H268615   3.994   3.765   0.409 -0.4755 -0.6135  0.0341
15734TIP3   OH268616   3.387   1.272  11.546 -0.1986 -0.1411  0.1328
15734TIP3    H168617   3.313   1.291  11.488 -1.5140 -0.2309  1.7283
15734TIP3    H268618   3.352   1.287  11.634  0.8391 -2.9391  1.0651
15735TIP3   OH268619   5.645   3.796  15.510  0.2320 -0.1280 -0.2770
15735TIP3    H168620   5.585   3.778  15.582 -0.4397  0.5669 -0.6555
15735TIP3    H268621   5.732   3.796  15.551 -0.2034  1.0929  0.6959
15736TIP3   OH268622   3.183   6.403  16.001 -0.4906 -0.1325 -0.1255
15736TIP3    H168623   3.241   6.410  15.926  0.1644 -1.6542  0.2136
15736TIP3    H268624   3.122   6.333  15.978 -1.9293  1.1616 -0.3018
15737TIP3   OH268625   4.691   4.109  15.740  0.7210 -0.0870  0.5438
15737TIP3    H168626   4.671   4.142  15.828 -0.8708  1.6162 -0.4263
15737TIP3    H268627   4.759   4.167  15.707  0.4382  0.0361  0.1807
15738TIP3   OH268628   5.088   4.484   5.613  1.0598  0.4689  0.0392
15738TIP3    H168629   5.175   4.446   5.630  1.4456  1.0863 -0.5240
15738TIP3    H268630   5.031   4.408   5.600  1.2267  0.0335  1.7609
15739TIP3   OH268631   1.844   5.594  17.191  0.2059 -0.6017 -0.0635
15739TIP3    H168632   1.893   5.611  17.111  0.1717  0.8873  0.2274
15739TIP3    H268633   1.837   5.498  17.194  0.1612 -0.6743 -1.8506
15740TIP3   OH268634   2.749   4.572  11.908  0.1017  0.1459  0.2823
15740TIP3    H168635   2.674   4.577  11.967  0.4797  0.1000  0.7657
15740TIP3    H268636   2.805   4.646  11.934  0.7615 -0.4861  0.6631
15741TIP3   OH268637   0.249   0.159   4.764  0.5717  0.2618 -0.3956
15741TIP3    H168638   0.294   0.239   4.791  0.2425  0.1002  0.6725
15741TIP3    H268639   0.305   0.088   4.793  0.1372  0.0792  0.0051
15742TIP3   OH268640   4.705   3.723  13.970 -0.3162  0.0842 -0.3068
15742TIP3    H168641   4.750   3.705  13.888  1.1809  2.9369 -0.1708
15742TIP3    H268642   4.717   3.644  14.022  1.7907 -0.3991 -1.4960
15743TIP3   OH268643   1.379   5.938   4.909  0.0735 -0.4254 -0.0642
15743TIP3    H168644   1.338   5.985   4.981  0.5761 -0.4206  0.2218
15743TIP3    H268645   1.428   5.867   4.952  2.3662  1.0323 -0.2084
15744TIP3   OH268646   3.918   5.111   0.519  0.2017  0.2610 -0.3688
15744TIP3    H168647   3.881   5.198   0.504  1.0371  0.5194 -0.9562
15744TIP3    H268648   3.908   5.066   0.435 -0.1227 -0.1783 -0.0999
15745TIP3   OH268649   2.854   6.003  13.591  0.6513  0.2339  0.5414
15745TIP3    H168650   2.882   6.058  13.518  0.8430  0.8993  1.1023
15745TIP3    H268651   2.828   6.066  13.659  1.5082 -0.3736  1.4382
15746TIP3   OH268652   1.728   0.869  11.915  0.0420 -0.5378  0.2017
15746TIP3    H168653   1.703   0.781  11.884  2.8017 -1.3669  0.2113
15746TIP3    H268654   1.817   0.858  11.947  0.0151  2.0624  1.2373
15747TIP3   OH268655   5.361   1.613  16.206 -0.1291  0.4548  0.2486
15747TIP3    H168656   5.373   1.576  16.294 -1.7245  1.2433  0.8076
15747TIP3    H268657   5.448   1.646  16.183  0.4393 -0.2624  1.2978
15748TIP3   OH268658   2.453   2.185  11.191  0.0266  0.1397  0.4011
15748TIP3    H168659   2.497   2.254  11.239 -1.2472  0.8195  0.6190
15748TIP3    H268660   2.395   2.231  11.131 -0.2867 -0.7342  0.0222
15749TIP3   OH268661   2.553   3.827  14.885 -0.6401 -0.0322 -0.4120
15749TIP3    H168662   2.611   3.832  14.961  0.0251 -0.8796 -0.8593
15749TIP3    H268663   2.608   3.853  14.811 -0.8134 -0.8714 -0.8420
15750TIP3   OH268664   6.220   2.094   3.863  0.2179  0.3637 -0.0444
15750TIP3    H168665   6.134   2.055   3.876  0.2972 -0.2895 -1.4135
15750TIP3    H268666   6.202   2.184   3.838 -0.1233 -0.0657 -1.4119
15751TIP3   OH268667   1.959   0.231   3.738 -0.4715 -0.4505 -1.0072
15751TIP3    H168668   1.877   0.194   3.705 -1.0411  0.7810 -1.0221
15751TIP3    H268669   2.026   0.168   3.712 -1.5615 -2.1574  0.2150
15752TIP3   OH268670   1.477   0.263  14.195  0.1618  0.0743 -0.3755
15752TIP3    H168671   1.427   0.310  14.261 -1.8217  0.7690 -2.3107
15752TIP3    H268672   1.544   0.324  14.166  1.7222 -0.5948  1.6835
15753TIP3   OH268673   4.459   0.822  13.122 -0.1095  0.1240 -0.4374
15753TIP3    H168674   4.390   0.865  13.072 -0.2083  0.5512  0.0614
15753TIP3    H268675   4.527   0.802  13.057 -1.2011 -1.3742 -1.1361
15754TIP3   OH268676   0.238   4.911  14.505  0.0401 -0.3590  0.1140
15754TIP3    H168677   0.214   4.986  14.559 -0.6130 -0.6722  0.2609
15754TIP3    H268678   0.242   4.946  14.416 -1.1168 -0.3309  0.0668
15755TIP3   OH268679   2.613   1.457  15.754 -0.1931 -0.8075  0.1821
15755TIP3    H168680   2.633   1.370  15.788  1.2635 -0.5337  0.0530
15755TIP3    H268681   2.663   1.464  15.673 -1.0838 -0.2214 -0.3264
15756TIP3   OH268682   5.081   1.159  15.678  0.2248 -0.7883 -0.0529
15756TIP3    H168683   5.117   1.091  15.621 -1.8942 -2.1944  0.2061
15756TIP3    H268684   5.059   1.112  15.759  0.3027  0.5573  0.7493
15757TIP3   OH268685   2.005   2.061   2.388 -0.3232 -0.4613  0.0780
15757TIP3    H168686   2.057   2.133   2.424  0.3502 -0.5953 -0.6261
15757TIP3    H268687   2.062   1.985   2.394 -0.7799 -0.7993  0.1613
15758TIP3   OH268688   1.121   5.221  10.974  0.6342 -0.1344  0.1256
15758TIP3    H168689   1.115   5.126  10.959 -1.2763  0.0063 -0.1899
15758TIP3    H268690   1.111   5.259  10.887 -1.9548  0.4295  0.6139
15759TIP3   OH268691   6.164   5.384  16.221 -0.4202  0.0856 -0.1451
15759TIP3    H168692   6.208   5.359  16.302 -0.1811 -1.5124 -0.7517
15759TIP3    H268693   6.154   5.303  16.173 -0.5380  1.0268 -1.7439
15760TIP3   OH268694   4.312   2.584   2.362  0.4748 -0.0293 -0.0058
15760TIP3    H168695   4.219   2.601   2.378  0.7332  0.3749  1.1471
15760TIP3    H268696   4.350   2.671   2.346  0.6813 -0.1776 -0.3228
15761TIP3   OH268697   1.576   0.088   5.565  0.0974 -0.5299  0.1770
15761TIP3    H168698   1.505   0.150   5.554  0.2527 -0.4828 -0.5743
15761TIP3    H268699   1.566   0.026   5.493  0.7702 -0.5631  0.1030
15762TIP3   OH268700   3.929   5.262   3.900  1.0376  0.0481  0.5160
15762TIP3    H168701   3.868   5.188   3.906  1.6611 -0.5700 -0.5520
15762TIP3    H268702   3.880   5.330   3.855 -0.1668  0.9712  3.1683
15763TIP3   OH268703   5.975   1.892  14.863  0.6741  0.1508  0.1943
15763TIP3    H168704   5.937   1.806  14.844  1.1057  0.5794 -2.9734
15763TIP3    H268705   5.916   1.931  14.927 -2.5364 -0.4205 -2.2931
15764TIP3   OH268706   5.667   2.797  13.479  0.5948 -0.1099  0.0893
15764TIP3    H168707   5.649   2.760  13.393  2.9145 -0.6328 -0.1913
15764TIP3    H268708   5.586   2.842  13.503 -0.9362 -2.0764 -1.2506
15765TIP3   OH268709   4.883   3.736  11.475  0.1266 -0.0879  0.0393
15765TIP3    H168710   4.833   3.694  11.545  0.3088 -0.3066  0.0350
15765TIP3    H268711   4.966   3.688  11.472 -0.1227 -0.4684 -0.7359
15766TIP3   OH268712   5.409   5.586   2.867  0.2986  0.3111 -0.1207
15766TIP3    H168713   5.372   5.606   2.781 -1.6416  1.7030  1.0325
15766TIP3    H268714   5.439   5.670   2.901 -0.2431 -0.0214  1.1867
15767TIP3   OH268715   2.696   6.331   0.445 -0.1383  0.2488 -0.1627
15767TIP3    H168716   2.609   6.345   0.481  0.1470 -1.0959  1.1000
15767TIP3    H268717   2.756   6.359   0.515  0.4297 -0.6752 -0.2690
15768TIP3   OH268718   4.113   2.911  16.980 -0.4645  0.6030 -0.2259
15768TIP3    H168719   4.185   2.884  17.038 -1.1278 -0.5285  0.0923
15768TIP3    H268720   4.090   2.999  17.010  0.1841  0.6116  0.2693
15769TIP3   OH268721   6.368   3.764   4.979  0.5832  0.3072  0.3448
15769TIP3    H168722   6.402   3.829   4.918  0.0363 -0.2096 -0.5133
15769TIP3    H268723   6.446   3.728   5.021  1.0506 -0.3826 -1.1161
15770TIP3   OH268724   3.291   2.168  11.750 -0.3488 -0.4469 -0.5421
15770TIP3    H168725   3.368   2.221  11.730  1.0300 -2.5722 -0.9457
15770TIP3    H268726   3.228   2.231  11.784  1.7874  1.2573  0.4291
15771TIP3   OH268727   4.469   2.246   5.165 -0.1815 -0.4680 -0.2283
15771TIP3    H168728   4.461   2.159   5.203 -2.1204 -0.1362  0.1748
15771TIP3    H268729   4.563   2.267   5.171  0.5268 -3.0704 -1.6166
15772TIP3   OH268730   3.867   4.640  12.158 -0.3432 -0.2651  0.1606
15772TIP3    H168731   3.878   4.709  12.092  0.1941  0.1283  0.6615
15772TIP3    H268732   3.952   4.596  12.162 -0.3949 -0.3312  0.5500
15773TIP3   OH268733   4.958   3.354  15.306 -0.2946 -0.4083  0.4344
15773TIP3    H168734   4.966   3.355  15.211  0.6109  0.1489  0.5178
15773TIP3    H268735   5.013   3.426  15.336  0.1994 -1.1998  1.4420
15774TIP3   OH268736   3.842   4.650  14.837 -0.2128 -0.5818  0.1007
15774TIP3    H168737   3.808   4.702  14.764  0.7252 -0.8051 -0.4967
15774TIP3    H268738   3.934   4.675  14.844 -0.8913  1.4600  2.9591
15775TIP3   OH268739   1.206   2.518  17.134 -0.3166  0.3066  0.3635
15775TIP3    H168740   1.271   2.567  17.183 -2.5155  2.1538  1.5010
15775TIP3    H268741   1.195   2.568  17.053  0.1338 -0.3547 -0.1093
15776TIP3   OH268742   1.651   3.837  14.307  0.2741 -0.7538 -0.1361
15776TIP3    H168743   1.696   3.799  14.232  0.7857 -0.8130  0.1990
15776TIP3    H268744   1.714   3.830  14.379  0.1147  0.0899  0.0951
15777TIP3   OH268745   1.940   6.159  11.614 -0.0520 -0.1499  0.1551
15777TIP3    H168746   1.951   6.223  11.544 -1.4661  0.7733  0.7621
15777TIP3    H268747   1.988   6.195  11.688 -0.6435  0.1035  0.4218
15778TIP3   OH268748   6.691   2.657  12.621  0.6326  0.0259  0.3777
15778TIP3    H168749   6.693   2.752  12.619  3.8073  0.0508  1.3552
15778TIP3    H268750   6.723   2.630  12.535 -0.9978 -0.2081 -0.1809
15779TIP3   OH268751   6.569   5.603   3.685 -0.7287  0.7301  0.2105
15779TIP3    H168752   6.628   5.677   3.679 -1.5434  1.2489 -1.4910
15779TIP3    H268753   6.534   5.591   3.597 -0.9205 -1.4247  0.5363
15780TIP3   OH268754   1.840   2.823  14.773 -0.1380  0.2079  0.0305
15780TIP3    H168755   1.746   2.804  14.768 -0.3359  1.2809 -0.4227
15780TIP3    H268756   1.882   2.740  14.750 -0.9568 -0.6128  1.4081
15781TIP3   OH268757   0.587   6.093  16.601 -0.6671 -0.4212  0.3747
15781TIP3    H168758   0.646   6.056  16.535 -1.5772 -1.0942 -0.0710
15781TIP3    H268759   0.616   6.184  16.610  0.4426 -0.7431  0.1737
15782TIP3   OH268760   4.602   1.958  13.508 -0.2744  0.2564  0.0475
15782TIP3    H168761   4.549   1.970  13.429 -0.5603 -0.2719  0.1586
15782TIP3    H268762   4.582   1.869  13.537  0.7358  0.0313  0.0498
15783TIP3   OH268763   3.553   4.471   0.937  0.2609 -0.5746  0.3813
15783TIP3    H168764   3.574   4.565   0.933  1.0886 -0.7990 -1.0606
15783TIP3    H268765   3.501   4.461   1.016 -1.3687  1.4288 -0.4005
15784TIP3   OH268766   2.829   3.402   6.252 -0.0192  0.4096 -0.2769
15784TIP3    H168767   2.758   3.363   6.302 -0.6045 -0.1467 -1.5195
15784TIP3    H268768   2.887   3.439   6.318 -1.6117  1.1434  0.7276
15785TIP3   OH268769   3.517   4.151   0.200 -0.6462 -0.0949  0.4528
15785TIP3    H168770   3.490   4.151   0.292  0.0120  1.0808  0.6539
15785TIP3    H268771   3.457   4.090   0.158  0.4230 -2.3036  2.0421
15786TIP3   OH268772   3.208   1.984  13.073 -0.2043  0.4796  0.0213
15786TIP3    H168773   3.214   1.957  13.165 -0.3987  1.1857  0.2382
15786TIP3    H268774   3.152   2.062  13.073  0.2174  0.7891 -0.6359
15787TIP3   OH268775   0.561   6.642   4.355  0.4474 -0.0472 -0.1984
15787TIP3    H168776   0.622   6.599   4.416 -0.5227 -2.6298 -0.9685
15787TIP3    H268777   0.491   6.676   4.410  0.9480  0.0492  0.3843
15788TIP3   OH268778   5.044   3.013  13.072 -0.6240 -0.3982  0.1624
15788TIP3    H168779   5.028   3.103  13.100 -0.7251 -0.9948  2.0941
15788TIP3    H268780   5.117   2.983  13.126  0.1883 -1.1159 -1.2800
15789TIP3   OH268781   5.973   2.728   1.159 -0.1980  0.2674  0.4317
15789TIP3    H168782   5.935   2.645   1.132  2.3814 -1.7719  2.7143
15789TIP3    H268783   6.038   2.748   1.092  1.9305 -1.6448  1.8589
15790TIP3   OH268784   3.782   3.724   5.729  0.3065 -0.4800 -0.4067
15790TIP3    H168785   3.715   3.792   5.729 -1.5194 -2.2339  0.5098
15790TIP3    H268786   3.860   3.767   5.764 -1.5931  0.4785  2.8708
15791TIP3   OH268787   1.223   4.942  10.371  0.4952 -0.1976 -0.0611
15791TIP3    H168788   1.272   4.875  10.418 -0.8171  0.2034  1.9481
15791TIP3    H268789   1.140   4.949  10.418  0.3271  2.3295 -0.6291
15792TIP3   OH268790   1.401   1.190  11.405 -0.0638 -0.4809  0.2654
15792TIP3    H168791   1.469   1.169  11.469 -0.0197  1.0455  0.7383
15792TIP3    H268792   1.430   1.146  11.324  0.7894 -0.9518  0.8151
15793TIP3   OH268793   2.240   5.339   4.508  0.1782 -0.2137  0.2823
15793TIP3    H168794   2.303   5.347   4.437  0.8791  1.1844  1.0454
15793TIP3    H268795   2.293   5.334   4.587 -0.6635  1.7187  0.9989
15794TIP3   OH268796   5.148   1.453   3.502 -0.4104  0.2887  0.6130
15794TIP3    H168797   5.204   1.378   3.519 -0.2351  0.5517  1.2434
15794TIP3    H268798   5.166   1.513   3.575  0.4869  1.5556 -0.6127
15795TIP3   OH268799   0.786   3.936  14.164 -0.3128 -0.3467  0.6671
15795TIP3    H168800   0.701   3.928  14.121 -0.9370  0.9447  1.6573
15795TIP3    H268801   0.771   3.994  14.238  1.4438 -0.0691  0.8316
15796TIP3   OH268802   5.125   4.736  12.908  0.1681  0.1474 -0.1620
15796TIP3    H168803   5.067   4.710  12.980  2.1417  1.4102  1.9276
15796TIP3    H268804   5.075   4.801  12.859 -1.9430 -2.1087 -1.1289
15797TIP3   OH268805   6.384   4.908   6.050  0.0029  0.4072 -0.4495
15797TIP3    H168806   6.323   4.847   6.090 -1.4163  2.2315  0.2345
15797TIP3    H268807   6.470   4.879   6.080 -0.8401  0.1576  1.8102
15798TIP3   OH268808   3.823   2.438  14.012  0.3488 -0.3645  0.2650
15798TIP3    H168809   3.773   2.500  14.064 -2.1055 -2.7660  0.8686
15798TIP3    H268810   3.758   2.377  13.978  2.6392 -2.3883 -0.6179
15799TIP3   OH268811   4.068   0.528   5.002  0.5013  0.2240  0.3208
15799TIP3    H168812   4.038   0.571   4.921 -1.0408  0.6493  1.0918
15799TIP3    H268813   4.069   0.599   5.067 -0.6961 -0.6189  1.2699
15800TIP3   OH268814   3.976   1.704  14.260 -0.9565 -0.1228  0.6556
15800TIP3    H168815   3.996   1.726  14.351 -1.3708  0.8330  0.5174
15800TIP3    H268816   3.917   1.773  14.231  0.9161  0.8076 -1.0074
15801TIP3   OH268817   4.232   1.862  12.839  0.5378 -0.0098 -0.2060
15801TIP3    H168818   4.154   1.910  12.810 -1.0756 -0.6483  2.8511
15801TIP3    H268819   4.297   1.929  12.855  0.1560  0.6554 -1.3642
15802TIP3   OH268820   0.173   1.491  17.116  0.3426 -0.2133 -0.5838
15802TIP3    H168821   0.236   1.541  17.064  0.7096 -1.6797 -1.6093
15802TIP3    H268822   0.134   1.430  17.053 -1.9563  0.5157  0.0836
15803TIP3   OH268823   5.714   2.366  15.196 -0.2981 -0.2060 -0.0393
15803TIP3    H168824   5.773   2.401  15.128  0.5383  1.4430  1.4874
15803TIP3    H268825   5.758   2.287  15.227 -0.0394 -0.2510 -0.5135
15804TIP3   OH268826   3.698   1.999   3.641  0.1869 -0.3198  0.1543
15804TIP3    H168827   3.683   1.946   3.563 -0.6631 -0.2963  0.2981
15804TIP3    H268828   3.634   2.070   3.634  1.1228  0.5369  0.1047
15805TIP3   OH268829   2.720   2.672  11.629  0.7038  0.3714 -0.2117
15805TIP3    H168830   2.800   2.717  11.656  0.7565  0.6572 -0.8304
15805TIP3    H268831   2.747   2.617  11.555  0.3386  0.4420 -0.3990
15806TIP3   OH268832   1.045   1.597  12.568 -0.4923 -0.1371  0.7007
15806TIP3    H168833   1.070   1.515  12.611 -1.4644 -0.5336  0.5200
15806TIP3    H268834   1.128   1.633  12.536 -0.1070 -1.2926  0.3536
15807TIP3   OH268835   5.494   0.659   1.418  0.1751 -0.2319  0.4357
15807TIP3    H168836   5.437   0.688   1.346 -0.1347 -0.5752  0.5411
15807TIP3    H268837   5.559   0.728   1.426  0.7664 -0.6210 -0.7989
15808TIP3   OH268838   2.244   3.416   0.164  0.4880 -0.4220 -0.0517
15808TIP3    H168839   2.305   3.424   0.090  0.5822 -0.4429  0.0241
15808TIP3    H268840   2.217   3.324   0.162 -0.9579  0.0083 -1.2163
15809TIP3   OH268841   4.275   4.953   2.941  0.2805 -0.2119  0.4562
15809TIP3    H168842   4.286   5.014   2.867  0.1866 -0.6650  0.0688
15809TIP3    H268843   4.303   5.004   3.017 -1.2802  0.8622  0.3575
15810TIP3   OH268844   4.338   3.043  15.239 -0.4234  0.3386 -0.0252
15810TIP3    H168845   4.358   3.010  15.327 -0.6568 -1.5461 -0.6459
15810TIP3    H268846   4.401   2.999  15.182 -0.6839  1.0570 -0.8842
15811TIP3   OH268847   1.782   2.932   4.314  0.2637 -0.0105  0.3666
15811TIP3    H168848   1.798   2.957   4.406 -0.8547 -1.9765  1.1170
15811TIP3    H268849   1.695   2.966   4.296  1.4227  2.5040 -0.7795
15812TIP3   OH268850   5.427   0.162  13.066 -0.0727 -0.6108 -0.3048
15812TIP3    H168851   5.492   0.166  13.136 -0.5037 -1.3215  0.1375
15812TIP3    H268852   5.477   0.179  12.986  0.5848 -0.7349  0.0774
15813TIP3   OH268853   1.311   4.861  12.646  0.5610 -0.5416 -0.3286
15813TIP3    H168854   1.223   4.844  12.680  0.6990 -0.5772  0.0081
15813TIP3    H268855   1.370   4.824  12.711  0.8665  1.4473  0.5596
15814TIP3   OH268856   5.368   6.025   5.441 -0.0357 -0.4816  0.5381
15814TIP3    H168857   5.349   6.117   5.460  0.7930  0.0647 -1.1439
15814TIP3    H268858   5.283   5.982   5.440 -0.4293  0.2674  1.3613
15815TIP3   OH268859   2.353   2.461  14.976 -0.2793  0.0081 -0.2303
15815TIP3    H168860   2.448   2.475  14.982 -0.4533  0.7882  0.8211
15815TIP3    H268861   2.319   2.539  14.933 -0.3270 -0.8063 -1.7381
15816TIP3   OH268862   6.104   5.744   3.549 -0.4760  0.5411  0.5523
15816TIP3    H168863   6.115   5.719   3.458  0.2677  0.9515  0.5224
15816TIP3    H268864   6.070   5.833   3.547 -2.7468 -0.2962  0.6650
15817TIP3   OH268865   2.258   1.165   5.597 -0.1437  0.1448 -0.1992
15817TIP3    H168866   2.222   1.228   5.659  1.2649 -1.1979  2.0844
15817TIP3    H268867   2.222   1.081   5.625  1.9378 -0.7313 -0.0616
15818TIP3   OH268868   0.385   4.887  16.952 -0.0595 -0.3807  0.5049
15818TIP3    H168869   0.414   4.866  16.864 -1.9780  0.7074 -0.4123
15818TIP3    H268870   0.302   4.841  16.962  1.1959 -2.3222  2.5922
15819TIP3   OH268871   1.790   0.813   5.512 -0.4847 -0.1447  0.6638
15819TIP3    H168872   1.874   0.794   5.472  0.0082  1.1448  1.0489
15819TIP3    H268873   1.810   0.878   5.580 -1.5269 -1.1108  1.9374
15820TIP3   OH268874   3.002   1.718   4.501  0.4640 -0.0833  0.4758
15820TIP3    H168875   3.087   1.762   4.496 -0.0447  0.8236 -0.4224
15820TIP3    H268876   3.010   1.642   4.444  0.6180  0.1155  0.2298
15821TIP3   OH268877   1.368   5.776  11.940 -0.0157  0.6646 -0.1962
15821TIP3    H168878   1.357   5.800  11.847 -2.7226 -0.8583 -0.3184
15821TIP3    H268879   1.457   5.805  11.961  1.8495 -1.7560 -4.1225
15822TIP3   OH268880   0.227   1.431  16.783 -0.5677 -0.4296  0.1823
15822TIP3    H168881   0.300   1.432  16.720 -0.0554  0.1115  0.7744
15822TIP3    H268882   0.236   1.513  16.831 -1.0275 -0.7853  0.8828
15823TIP3   OH268883   4.836   3.776  12.120 -0.4167  0.1183  0.1204
15823TIP3    H168884   4.764   3.713  12.117  0.4230 -1.0245  2.9513
15823TIP3    H268885   4.794   3.861  12.109 -2.4514 -0.4005  3.2680
15824TIP3   OH268886   5.104   0.440   3.154  0.0857 -0.0196  0.2293
15824TIP3    H168887   5.166   0.445   3.082 -0.9644 -0.8192 -0.7380
15824TIP3    H268888   5.158   0.454   3.232  1.6983 -1.8554 -0.5032
15825TIP3   OH268889   2.673   4.016  14.196  0.0682  0.3166  0.3223
15825TIP3    H168890   2.634   4.005  14.283 -1.3231  1.2374 -0.1775
15825TIP3    H268891   2.729   4.093  14.205  0.9251 -0.3392  0.7315
15826TIP3   OH268892   5.634   2.043   2.014  0.2035  0.6680 -1.1421
15826TIP3    H168893   5.667   1.965   1.970  2.0404  2.1067 -2.4181
15826TIP3    H268894   5.541   2.043   1.996  0.0601 -1.5494 -0.5810
15827TIP3   OH268895   6.473   4.966  14.271  0.2518  0.3807  0.4785
15827TIP3    H168896   6.386   4.973  14.311  0.1605 -0.0059  0.3467
15827TIP3    H268897   6.511   4.887  14.311 -0.2824 -0.6827 -1.0418
15828TIP3   OH268898   6.696   6.469  11.394  0.2039  0.4467  1.0412
15828TIP3    H168899   6.767   6.415  11.430 -0.2595 -0.6084  0.3970
15828TIP3    H268900   6.620   6.412  11.393 -0.2715  1.0781  0.2350
15829TIP3   OH268901   2.504   5.950   1.891  0.7902  0.2247  0.2571
15829TIP3    H168902   2.421   5.994   1.871  1.8607  1.4963 -1.4742
15829TIP3    H268903   2.480   5.858   1.902 -1.0463  0.7814  1.0987
15830TIP3   OH268904   0.361   1.122  16.800  0.1782  0.1009 -0.3367
15830TIP3    H168905   0.352   1.077  16.715  0.9042  0.1551 -0.4421
15830TIP3    H268906   0.416   1.198  16.781 -0.4363  0.6352 -0.0018
15831TIP3   OH268907   6.541   5.592   4.979 -0.0339 -1.0317  0.6140
15831TIP3    H168908   6.590   5.510   4.980  1.6557 -0.0633 -0.7231
15831TIP3    H268909   6.581   5.645   5.048  0.1545 -0.5965  0.1703
15832TIP3   OH268910   5.398   4.597  14.354  0.2311  0.4409  0.0279
15832TIP3    H168911   5.450   4.582  14.432 -0.9134 -1.2919  0.4838
15832TIP3    H268912   5.460   4.591  14.281  1.3757  2.5005  0.7993
15833TIP3   OH268913   6.635   1.049   3.930 -0.1292 -0.1103  0.3140
15833TIP3    H168914   6.574   1.002   3.987  0.2683  1.5390  2.1388
15833TIP3    H268915   6.707   1.075   3.987 -0.2432  2.5450 -0.7057
15834TIP3   OH268916   6.285   2.197   1.255 -0.0980 -0.0580  0.1980
15834TIP3    H168917   6.285   2.269   1.191  1.7334 -0.3011 -0.1163
15834TIP3    H268918   6.209   2.145   1.233 -1.1933  1.5200  0.1271
15835TIP3   OH268919   1.529   6.640   3.256 -0.2469 -1.0898  0.0704
15835TIP3    H168920   1.575   6.720   3.277  2.7515 -3.1679  1.7269
15835TIP3    H268921   1.474   6.622   3.333 -0.9642 -0.6256 -0.3253
15836TIP3   OH268922   4.544   2.420  12.550  0.4042 -0.1329 -0.5194
15836TIP3    H168923   4.573   2.349  12.607  1.2906 -0.2453 -1.0980
15836TIP3    H268924   4.553   2.384  12.461 -1.8308 -0.3009 -0.7254
15837TIP3   OH268925   2.207   0.671   1.313  0.3947  0.1598 -0.4193
15837TIP3    H168926   2.134   0.661   1.374  0.4953 -1.0597 -0.4975
15837TIP3    H268927   2.177   0.629   1.233  0.7482  0.6657 -0.8182
15838TIP3   OH268928   2.608   4.296  16.571 -0.4408  0.1373  0.3447
15838TIP3    H168929   2.664   4.365  16.607 -2.2836  1.4759  0.7330
15838TIP3    H268930   2.580   4.329  16.486 -0.6490 -0.5118  0.1608
15839TIP3   OH268931   4.637   1.275  16.676 -0.1831  0.4529  0.2292
15839TIP3    H168932   4.580   1.351  16.668 -0.0169  0.6720  1.0323
15839TIP3    H268933   4.717   1.309  16.715 -0.1705 -0.1584  0.7490
15840TIP3   OH268934   0.654   3.973   0.121 -0.3133  0.1486  0.1404
15840TIP3    H168935   0.736   3.939   0.157 -0.7404 -0.0017  1.0062
15840TIP3    H268936   0.586   3.936   0.178 -0.8341  2.0254  0.7675
15841TIP3   OH268937   1.236   3.022   4.655  0.1898  0.0355 -0.3798
15841TIP3    H168938   1.230   2.940   4.704 -0.9395 -0.8526 -1.9568
15841TIP3    H268939   1.268   3.086   4.718  0.5548 -1.5062  1.0101
15842TIP3   OH268940   5.691   4.803  13.391 -0.0123 -0.1419 -0.6990
15842TIP3    H168941   5.637   4.755  13.454  1.2468 -1.4660 -0.6116
15842TIP3    H268942   5.700   4.744  13.317  0.1432  0.6426 -1.3180
15843TIP3   OH268943   4.891   6.631   3.406 -0.8838  0.4066 -0.4699
15843TIP3    H168944   4.869   6.547   3.446  1.5394  0.5818  1.3090
15843TIP3    H268945   4.850   6.696   3.463 -1.1697  0.5136 -0.7938
15844TIP3   OH268946   1.041   0.442  15.464 -0.3509 -0.0361  0.1691
15844TIP3    H168947   1.060   0.411  15.375 -0.1349 -0.5889  0.4076
15844TIP3    H268948   1.092   0.523  15.473  0.3910 -0.5021  0.1345
15845TIP3   OH268949   5.283   0.074  11.753  0.0946 -0.4793 -0.1382
15845TIP3    H168950   5.225   0.026  11.694  0.3900 -1.0362  0.0277
15845TIP3    H268951   5.357   0.099  11.698  0.0891 -0.4840 -0.1481
15846TIP3   OH268952   1.207   5.414   4.933  0.1170 -0.1097  0.3378
15846TIP3    H168953   1.207   5.325   4.967 -0.6378  0.7428  2.7137
15846TIP3    H268954   1.114   5.440   4.935  0.3747  0.8599  0.0735
15847TIP3   OH268955   6.688   4.601  14.098  0.2487  0.2070 -0.0473
15847TIP3    H168956   6.744   4.658  14.151  0.2961  0.8974 -0.8207
15847TIP3    H268957   6.729   4.515  14.104  1.5252  0.7451 -0.7639
15848TIP3   OH268958   5.353   1.311   2.152 -0.3085 -0.3406  0.3570
15848TIP3    H168959   5.425   1.332   2.092  2.5751 -1.4978  3.2484
15848TIP3    H268960   5.324   1.395   2.186  0.0736  0.0973 -0.4022
15849TIP3   OH268961   1.094   2.109  14.785  0.0462 -0.1983 -0.3470
15849TIP3    H168962   1.010   2.154  14.792 -0.3918 -1.1540  0.5703
15849TIP3    H268963   1.073   2.016  14.789  0.8122 -0.5664 -3.6501
15850TIP3   OH268964   1.561   3.049  15.523  0.1154  0.0734 -0.4053
15850TIP3    H168965   1.547   2.964  15.563 -0.1457  0.0323 -0.5805
15850TIP3    H268966   1.494   3.055  15.455 -0.7234  0.9630  0.4734
15851TIP3   OH268967   6.418   5.756   0.972 -0.1550 -0.2644 -0.6098
15851TIP3    H168968   6.328   5.764   1.003  0.6667  0.7034  1.6265
15851TIP3    H268969   6.449   5.846   0.966  2.0720 -0.7125  3.0321
15852TIP3   OH268970   3.881   5.512   5.691  0.2581 -0.1408  0.0808
15852TIP3    H168971   3.841   5.588   5.733  2.0437  1.3372 -0.8406
15852TIP3    H268972   3.835   5.437   5.730 -0.3884  1.3041  2.2205
15853TIP3   OH268973   5.833   3.401   5.792 -0.0318 -0.0496  0.0638
15853TIP3    H168974   5.828   3.366   5.881 -1.2074 -0.5344 -0.1815
15853TIP3    H268975   5.752   3.370   5.749  1.0481 -0.7646 -1.5044
15854TIP3   OH268976   4.144   2.427   3.882  0.5029  0.9439 -0.0937
15854TIP3    H168977   4.211   2.481   3.840 -0.0014  0.7542 -1.1631
15854TIP3    H268978   4.155   2.443   3.976  2.0677  0.8762 -0.2654
15855TIP3   OH268979   3.283   0.951   1.667  0.0290  0.0196 -0.8575
15855TIP3    H168980   3.239   0.968   1.583  1.8550  0.8658 -1.6971
15855TIP3    H268981   3.372   0.925   1.642  0.5526  0.1293  0.8218
15856TIP3   OH268982   1.691   0.431   6.836  0.2651 -0.6057 -0.3190
15856TIP3    H168983   1.625   0.488   6.874  0.2871  0.1273 -1.3461
15856TIP3    H268984   1.642   0.366   6.786  0.2532 -1.2681  0.5515
15857TIP3   OH268985   4.807   3.265   0.979 -0.2048  0.0836 -0.2145
15857TIP3    H168986   4.866   3.232   1.047 -0.0666  0.9704  0.1144
15857TIP3    H268987   4.722   3.229   1.001  0.1980 -1.1492 -0.6446
15858TIP3   OH268988   6.207   4.977  11.725  0.2114  0.0615  0.1505
15858TIP3    H168989   6.257   4.911  11.773 -0.2293  3.6064  6.0285
15858TIP3    H268990   6.266   5.052  11.719 -0.9584  0.8566 -1.9206
15859TIP3   OH268991   4.969   4.948   2.992 -0.6228  0.1316  0.2472
15859TIP3    H168992   4.989   5.030   2.946 -1.2150  1.0175  1.5284
15859TIP3    H268993   4.975   4.880   2.925  1.8965  0.9575 -0.4121
15860TIP3   OH268994   2.298   2.614   3.888 -0.6206 -0.0487 -0.5951
15860TIP3    H168995   2.360   2.552   3.926  1.0135  1.8280 -0.0726
15860TIP3    H268996   2.271   2.574   3.806  0.3522 -1.4752 -0.2426
15861TIP3   OH268997   5.586   0.301   3.312  0.5364  0.0609 -0.0710
15861TIP3    H168998   5.535   0.295   3.231  1.1884 -0.3881 -0.4573
15861TIP3    H268999   5.577   0.392   3.340 -1.3926 -0.2701  0.4683
15862TIP3   OH269000   3.657   4.601   1.947 -0.0996 -0.6518 -0.8460
15862TIP3    H169001   3.703   4.551   2.015 -0.7185  0.6846  0.5855
15862TIP3    H269002   3.705   4.582   1.867  0.7717 -2.1060  0.0001
15863TIP3   OH269003   4.325   5.173   0.123  0.1061  0.3627 -0.2290
15863TIP3    H169004   4.379   5.112   0.072  0.2243  1.6492 -1.6890
15863TIP3    H269005   4.363   5.173   0.210  1.4943  0.0660 -0.8243
15864TIP3   OH269006   4.541   5.654   3.272 -0.7646  0.2456 -0.1724
15864TIP3    H169007   4.488   5.598   3.328  0.2150 -0.4109  0.1141
15864TIP3    H269008   4.630   5.645   3.307 -0.2953  0.5312 -1.2797
15865TIP3   OH269009   5.843   1.185   4.896  0.1713 -0.2533 -0.1231
15865TIP3    H169010   5.771   1.139   4.853  1.2060 -1.1258 -0.9565
15865TIP3    H269011   5.915   1.121   4.898  0.7182  0.3792  1.2848
15866TIP3   OH269012   0.936   6.760  15.024  0.1660  0.0616  0.5400
15866TIP3    H169013   0.993   6.826  15.063 -0.9251  0.2402  1.8347
15866TIP3    H269014   0.849   6.781  15.056 -0.3216 -1.4529  0.2299
15867TIP3   OH269015   6.324   6.258   2.115  0.2541  0.2359 -0.5032
15867TIP3    H169016   6.362   6.300   2.192 -1.1815  1.0950 -0.2489
15867TIP3    H269017   6.326   6.164   2.136 -0.8464  0.5179  0.9221
15868TIP3   OH269018   0.928   2.445   5.499 -0.4596 -0.1215 -0.1447
15868TIP3    H169019   0.872   2.454   5.421 -1.9744 -2.3831  0.6520
15868TIP3    H269020   1.017   2.442   5.464 -1.0232  0.4218 -1.6690
15869TIP3   OH269021   0.598   2.019   0.612  0.5919 -0.3084  0.2343
15869TIP3    H169022   0.643   1.934   0.611  0.2770 -0.4668 -0.4234
15869TIP3    H269023   0.615   2.057   0.526 -1.1377 -0.6855 -0.2982
15870TIP3   OH269024   1.755   0.314  10.925  0.0766 -0.0155  0.3365
15870TIP3    H169025   1.664   0.344  10.924  0.7158  2.0152  1.3622
15870TIP3    H269026   1.756   0.245  10.991 -0.7056 -0.0686  0.3056
15871TIP3   OH269027   0.286   5.979   0.969  0.2617  0.0121  0.0767
15871TIP3    H169028   0.304   6.056   1.023  2.1091  0.5360 -1.2830
15871TIP3    H269029   0.191   5.967   0.977  0.2110  1.2974  1.7860
15872TIP3   OH269030   4.925   3.404   3.251 -0.2873  0.2197  0.4337
15872TIP3    H169031   4.903   3.487   3.208  1.4689  1.5003  1.9306
15872TIP3    H269032   5.004   3.374   3.205  0.4900  0.6246  1.4978
15873TIP3   OH269033   1.383   0.195  15.857 -0.0225 -0.0870 -0.2851
15873TIP3    H169034   1.386   0.134  15.931 -1.3693  0.3800  0.1636
15873TIP3    H269035   1.299   0.178  15.815 -1.0712  2.4123  0.6896
15874TIP3   OH269036   6.664   4.137  15.324 -0.4403  0.3457  0.2108
15874TIP3    H169037   6.604   4.063  15.316  0.0297 -0.0155  0.0448
15874TIP3    H269038   6.621   4.195  15.388 -0.0904 -0.7799  1.5010
15875TIP3   OH269039   6.300   0.251   5.250 -0.2228 -0.6506 -0.9574
15875TIP3    H169040   6.309   0.236   5.156 -0.9742 -2.4317 -0.7597
15875TIP3    H269041   6.235   0.186   5.279 -0.7498  0.5521  0.6121
15876TIP3   OH269042   1.073   0.517   2.855 -0.0260 -0.0579  0.1312
15876TIP3    H169043   1.142   0.556   2.802 -0.7011 -0.3036 -0.9347
15876TIP3    H269044   1.102   0.530   2.945  0.5268  1.4665 -0.2574
15877TIP3   OH269045   0.007   6.548   0.991  0.4728  0.5829 -0.5823
15877TIP3    H169046   0.052   6.531   1.074  0.8706  0.0631 -0.8976
15877TIP3    H269047   0.047   6.486   0.929 -0.3560  0.4298 -0.9747
15878TIP3   OH269048   2.646   5.160   1.568 -0.2615  0.0585  0.3693
15878TIP3    H169049   2.582   5.209   1.620 -0.4265 -0.2881  0.4898
15878TIP3    H269050   2.598   5.136   1.489 -0.2597 -0.1464  0.4315
15879TIP3   OH269051   2.185   1.031   0.671  0.1220 -0.0655 -0.1459
15879TIP3    H169052   2.221   1.031   0.583 -1.4655  0.3850 -0.8092
15879TIP3    H269053   2.110   0.973   0.667  0.6017 -0.8049  1.1603
15880TIP3   OH269054   1.409   1.965  13.266 -0.1255 -0.4082 -0.2416
15880TIP3    H169055   1.401   1.992  13.358 -3.1647  0.7380 -0.7744
15880TIP3    H269056   1.399   1.870  13.268 -0.0178 -0.4056  0.6351
15881TIP3   OH269057   1.885   3.450   2.260 -0.2357 -0.1592  0.0105
15881TIP3    H169058   1.851   3.376   2.209 -0.0919 -1.8613  2.3029
15881TIP3    H269059   1.832   3.525   2.232 -1.7188 -1.5375 -0.9330
15882TIP3   OH269060   0.947   2.220  11.992 -0.4067 -0.0949  0.5812
15882TIP3    H169061   0.993   2.138  12.012 -0.0178 -0.2018 -0.6692
15882TIP3    H269062   0.859   2.207  12.026 -1.0219 -1.9603 -1.5660
15883TIP3   OH269063   0.278   4.524   0.898 -0.0095  0.7058  0.3604
15883TIP3    H169064   0.363   4.543   0.859 -0.3076  0.6288 -0.3545
15883TIP3    H269065   0.234   4.469   0.832 -1.0797  1.7795  0.1596
15884TIP3   OH269066   3.202   6.118  14.878  0.1052 -0.0682  0.4422
15884TIP3    H169067   3.230   6.057  14.810 -0.1865  1.0743 -0.7174
15884TIP3    H269068   3.174   6.062  14.950  1.1402 -1.2800 -0.0782
15885TIP3   OH269069   1.680   4.874   4.123  0.9073 -0.3210  0.7569
15885TIP3    H169070   1.640   4.797   4.163  0.7954 -0.3475  0.5956
15885TIP3    H269071   1.646   4.947   4.174 -0.7711 -0.1899 -0.4845
15886TIP3   OH269072   0.348   4.735   4.842  0.7103  0.4491 -0.6451
15886TIP3    H169073   0.412   4.732   4.914 -1.3787 -1.9717  1.1900
15886TIP3    H269074   0.265   4.755   4.885 -0.1366  1.6121 -2.7628
15887TIP3   OH269075   0.132   2.760   3.344  0.4930  0.5084  0.3651
15887TIP3    H169076   0.076   2.743   3.269 -1.5441 -0.7649  2.0851
15887TIP3    H269077   0.211   2.709   3.328  0.7350  1.4821 -1.6085
15888TIP3   OH269078   5.925   2.446   2.556 -0.0158 -0.2417  0.3152
15888TIP3    H169079   6.008   2.471   2.514 -0.1722 -0.2588 -0.0098
15888TIP3    H269080   5.869   2.421   2.482 -0.9663  1.6319  0.3850
15889TIP3   OH269081   3.510   2.429  16.919  0.3902 -0.3693  0.1430
15889TIP3    H169082   3.557   2.509  16.944  1.1707 -0.8454  0.1951
15889TIP3    H269083   3.459   2.455  16.842  1.2905 -0.0331 -0.3553
15890TIP3   OH269084   2.939   5.892   3.652 -0.3982 -0.4415  0.1122
15890TIP3    H169085   2.913   5.816   3.600 -1.8281  0.5371 -0.6530
15890TIP3    H269086   3.003   5.938   3.597  0.0279 -0.7723  0.3275
15891TIP3   OH269087   2.121   0.627   1.958 -0.0845  0.1660  0.4485
15891TIP3    H169088   2.130   0.711   1.913 -0.2075 -0.2560 -0.3741
15891TIP3    H269089   2.199   0.577   1.932 -0.1115 -0.0550  0.7741
15892TIP3   OH269090   4.233   5.570   5.228 -0.5326  0.2933  0.1566
15892TIP3    H169091   4.260   5.481   5.204  1.3661  0.7065  0.6312
15892TIP3    H269092   4.285   5.627   5.170 -0.5013  1.1254  0.9921
15893TIP3   OH269093   4.367   5.411   1.207  0.0215  0.2201  0.0044
15893TIP3    H169094   4.450   5.460   1.200  0.1936 -0.3221 -2.2856
15893TIP3    H269095   4.304   5.464   1.158 -0.8632  0.3312  1.2404
15894TIP3   OH269096   3.641   6.272  16.172 -0.3945  0.0821 -0.5154
15894TIP3    H169097   3.561   6.324  16.156  0.3175  1.1006 -0.8020
15894TIP3    H269098   3.654   6.223  16.091 -0.0978  0.7752 -0.8918
15895TIP3   OH269099   1.284   6.016   4.377  0.3507 -0.7201 -0.2904
15895TIP3    H169100   1.297   5.986   4.467  0.7056 -0.6565 -0.3217
15895TIP3    H269101   1.358   5.979   4.328  0.7679  0.1819 -0.3405
15896TIP3   OH269102   5.195   6.593   1.922 -0.2911 -0.3279 -0.2708
15896TIP3    H169103   5.284   6.569   1.896 -0.0660  1.1460 -0.9144
15896TIP3    H269104   5.204   6.679   1.962 -1.7215  0.8190 -2.3277
15897TIP3   OH269105   3.548   1.110   5.623  0.0375 -0.0681 -0.2418
15897TIP3    H169106   3.483   1.173   5.655  0.8230  0.3472  0.5978
15897TIP3    H269107   3.540   1.035   5.682 -0.5412 -0.5443 -0.9208
15898TIP3   OH269108   3.549   1.331  16.370 -0.0820  0.3535  0.4614
15898TIP3    H169109   3.539   1.275  16.448  0.6170 -0.0489  0.2694
15898TIP3    H269110   3.499   1.286  16.302 -0.9077  0.8399  0.7423
15899TIP3   OH269111   0.180   0.503  15.153 -0.4486 -0.0809  0.0352
15899TIP3    H169112   0.116   0.509  15.223  1.4605  1.0043  1.7272
15899TIP3    H269113   0.128   0.503  15.073 -2.7042 -2.2585  1.4533
15900TIP3   OH269114   1.068   2.602   4.392 -0.1239  1.0161 -0.3956
15900TIP3    H169115   0.986   2.618   4.439 -0.7948 -3.2391  0.0920
15900TIP3    H269116   1.135   2.598   4.461 -0.2975 -0.1986 -0.2854
15901TIP3   OH269117   2.049   6.717   4.985  0.1009  0.0465  0.1105
15901TIP3    H169118   1.987   6.653   4.950 -0.7314  0.5184  0.6980
15901TIP3    H269119   2.135   6.684   4.958 -0.4878  0.2722 -2.1523
15902TIP3   OH269120   6.776   0.156  11.892 -0.0543  0.0780  0.3294
15902TIP3    H169121   6.861   0.198  11.885 -0.1480  0.4445  1.2543
15902TIP3    H269122   6.718   0.207  11.835  0.6458 -1.0131 -1.3932
15903TIP3   OH269123   2.292   2.176  16.345 -0.3101 -0.0362 -0.2445
15903TIP3    H169124   2.246   2.134  16.418  2.0626  0.0765  1.3779
15903TIP3    H269125   2.226   2.231  16.303 -1.9396 -0.7796  1.3062
15904TIP3   OH269126   1.792   3.631  13.807  0.2830  0.0101  0.1663
15904TIP3    H169127   1.878   3.623  13.766 -0.2228  0.1965 -0.9472
15904TIP3    H269128   1.731   3.597  13.741 -0.3641 -1.5442  1.5282
15905TIP3   OH269129   2.978   6.313   3.370 -0.5863  0.3780 -0.0901
15905TIP3    H169130   2.967   6.281   3.459  0.1923  0.4040  0.0185
15905TIP3    H269131   2.899   6.365   3.353 -1.9266 -1.6543 -0.2976
15906TIP3   OH269132   2.316   2.625   4.357 -0.3264 -0.0849  0.2336
15906TIP3    H169133   2.404   2.622   4.397 -0.4655 -0.3577  0.5225
15906TIP3    H269134   2.306   2.540   4.314 -0.8721 -0.4707  1.1124
15907TIP3   OH269135   0.857   2.519   1.276  0.0110  0.1374 -0.1960
15907TIP3    H169136   0.764   2.500   1.264 -0.3647  1.8151 -0.0945
15907TIP3    H269137   0.880   2.573   1.200 -0.0238  2.7551  1.5790
15908TIP3   OH269138   0.947   4.939  12.049 -0.3358  0.3445 -0.1393
15908TIP3    H169139   0.918   4.933  12.140 -1.0525 -1.1274 -0.4495
15908TIP3    H269140   1.043   4.945  12.055 -0.4800  2.1154  0.7654
15909TIP3   OH269141   1.817   2.041   1.934  0.2879  0.1917 -0.2818
15909TIP3    H169142   1.905   2.011   1.910  0.6235  0.2262  0.8696
15909TIP3    H269143   1.765   2.027   1.855  1.1435 -0.5631 -0.7266
15910TIP3   OH269144   0.198   0.468  15.720  0.1137  0.3991  0.0766
15910TIP3    H169145   0.126   0.502  15.774  0.5808  1.0737  0.2734
15910TIP3    H269146   0.192   0.519  15.639  0.5840  0.6958  0.2302
15911TIP3   OH269147   0.325   3.102  12.678  0.0487 -0.2213 -0.1390
15911TIP3    H169148   0.368   3.165  12.620  1.2730 -1.7694 -0.9784
15911TIP3    H269149   0.393   3.037  12.695 -1.1617 -1.2483  0.7844
15912TIP3   OH269150   1.693   1.957  11.520  0.2155 -0.0697 -0.5734
15912TIP3    H169151   1.636   1.942  11.445  1.0532  0.1596 -1.2546
15912TIP3    H269152   1.650   1.910  11.592 -0.9722  0.3255 -1.0108
15913TIP3   OH269153   6.342   0.952  14.110  0.2748 -0.2324  0.3788
15913TIP3    H169154   6.340   0.977  14.202 -0.1068  0.9467  0.0567
15913TIP3    H269155   6.301   0.866  14.107 -0.7317  0.2063  1.1735
15914TIP3   OH269156   0.552   2.290   6.219 -0.0440  0.6068 -0.2505
15914TIP3    H169157   0.630   2.239   6.201  0.0112  1.1812 -1.7067
15914TIP3    H269158   0.584   2.371   6.258  0.0663  0.7452 -0.6321
15915TIP3   OH269159   3.366   5.275  13.377 -0.0139 -0.1000 -0.3846
15915TIP3    H169160   3.304   5.339  13.343 -0.9798 -0.9548 -0.2393
15915TIP3    H269161   3.435   5.270  13.311  0.2232  1.2924 -0.2681
15916TIP3   OH269162   2.249   5.969   4.992  0.5576 -0.1205 -0.3124
15916TIP3    H169163   2.200   5.906   5.044 -3.0439  2.1464 -0.8416
15916TIP3    H269164   2.326   5.920   4.963 -2.1414 -4.3619 -0.7973
15917TIP3   OH269165   2.579   0.526  11.347 -0.2074  0.1128  0.7587
15917TIP3    H169166   2.556   0.609  11.388  1.3898  0.4397  1.0297
15917TIP3    H269167   2.498   0.475  11.347 -1.3480  1.8829  0.0639
15918TIP3   OH269168   4.564   3.168  15.832 -0.1164  0.1961  0.5660
15918TIP3    H169169   4.499   3.105  15.801 -0.0941 -0.3306  1.5636
15918TIP3    H269170   4.521   3.253  15.824 -0.9819 -0.1626  1.3311
15919TIP3   OH269171   3.474   2.735   3.744 -0.3670  0.4102  0.6084
15919TIP3    H169172   3.518   2.654   3.767 -3.4064 -1.5213 -0.0837
15919TIP3    H269173   3.422   2.757   3.822 -0.8333  0.7744  0.2023
15920TIP3   OH269174   3.866   4.782  13.724 -0.7671  0.4501 -0.2831
15920TIP3    H169175   3.861   4.871  13.759 -2.8134 -0.0720  0.8417
15920TIP3    H269176   3.829   4.727  13.794  1.2653 -1.3892 -0.6037
15921TIP3   OH269177   3.050   2.830  14.006 -0.3272 -0.0140  0.8512
15921TIP3    H169178   3.126   2.886  13.997  1.9432 -2.7681  2.1609
15921TIP3    H269179   2.980   2.888  14.037  1.0709  2.6218 -0.8012
15922TIP3   OH269180   1.726   0.875   4.942  0.1947  0.0548  0.4600
15922TIP3    H169181   1.651   0.932   4.927  0.4400  0.1521 -0.4108
15922TIP3    H269182   1.691   0.803   4.994 -0.3427  0.4668  0.6724
15923TIP3   OH269183   2.418   0.324   2.324 -0.2131  0.0481 -0.0319
15923TIP3    H169184   2.359   0.316   2.249  1.1918 -1.5147 -0.9873
15923TIP3    H269185   2.428   0.234   2.357  0.1109  0.5607  1.3178
15924TIP3   OH269186   4.966   1.967  10.550 -0.5444 -0.3863  0.3851
15924TIP3    H169187   4.885   1.920  10.572 -0.8702  0.6576  1.4746
15924TIP3    H269188   4.987   2.016  10.630  0.4736  0.3300 -0.3190
15925TIP3   OH269189   0.125   2.276  14.150  0.2130 -0.1988  0.2650
15925TIP3    H169190   0.097   2.339  14.084  0.6162 -1.0512 -0.7392
15925TIP3    H269191   0.094   2.192  14.118  0.1363 -0.5926  1.3323
15926TIP3   OH269192   0.536   5.083   5.389  0.1580 -0.1638 -0.1597
15926TIP3    H169193   0.604   5.093   5.455 -0.9651 -0.8179  1.1220
15926TIP3    H269194   0.571   5.018   5.327  1.0386  0.1386  0.0201
15927TIP3   OH269195   4.307   0.511  16.653  0.7735 -0.3489 -0.1468
15927TIP3    H169196   4.298   0.473  16.566 -0.4629 -0.5728  0.0722
15927TIP3    H269197   4.396   0.548  16.654  0.0311  1.6065 -2.2603
15928TIP3   OH269198   6.757   6.726  13.491  0.7557 -0.3111 -0.5659
15928TIP3    H169199   6.722   6.637  13.487 -0.4108  0.0997  0.1211
15928TIP3    H269200   6.746   6.759  13.401  1.0219 -0.7906 -0.7778
15929TIP3   OH269201   4.771   4.716  10.979  0.5128 -0.8142  0.6937
15929TIP3    H169202   4.848   4.755  10.936  1.6748 -1.6715  1.9445
15929TIP3    H269203   4.709   4.701  10.908  2.2018 -1.7454 -0.6456
15930TIP3   OH269204   6.394   1.796   3.196 -0.3028  0.3791 -0.4198
15930TIP3    H169205   6.479   1.813   3.237 -0.0797 -0.1353 -0.6740
15930TIP3    H269206   6.415   1.776   3.105 -0.7180  0.4949 -0.5394
15931TIP3   OH269207   4.238   3.152  16.457  0.3356 -0.6946  0.3277
15931TIP3    H169208   4.310   3.176  16.399 -0.3230  0.5119 -0.0043
15931TIP3    H269209   4.280   3.130  16.540  1.2786 -2.2955 -0.5492
15932TIP3   OH269210   5.529   3.398   1.728  0.3705 -0.3595  0.0111
15932TIP3    H169211   5.481   3.328   1.684 -0.3343  0.4919 -0.6141
15932TIP3    H269212   5.618   3.365   1.737  1.1624  0.2858 -4.2009
15933TIP3   OH269213   0.793   2.876   5.772 -0.0334 -0.1770  0.0774
15933TIP3    H169214   0.797   2.919   5.686  0.7176 -1.3526 -0.4793
15933TIP3    H269215   0.753   2.791   5.755  1.1983 -0.8965  0.6881
15934TIP3   OH269216   1.007   4.300   5.507  0.2607  0.5155 -0.4321
15934TIP3    H169217   1.092   4.339   5.525  0.4812 -0.6790  1.2710
15934TIP3    H269218   0.961   4.304   5.590  0.1813 -2.5134 -0.2687
15935TIP3   OH269219   4.825   2.856   0.239  0.7293 -0.0969  0.1368
15935TIP3    H169220   4.751   2.814   0.282  0.5958 -0.6463 -0.6165
15935TIP3    H269221   4.873   2.900   0.309 -1.3550  1.8682  0.3741
15936TIP3   OH269222   4.377   1.942   2.487 -0.7562  0.3433  0.4179
15936TIP3    H169223   4.310   1.906   2.545  0.7417 -1.4773  1.0483
15936TIP3    H269224   4.334   1.948   2.402 -2.2779  0.9265  1.2058
15937TIP3   OH269225   2.540   5.506   3.787  0.0183  0.0416  0.0757
15937TIP3    H169226   2.459   5.511   3.838 -0.0294 -1.3986  0.1718
15937TIP3    H269227   2.572   5.596   3.784 -1.2857  0.5419  0.5192
15938TIP3   OH269228   0.720   0.273  13.779  0.3675 -0.0254  0.4995
15938TIP3    H169229   0.660   0.301  13.711  1.5063  0.9050 -0.1358
15938TIP3    H269230   0.799   0.246  13.732  1.0489  0.3143  1.4304
15939TIP3   OH269231   4.333   2.760  13.645 -0.1580  0.5027 -0.0468
15939TIP3    H169232   4.288   2.815  13.580 -1.8760 -1.9663 -1.0094
15939TIP3    H269233   4.306   2.797  13.729 -0.1674  2.0039 -0.6830
15940TIP3   OH269234   6.343   6.599   4.391 -0.3431  0.0660 -0.5617
15940TIP3    H169235   6.346   6.693   4.374  1.1754 -0.0622 -1.1168
15940TIP3    H269236   6.348   6.592   4.486 -1.0358  0.5594 -0.4851
15941TIP3   OH269237   5.009   3.398  13.991 -0.0183  0.0208 -0.0232
15941TIP3    H169238   5.023   3.439  14.077 -3.2075  1.2267  0.0166
15941TIP3    H269239   4.951   3.323  14.010 -1.1931  0.6190 -1.1486
15942TIP3   OH269240   3.260   3.683   1.906 -0.4551  0.2561  0.2020
15942TIP3    H169241   3.181   3.735   1.920 -0.3765  0.6802 -0.8939
15942TIP3    H269242   3.267   3.676   1.811  1.9152  1.8884  0.2182
15943TIP3   OH269243   5.209   1.801  14.451  0.1348 -0.4696 -0.7458
15943TIP3    H169244   5.179   1.763  14.533 -0.6774  0.6973 -0.4930
15943TIP3    H269245   5.139   1.781  14.389 -1.0388  1.9310 -0.2425
15944TIP3   OH269246   2.638   0.667   2.557 -0.4253 -0.5052 -0.4416
15944TIP3    H169247   2.620   0.616   2.478 -1.7397 -0.4182 -0.2206
15944TIP3    H269248   2.552   0.699   2.585 -0.0335 -0.8294  1.2173
15945TIP3   OH269249   3.134   6.652  16.070 -0.0013 -0.3074  0.1029
15945TIP3    H169250   3.201   6.700  16.119  0.7833  1.1975 -2.3325
15945TIP3    H269251   3.175   6.567  16.052  0.3508 -0.2461  0.5732
15946TIP3   OH269252   5.051   2.108   0.475 -0.3581  0.1497 -0.3837
15946TIP3    H169253   5.133   2.156   0.479 -0.2441  0.1668 -2.2824
15946TIP3    H269254   5.076   2.016   0.484 -0.3440  0.2850  1.0073
15947TIP3   OH269255   5.526   4.075  12.140  0.3940  0.0202 -0.1952
15947TIP3    H169256   5.544   4.043  12.052  0.3620  0.4564 -0.3602
15947TIP3    H269257   5.531   4.170  12.133  2.0784  0.0054  0.6436
15948TIP3   OH269258   1.574   4.768   5.794 -0.2583 -0.1833  0.0717
15948TIP3    H169259   1.618   4.853   5.792 -0.1004 -0.2981 -2.0512
15948TIP3    H269260   1.582   4.739   5.885  1.5293  1.1115  0.3479
15949TIP3   OH269261   5.160   4.760  16.788 -0.2484  0.0517  0.5314
15949TIP3    H169262   5.227   4.824  16.809  0.3633 -0.5739  0.4785
15949TIP3    H269263   5.153   4.762  16.693 -1.7249  1.5572  0.6442
15950TIP3   OH269264   6.144   0.044  12.493  0.3859  0.0890  0.0316
15950TIP3    H169265   6.226   0.041  12.541  0.0535 -0.4779  0.5708
15950TIP3    H269266   6.127   0.137  12.479 -0.2054  0.3266  2.2019
15951TIP3   OH269267   2.288   3.854   1.205  0.1318 -0.3451  0.5439
15951TIP3    H169268   2.384   3.850   1.208  0.1344 -1.8342 -0.8527
15951TIP3    H269269   2.265   3.931   1.258  2.0761 -0.1399  1.1174
15952TIP3   OH269270   3.804   2.829  10.637  0.1112  0.2768 -0.4985
15952TIP3    H169271   3.795   2.918  10.603  2.1317  1.6000  2.2186
15952TIP3    H269272   3.848   2.780  10.567 -0.1204  1.6636 -1.6275
15953TIP3   OH269273   6.389   6.504  16.284  0.1575  0.5701  0.0922
15953TIP3    H169274   6.381   6.538  16.195 -1.4578  0.7493  0.2932
15953TIP3    H269275   6.300   6.479  16.308  0.7606 -0.5143  1.2553
15954TIP3   OH269276   2.644   2.935  14.603 -0.4384 -0.0205 -0.2809
15954TIP3    H169277   2.551   2.954  14.592 -0.4431  1.4198  1.9108
15954TIP3    H269278   2.689   3.012  14.569 -0.0104 -0.8040 -1.5375
15955TIP3   OH269279   4.971   5.603   5.056  0.0341 -0.2940 -0.3165
15955TIP3    H169280   4.952   5.511   5.074 -0.9720 -0.1667 -0.7088
15955TIP3    H269281   5.055   5.602   5.010  0.1879 -0.9864 -0.0287
15956TIP3   OH269282   0.366   3.980  16.936  0.4299  0.2323  0.0024
15956TIP3    H169283   0.322   3.967  17.020 -1.1956  0.5123 -0.7795
15956TIP3    H269284   0.321   3.922  16.876 -0.8144  2.6322 -1.4684
15957TIP3   OH269285   5.194   3.966   0.308 -0.1218  0.2053  0.7592
15957TIP3    H169286   5.229   4.030   0.371  1.3348 -0.5913  0.7811
15957TIP3    H269287   5.193   3.883   0.356  0.9575 -0.3992 -0.2424
15958TIP3   OH269288   4.150   4.183  11.942 -0.1278 -0.8095 -0.4004
15958TIP3    H169289   4.203   4.225  12.010  0.7466  0.7249 -2.0005
15958TIP3    H269290   4.172   4.090  11.949  2.9253 -0.1908 -1.1468
15959TIP3   OH269291   4.142   1.079  15.897  0.6841  0.1484 -0.3217
15959TIP3    H169292   4.136   1.093  15.992 -0.9314  0.3017 -0.4250
15959TIP3    H269293   4.172   1.163  15.863  1.9564 -0.1253  0.1190
15960TIP3   OH269294   3.122   4.127   4.948  0.2016 -0.4493 -0.1734
15960TIP3    H169295   3.209   4.092   4.927 -0.0131 -1.0653 -0.0344
15960TIP3    H269296   3.062   4.053   4.935 -0.4986  0.3742 -1.7109
15961TIP3   OH269297   4.399   3.897   3.521 -0.5355  0.3423  0.2915
15961TIP3    H169298   4.485   3.898   3.564  0.0946 -1.9322 -0.8131
15961TIP3    H269299   4.385   3.805   3.500 -1.8335  1.1115 -2.3740
15962TIP3   OH269300   5.870   5.002  13.415  0.4465  0.0878  0.2474
15962TIP3    H169301   5.894   5.006  13.508 -0.6368  0.7978  0.5067
15962TIP3    H269302   5.812   4.926  13.409  2.4376 -1.4329 -0.3182
15963TIP3   OH269303   2.754   5.752  13.572  0.4277  0.4445 -0.2922
15963TIP3    H169304   2.803   5.831  13.593  0.1240  0.8547 -1.1329
15963TIP3    H269305   2.683   5.781  13.515  0.7510 -0.5475 -1.2229
15964TIP3   OH269306   4.508   3.383  16.931  0.2751  0.2118 -0.5343
15964TIP3    H169307   4.539   3.366  17.021 -1.0692 -1.0463 -0.2802
15964TIP3    H269308   4.574   3.341  16.875  0.6701  0.2558 -0.1068
15965TIP3   OH269309   0.986   4.504  17.135 -0.0817  0.0006 -0.1039
15965TIP3    H169310   0.952   4.438  17.074 -1.9681  1.4683 -0.6783
15965TIP3    H269311   1.067   4.535  17.094 -0.9622  0.4681 -1.5014
15966TIP3   OH269312   6.225   0.365  12.132  0.2384  0.4981 -0.5588
15966TIP3    H169313   6.280   0.387  12.056  1.3937  1.4141  0.5020
15966TIP3    H269314   6.288   0.347  12.201 -0.8122 -0.1886  0.2234
15967TIP3   OH269315   6.607   2.837  12.173 -0.3400  0.7243 -0.1983
15967TIP3    H169316   6.562   2.917  12.143 -0.8511  0.3412 -0.4560
15967TIP3    H269317   6.654   2.806  12.096 -0.0803  0.8107 -0.0781
15968TIP3   OH269318   4.942   6.104  15.257  0.2473 -0.2117  0.0911
15968TIP3    H169319   4.901   6.186  15.284  0.0461 -0.1294 -0.4465
15968TIP3    H269320   5.034   6.114  15.280  0.3388  0.4111 -0.5157
15969TIP3   OH269321   1.525   3.817  13.864  0.2299  0.5195 -0.0506
15969TIP3    H169322   1.595   3.752  13.873  0.0763  0.2664 -0.6489
15969TIP3    H269323   1.498   3.811  13.772 -1.9010 -0.7473  0.6167
15970TIP3   OH269324   6.364   5.719   4.436 -0.0067 -0.6275 -0.2972
15970TIP3    H169325   6.404   5.779   4.374  1.8747 -0.0594  1.3822
15970TIP3    H269326   6.356   5.770   4.517 -2.6896 -1.2449 -0.1177
15971TIP3   OH269327   6.208   3.032   3.123  0.1438  0.4731  0.0978
15971TIP3    H169328   6.124   2.993   3.149  0.1242  1.2263  1.2419
15971TIP3    H269329   6.274   2.979   3.167  0.2690 -0.0723 -0.7422
15972TIP3   OH269330   6.624   4.901  14.046  0.4474 -0.6783 -0.1022
15972TIP3    H169331   6.620   4.806  14.061 -1.7650 -0.6604 -0.4428
15972TIP3    H269332   6.569   4.939  14.114  2.5966  0.5273  1.0371
15973TIP3   OH269333   1.634   0.149   5.268  0.3275  0.0685 -1.0891
15973TIP3    H169334   1.725   0.171   5.289  0.3793 -0.7594 -0.4142
15973TIP3    H269335   1.629   0.055   5.281 -0.9199  0.2790  0.0412
15974TIP3   OH269336   4.427   1.439  11.643 -0.8746 -0.2311  0.2334
15974TIP3    H169337   4.475   1.413  11.721 -0.3530  1.5688  0.5313
15974TIP3    H269338   4.377   1.361  11.618 -2.1661 -0.4220  3.1713
15975TIP3   OH269339   5.675   0.231  14.056  0.7280  0.0521  0.1452
15975TIP3    H169340   5.673   0.305  14.118  2.9708  1.1490 -1.0673
15975TIP3    H269341   5.671   0.154  14.112  2.1243  1.0337  1.6439
15976TIP3   OH269342   3.141   0.220  15.543 -0.2034 -0.0159  0.0330
15976TIP3    H169343   3.054   0.211  15.505  0.0241 -0.4680 -0.3875
15976TIP3    H269344   3.166   0.310  15.524 -0.2354 -0.1345 -0.5950
15977TIP3   OH269345   3.965   1.510   0.130 -0.3162  0.3235  0.1761
15977TIP3    H169346   3.906   1.585   0.120 -0.6116 -0.1196 -1.5685
15977TIP3    H269347   4.037   1.543   0.184 -0.9781  1.5456  0.3316
15978TIP3   OH269348   1.660   3.423   3.302 -0.1667 -0.2145 -0.0381
15978TIP3    H169349   1.570   3.392   3.290  0.5114 -2.7604  1.1085
15978TIP3    H269350   1.663   3.451   3.394  0.1686  0.0088 -0.1177
15979TIP3   OH269351   0.135   0.017   3.184 -0.0123  0.3641 -0.4085
15979TIP3    H169352   0.211  -0.018   3.137 -0.3166 -0.2776 -0.4260
15979TIP3    H269353   0.107  -0.054   3.241 -0.4787  0.6706 -0.2515
15980TIP3   OH269354   0.526   4.180   0.783  0.0633 -0.4197  0.2888
15980TIP3    H169355   0.458   4.222   0.731 -0.4484 -0.8386  0.6196
15980TIP3    H269356   0.578   4.253   0.818  0.3009 -0.1331 -0.6623
15981TIP3   OH269357   1.026   1.421  11.911  0.3149 -0.0442 -0.3590
15981TIP3    H169358   1.114   1.459  11.916  0.4218 -0.3607  0.1059
15981TIP3    H269359   1.011   1.410  11.817  1.2692 -1.1607 -0.3820
15982TIP3   OH269360   1.958   5.578  12.447 -0.5277  0.4474 -0.6516
15982TIP3    H169361   1.964   5.599  12.354  1.0348 -3.1624 -1.4323
15982TIP3    H269362   2.035   5.619  12.486  0.1888 -0.1540 -1.4103
15983TIP3   OH269363   5.402   4.100  15.204 -0.4244 -0.0978  0.0534
15983TIP3    H169364   5.349   4.076  15.280 -2.0103 -1.3201 -1.3869
15983TIP3    H269365   5.383   4.032  15.139  0.3874  1.2604 -1.6616
15984TIP3   OH269366   3.338   2.469  16.379  0.1606  0.1669 -0.2360
15984TIP3    H169367   3.300   2.530  16.315 -0.0973  0.0521 -0.1887
15984TIP3    H269368   3.283   2.391  16.374  0.7120 -0.2013 -0.5587
15985TIP3   OH269369   2.351   5.297   6.878 -0.2071 -0.8207  0.7156
15985TIP3    H169370   2.423   5.304   6.940  1.3199 -0.8390 -1.0120
15985TIP3    H269371   2.331   5.388   6.855  0.1164 -0.8750  0.2270
15986TIP3   OH269372   5.591   6.014   0.672 -0.3836  0.1671 -0.5202
15986TIP3    H169373   5.552   6.021   0.759  0.7887 -0.0577  0.0374
15986TIP3    H269374   5.618   5.922   0.666 -1.0429  0.0332 -1.3703
15987TIP3   OH269375   2.907   3.109  13.352  0.4394 -0.0212 -0.0578
15987TIP3    H169376   2.986   3.162  13.363  0.0298  0.6986 -0.4913
15987TIP3    H269377   2.884   3.082  13.441 -0.0960  1.6530  0.3382
15988TIP3   OH269378   1.850   0.339  16.848 -0.3529  0.1225  0.8673
15988TIP3    H169379   1.801   0.359  16.769  1.9982  0.0831 -0.6565
15988TIP3    H269380   1.808   0.391  16.916 -2.0481  0.6003 -0.5065
15989TIP3   OH269381   0.488   2.561  14.544 -0.3353  0.6023  0.3487
15989TIP3    H169382   0.491   2.561  14.640 -2.3786  2.0209  0.4483
15989TIP3    H269383   0.406   2.516  14.523 -0.4744  1.3172 -0.6847
15990TIP3   OH269384   4.003   0.980   0.053  0.0378  0.6417 -0.3866
15990TIP3    H169385   4.015   1.021  -0.033 -1.2771  1.3444 -0.2455
15990TIP3    H269386   4.032   1.047   0.115 -0.4751  0.7084 -0.2208
15991TIP3   OH269387   1.615   3.545  12.390 -0.1848 -0.2580 -0.1396
15991TIP3    H169388   1.670   3.557  12.312  1.2207  1.3102  1.0470
15991TIP3    H269389   1.674   3.564  12.463 -2.0541  0.4959  1.2040
15992TIP3   OH269390   5.526   4.080  12.597  0.5224  0.9144 -0.2180
15992TIP3    H169391   5.439   4.048  12.619  0.5356  1.6374  0.9587
15992TIP3    H269392   5.579   4.001  12.586  0.1587  0.4876  0.9826
15993TIP3   OH269393   4.896   0.136   1.970  0.0445 -0.5497 -0.5211
15993TIP3    H169394   4.899   0.093   2.056  0.7295 -0.6199 -0.5770
15993TIP3    H269395   4.959   0.208   1.978 -1.0368  0.4104 -0.4486
15994TIP3   OH269396   0.431   6.195  17.163  0.2569  0.1597 -0.1620
15994TIP3    H169397   0.439   6.102  17.186  1.4145 -0.1847 -1.8843
15994TIP3    H269398   0.460   6.242  17.241  0.9297 -0.9343  0.2521
15995TIP3   OH269399   3.098   5.257   4.920  0.6223  0.7709  0.0856
15995TIP3    H169400   3.134   5.296   4.841  0.2322 -2.0830 -1.5613
15995TIP3    H269401   3.169   5.204   4.956 -0.3350 -0.8548 -0.3858
15996TIP3   OH269402   1.705   1.316  14.766 -0.2987  0.6545 -0.5247
15996TIP3    H169403   1.773   1.383  14.766 -0.1405  0.4968 -0.1466
15996TIP3    H269404   1.743   1.242  14.719  0.5858 -0.2199  1.5089
15997TIP3   OH269405   1.277   5.581   4.491  0.4361 -0.6907 -0.4087
15997TIP3    H169406   1.324   5.510   4.446 -0.5307 -0.3720 -1.9351
15997TIP3    H269407   1.328   5.659   4.473 -0.2737 -0.4654 -1.4553
15998TIP3   OH269408   2.763   6.320   3.591  0.4891 -0.1022  0.0111
15998TIP3    H169409   2.778   6.359   3.677 -0.4934  1.0967 -0.3441
15998TIP3    H269410   2.668   6.323   3.579  0.4242 -2.1408 -0.2588
15999TIP3   OH269411   5.850   6.488  12.804  0.0377  0.3515 -0.1278
15999TIP3    H169412   5.899   6.418  12.761  0.5026  0.7768 -0.2926
15999TIP3    H269413   5.893   6.569  12.775 -0.3957  0.6975  0.1875
16000TIP3   OH269414   2.722   4.811  10.916 -0.0485 -0.5877  0.1601
16000TIP3    H169415   2.740   4.731  10.867 -0.4587 -1.2579  1.0981
16000TIP3    H269416   2.744   4.790  11.006 -1.5726 -0.1117  0.6663
16001TIP3   OH269417   2.499   0.037   1.912  0.0859  0.7528  0.0255
16001TIP3    H169418   2.459  -0.024   1.974 -0.1800 -0.4318 -1.2891
16001TIP3    H269419   2.441   0.035   1.836  1.7119  0.3356 -1.2253
16002TIP3   OH269420   3.957   2.283  14.939  0.2745 -0.3478  0.1053
16002TIP3    H169421   3.941   2.312  14.850  2.2356  0.8246  0.0859
16002TIP3    H269422   3.975   2.364  14.988  2.3610 -1.2084  0.8376
16003TIP3   OH269423   3.039   6.127  15.913 -1.1388  0.2411  0.1091
16003TIP3    H169424   2.992   6.048  15.938 -1.2355 -0.4117 -2.1055
16003TIP3    H269425   2.995   6.158  15.835  1.0293  0.5649 -1.0264
16004TIP3   OH269426   6.119   4.125   5.953  0.1284 -0.8561 -0.2875
16004TIP3    H169427   6.092   4.102   5.864 -0.8380  1.0217 -0.5089
16004TIP3    H269428   6.132   4.041   5.997  2.0413 -1.8115 -2.6099
16005TIP3   OH269429   6.774   4.403   2.883 -0.4577 -0.1359 -0.2053
16005TIP3    H169430   6.692   4.441   2.915  1.5885  1.2727  3.7974
16005TIP3    H269431   6.827   4.479   2.857  0.0123 -0.9385 -1.6218
16006TIP3   OH269432   2.056   6.357   3.849  0.2651 -0.1994 -0.0573
16006TIP3    H169433   2.092   6.434   3.892  3.1639 -1.2433 -0.4937
16006TIP3    H269434   2.029   6.387   3.762 -0.4635  0.7174  0.4789
16007TIP3   OH269435   5.598   0.492  15.088 -0.4165 -0.6749  0.2739
16007TIP3    H169436   5.653   0.549  15.142 -0.2906 -0.9470  0.4381
16007TIP3    H269437   5.552   0.436  15.150 -0.3109 -0.9552  0.1056
16008TIP3   OH269438   3.153   5.724   5.198  0.2139 -0.5282  0.0991
16008TIP3    H169439   3.157   5.637   5.159 -0.6073  0.4174 -2.2539
16008TIP3    H269440   3.212   5.776   5.144 -0.3102  0.6497  0.6436
16009TIP3   OH269441   3.070   4.215  12.138  0.2586  0.1011 -0.2367
16009TIP3    H169442   3.145   4.257  12.181  0.4180 -0.1963 -0.2183
16009TIP3    H269443   3.106   4.183  12.055  0.4647 -1.1525  0.3265
16010TIP3   OH269444   3.288   1.014   1.028  0.0020 -0.2042 -0.4561
16010TIP3    H169445   3.307   1.057   0.945 -2.6342 -0.5132 -1.2571
16010TIP3    H269446   3.287   0.921   1.008  1.0937 -0.4025  0.3244
16011TIP3   OH269447   0.048   4.361  14.062  0.2097 -0.0866  0.2166
16011TIP3    H169448   0.070   4.298  13.992  1.9401  0.2985  0.3864
16011TIP3    H269449   0.029   4.306  14.138  2.1251 -0.4354  0.4783
16012TIP3   OH269450   2.617   5.217  15.827 -0.4294  0.0678  0.3886
16012TIP3    H169451   2.674   5.148  15.861  1.2776  1.9220  1.3866
16012TIP3    H269452   2.568   5.248  15.903 -0.9762  0.1446  0.0057
16013TIP3   OH269453   1.291   0.853  12.159 -0.0167 -1.0378  0.3857
16013TIP3    H169454   1.278   0.941  12.123  0.1166 -1.0585  0.2884
16013TIP3    H269455   1.386   0.844  12.166  0.0276 -1.6830 -0.8719
16014TIP3   OH269456   4.915   4.494   5.020  0.5539 -1.0008 -0.0989
16014TIP3    H169457   4.869   4.572   5.051  5.5201  2.8757 -1.8367
16014TIP3    H269458   4.884   4.483   4.930  2.2224  1.0536 -0.9647
16015TIP3   OH269459   6.110   3.412  12.396  0.0834 -1.0362 -0.2043
16015TIP3    H169460   6.181   3.381  12.452 -1.6829 -1.3175  1.9433
16015TIP3    H269461   6.104   3.506  12.415  1.6724 -0.4221 -2.4729
16016TIP3   OH269462   3.566   1.076   4.255 -0.4388 -0.0184  0.0217
16016TIP3    H169463   3.514   1.031   4.189 -1.2603 -0.0145  0.6517
16016TIP3    H269464   3.532   1.166   4.255 -0.4802 -0.0307  0.4704
16017TIP3   OH269465   4.306   1.883  14.790  0.1794  0.5567  0.4656
16017TIP3    H169466   4.249   1.959  14.779 -2.8331 -1.9192 -2.2264
16017TIP3    H269467   4.250   1.817  14.832  0.9646 -1.9146 -2.1559
16018TIP3   OH269468   4.390   2.860   2.894  0.2440  0.2207  0.4772
16018TIP3    H169469   4.311   2.807   2.890  0.3698  0.1227 -1.2243
16018TIP3    H269470   4.413   2.864   2.987 -1.6040  0.0373  0.9499
16019TIP3   OH269471   6.375   5.045   3.401 -0.1969 -0.2964 -0.0733
16019TIP3    H169472   6.391   5.133   3.368 -0.2687 -0.4136 -0.4172
16019TIP3    H269473   6.445   5.031   3.465  1.2826 -0.9346 -1.8143
16020TIP3   OH269474   2.447   3.007  10.651  0.3959  0.3098  0.1041
16020TIP3    H169475   2.481   3.095  10.634 -0.8936  0.2084 -3.4723
16020TIP3    H269476   2.401   2.984  10.570 -2.3888 -2.2069  2.3126
16021TIP3   OH269477   2.070   2.650   1.936  0.0497 -0.1206 -0.5295
16021TIP3    H169478   1.981   2.678   1.917  0.6262  1.7464 -0.6370
16021TIP3    H269479   2.062   2.559   1.964 -1.8411 -0.0587 -0.8267
16022TIP3   OH269480   4.795   0.469   3.465 -0.2299 -0.0328 -0.3216
16022TIP3    H169481   4.772   0.443   3.554 -2.7642 -0.5375 -1.0632
16022TIP3    H269482   4.782   0.564   3.464 -0.0718 -0.0102 -0.0984
16023TIP3   OH269483   5.477   3.738   0.364 -0.0315  0.0141  0.5884
16023TIP3    H169484   5.463   3.702   0.277 -1.0846 -0.9016  1.1175
16023TIP3    H269485   5.561   3.783   0.358 -0.8721  1.3645 -1.3304
16024TIP3   OH269486   2.138   2.193   3.908  0.7696  0.0425 -0.4800
16024TIP3    H169487   2.055   2.209   3.953  0.1967 -1.2286 -1.0660
16024TIP3    H269488   2.184   2.130   3.964  2.4709  2.6431  1.1673
16025TIP3   OH269489   3.424   0.976   3.975  0.0129  0.4321  0.2922
16025TIP3    H169490   3.508   0.929   3.978 -0.7799 -1.1964 -1.9318
16025TIP3    H269491   3.358   0.908   3.991 -1.0587  1.0799 -1.3028
16026TIP3   OH269492   2.098   3.422  15.138  0.3217  0.7191  0.1568
16026TIP3    H169493   2.187   3.430  15.173  0.5922  0.4710 -0.4663
16026TIP3    H269494   2.077   3.329  15.147 -0.0478  0.8537  0.7130
16027TIP3   OH269495   3.833   3.809   4.468 -0.1558  0.1715  0.2230
16027TIP3    H169496   3.799   3.757   4.395  1.6385  1.5263 -1.6092
16027TIP3    H269497   3.880   3.745   4.522  0.9777 -0.3548 -1.3563
16028TIP3   OH269498   3.838   1.763  14.725  0.5554  0.3783 -0.4379
16028TIP3    H169499   3.826   1.792  14.815  1.0761 -0.4106 -0.1081
16028TIP3    H269500   3.839   1.844  14.673  0.0701  0.8168  0.2411
16029TIP3   OH269501   1.092   5.539   2.195  0.0474  0.6463  0.4226
16029TIP3    H169502   1.146   5.500   2.126  2.0235  2.4904  0.8361
16029TIP3    H269503   1.106   5.483   2.271  1.0211  0.8093  0.3778
16030TIP3   OH269504   1.540   2.896  16.377 -0.3293 -0.0774  0.3086
16030TIP3    H169505   1.508   2.822  16.325 -0.7212  0.8091 -0.7365
16030TIP3    H269506   1.589   2.949  16.314  0.1533  0.4295  1.1074
16031TIP3   OH269507   4.385   0.875  12.501 -0.0309 -0.0004 -0.0364
16031TIP3    H169508   4.316   0.940  12.510  0.6152  0.8340 -0.9386
16031TIP3    H269509   4.413   0.883  12.409  1.2333 -0.3369  0.3109
16032TIP3   OH269510   1.876   0.860   0.458  0.2508  0.2003 -0.2978
16032TIP3    H169511   1.845   0.801   0.389  0.8615 -2.1830  1.4529
16032TIP3    H269512   1.943   0.811   0.504  0.8657  2.3189  1.1285
16033TIP3   OH269513   0.854   0.800   4.189 -0.3397 -0.2104 -0.4775
16033TIP3    H169514   0.766   0.765   4.171 -2.1589  2.4924  2.6718
16033TIP3    H269515   0.883   0.753   4.267  0.5419 -0.2466 -0.8198
16034TIP3   OH269516   1.052   1.834  14.820 -0.2219  0.0925  0.2115
16034TIP3    H169517   1.127   1.781  14.792 -0.3551  0.1860 -0.3375
16034TIP3    H269518   1.053   1.829  14.915  0.9063  0.6688  0.2436
16035TIP3   OH269519   5.642   2.388  16.129 -0.0324 -0.6962 -0.2571
16035TIP3    H169520   5.716   2.448  16.125 -1.1332  0.5717 -2.2295
16035TIP3    H269521   5.588   2.411  16.054 -0.7822 -3.7966 -0.7420
16036TIP3   OH269522   0.345   3.454   2.528  0.2478  0.4415 -0.2197
16036TIP3    H169523   0.253   3.439   2.551  0.7411 -0.7454  1.1001
16036TIP3    H269524   0.389   3.463   2.612  1.5818 -0.5805 -0.7818
16037TIP3   OH269525   1.001   4.768  14.167 -0.2364  0.0431 -0.1585
16037TIP3    H169526   0.993   4.673  14.169  0.5088 -0.0623 -1.4041
16037TIP3    H269527   0.918   4.798  14.130 -0.6782 -0.0826  0.7178
16038TIP3   OH269528   3.582   0.814   2.912 -0.0219 -0.3563 -0.6648
16038TIP3    H169529   3.638   0.892   2.915 -0.3316 -0.1707  0.5837
16038TIP3    H269530   3.641   0.743   2.937  0.0291 -0.3856 -0.8672
16039TIP3   OH269531   2.071   2.361   5.436 -0.3233  0.2161 -0.7424
16039TIP3    H169532   2.004   2.343   5.370 -1.7764  1.0418  0.4966
16039TIP3    H269533   2.040   2.318   5.515 -0.4244  2.3437  0.4028
16040TIP3   OH269534   1.420   6.331   2.572 -0.2391 -0.0984 -0.0910
16040TIP3    H169535   1.389   6.418   2.598 -0.7479 -0.5023  0.6501
16040TIP3    H269536   1.357   6.270   2.610  0.0673 -0.7943 -0.6802
16041TIP3   OH269537   1.834   4.457   1.077 -0.1980  0.1664 -0.1590
16041TIP3    H169538   1.868   4.547   1.081  1.0457 -0.2902 -0.4096
16041TIP3    H269539   1.870   4.422   0.996 -0.7206 -0.5481 -0.0769
16042TIP3   OH269540   3.746   1.888  16.789  0.4073 -0.1805 -0.1815
16042TIP3    H169541   3.746   1.952  16.718 -0.7575  0.1905  0.1372
16042TIP3    H269542   3.811   1.823  16.763  2.6809  1.9030  0.2053
16043TIP3   OH269543   1.453   6.604  11.738  0.0232 -0.3815 -0.3991
16043TIP3    H169544   1.500   6.521  11.727 -0.3504 -1.2234  3.5827
16043TIP3    H269545   1.447   6.616  11.833 -0.4349  3.9496 -0.8627
16044TIP3   OH269546   0.735   1.748   0.575 -0.0428  0.7483 -0.1568
16044TIP3    H169547   0.799   1.725   0.508 -1.5004 -0.8243 -1.0467
16044TIP3    H269548   0.706   1.664   0.611 -0.6764  1.4922  1.1148
16045TIP3   OH269549   1.556   0.987   0.379  0.6402  0.0512  0.0038
16045TIP3    H169550   1.583   0.897   0.397  1.5542  0.3557  0.2066
16045TIP3    H269551   1.486   0.979   0.315 -1.1191 -0.9434  1.9827
16046TIP3   OH269552   4.822   1.515   1.030 -0.0644  0.3309  0.4159
16046TIP3    H169553   4.848   1.500   1.121 -0.5982 -0.0289  0.5070
16046TIP3    H269554   4.836   1.609   1.017 -1.7312  0.7399  1.4335
16047TIP3   OH269555   4.019   0.762   5.188 -0.7561  0.3121  0.8120
16047TIP3    H169556   4.047   0.818   5.116 -0.0618 -0.4987  0.4461
16047TIP3    H269557   4.051   0.806   5.267  0.8335 -0.1756  0.4491
16048TIP3   OH269558   1.012   1.145   0.488 -0.1518 -0.4440 -0.2926
16048TIP3    H169559   0.918   1.163   0.479 -0.2429 -0.4444  0.5636
16048TIP3    H269560   1.018   1.050   0.493 -0.0744 -0.4587 -0.7006
16049TIP3   OH269561   6.035   6.693  11.196 -0.2288 -0.4904  0.0648
16049TIP3    H169562   6.013   6.732  11.281 -0.5697  0.7718 -0.5999
16049TIP3    H269563   6.112   6.638  11.215  0.3631  0.6197  0.9856
16050TIP3   OH269564   5.344   5.860   0.470  0.3762  0.3181 -0.1673
16050TIP3    H169565   5.433   5.845   0.437  0.1343 -1.3443 -0.1101
16050TIP3    H269566   5.295   5.783   0.441 -0.8681  0.8797  0.4343
16051TIP3   OH269567   5.422   2.117   5.392  0.2054  0.3089 -0.4117
16051TIP3    H169568   5.388   2.079   5.473  0.3072  0.4401 -0.3069
16051TIP3    H269569   5.364   2.192   5.374 -0.6169 -0.4915 -1.1608
16052TIP3   OH269570   0.537   4.692   0.835  0.2980  1.2009  0.3723
16052TIP3    H169571   0.496   4.779   0.833  0.1218  1.0990 -1.0102
16052TIP3    H269572   0.545   4.668   0.742  3.3922  1.1760  0.6101
16053TIP3   OH269573   2.897   5.076   4.426  0.3329  0.7800 -0.1330
16053TIP3    H169574   2.962   5.009   4.448  0.9433  1.7916  1.2549
16053TIP3    H269575   2.916   5.099   4.335  1.1292  0.1904 -0.1208
16054TIP3   OH269576   2.470   3.596   4.361 -0.2047 -0.1236  0.4508
16054TIP3    H169577   2.554   3.618   4.400  0.7106 -1.0385 -0.9233
16054TIP3    H269578   2.455   3.505   4.386 -0.1109 -0.3913 -0.4509
16055TIP3   OH269579   5.369   5.022  16.601  0.0718  0.0345  0.4885
16055TIP3    H169580   5.452   5.070  16.599  0.3836 -0.5380 -1.2915
16055TIP3    H269581   5.374   4.970  16.681  0.5367  1.5459  1.4613
16056TIP3   OH269582   2.009   5.383   3.522 -0.0673 -0.1004  0.1962
16056TIP3    H169583   1.944   5.313   3.529  1.6052 -1.6583  0.6123
16056TIP3    H269584   1.985   5.445   3.592 -0.3216 -1.3100  1.1981
16057TIP3   OH269585   2.632   1.603   3.877 -0.1191  0.3315  0.0758
16057TIP3    H169586   2.618   1.684   3.927  0.9136 -0.9063  2.4582
16057TIP3    H269587   2.725   1.604   3.855 -0.6015  0.9520 -2.0444
16058TIP3   OH269588   3.734   5.325   4.495  0.4712  0.0664 -0.1342
16058TIP3    H169589   3.790   5.401   4.509  1.2863 -0.4503 -0.5372
16058TIP3    H269590   3.704   5.334   4.404 -0.3442  0.4930  0.1677
16059TIP3   OH269591   1.510   1.884   2.594 -0.6705  0.1452  0.0081
16059TIP3    H169592   1.543   1.893   2.684 -0.7833  0.2137  0.0424
16059TIP3    H269593   1.577   1.924   2.540 -0.3932 -0.2914  0.0276
16060TIP3   OH269594   1.175   0.201   0.363 -0.6844 -0.1184  0.5468
16060TIP3    H169595   1.090   0.172   0.397 -1.4913  2.3455  0.7582
16060TIP3    H269596   1.191   0.285   0.407  2.1814 -0.8347  0.9691
16061TIP3   OH269597   1.104   5.254   4.714  0.0054  0.6097  0.1447
16061TIP3    H169598   1.085   5.294   4.629  0.5467  0.2028 -0.1761
16061TIP3    H269599   1.066   5.314   4.778 -0.6089  0.7987 -0.3964
16062TIP3   OH269600   6.299   3.191   6.498  0.0129 -0.3993 -1.0136
16062TIP3    H169601   6.382   3.185   6.450  0.7541 -0.6809  0.2727
16062TIP3    H269602   6.309   3.128   6.570 -1.7593 -1.2607 -1.4879
16063TIP3   OH269603   6.766   2.141  13.608 -0.6377  0.4303  0.7085
16063TIP3    H169604   6.687   2.194  13.605  0.5501  2.2704  1.1955
16063TIP3    H269605   6.825   2.188  13.667  0.7955 -0.9532  0.4385
16064TIP3   OH269606   2.645   4.223   0.973 -0.4077 -0.8350  0.4257
16064TIP3    H169607   2.648   4.136   0.932 -2.7675 -0.5406 -0.4168
16064TIP3    H269608   2.697   4.278   0.914  1.2385 -1.6890  1.0513
16065TIP3   OH269609   4.493   0.409   6.090  0.0289  0.0479 -0.3266
16065TIP3    H169610   4.529   0.426   6.177 -1.0049  2.8832 -0.3858
16065TIP3    H269611   4.568   0.375   6.040  1.4216  1.3120  0.8413
16066TIP3   OH269612   3.258   3.330   1.068  0.3143 -0.0412 -0.8591
16066TIP3    H169613   3.193   3.266   1.097 -0.3570  0.5070 -1.1596
16066TIP3    H269614   3.239   3.343   0.975  0.8864  0.0775 -0.9582
16067TIP3   OH269615   1.507   0.129   5.026 -0.0437  0.5142  0.0462
16067TIP3    H169616   1.561   0.130   5.106  0.7605 -2.3255 -0.4081
16067TIP3    H269617   1.420   0.103   5.056  0.4665 -1.4128 -0.0797
16068TIP3   OH269618   5.015   3.723   6.147 -0.4319 -0.3619  0.1557
16068TIP3    H169619   5.039   3.808   6.109  0.5823 -0.5502  0.3594
16068TIP3    H269620   4.925   3.708   6.117 -0.4211  0.5244 -0.3418
16069TIP3   OH269621   2.805   6.761  17.000  0.2990  0.1769  0.1431
16069TIP3    H169622   2.785   6.844  16.956  0.1996 -0.1025 -0.3471
16069TIP3    H269623   2.792   6.695  16.932  0.5449 -0.2254  0.4896
16070TIP3   OH269624   6.256   2.704   5.379  0.6423 -0.0994  0.4806
16070TIP3    H169625   6.192   2.637   5.400 -0.9641  1.1403 -0.2864
16070TIP3    H269626   6.211   2.787   5.399  1.4124  0.8484 -1.5352
16071TIP3   OH269627   0.843   2.384  12.519  0.1739 -0.3147  0.0123
16071TIP3    H169628   0.786   2.324  12.567 -1.3003  1.0227 -0.0602
16071TIP3    H269629   0.785   2.433  12.462  1.5560  0.1893 -1.0007
16072TIP3   OH269630   3.866   5.824   5.567  0.0567 -0.2927  0.3267
16072TIP3    H169631   3.911   5.909   5.564 -2.0936  0.8231 -2.1714
16072TIP3    H269632   3.925   5.765   5.519  0.2161  0.4854 -0.4589
16073TIP3   OH269633   4.649   0.349  13.702  0.4104 -0.8673 -0.6176
16073TIP3    H169634   4.741   0.339  13.678  0.3845 -2.1280 -0.2263
16073TIP3    H269635   4.601   0.336  13.621  0.6962  3.3143 -1.6060
16074TIP3   OH269636   3.869   1.875  13.367  0.4046 -0.6737  0.1558
16074TIP3    H169637   3.831   1.944  13.312  1.4255  0.0460  0.3252
16074TIP3    H269638   3.796   1.817  13.388 -0.5679  0.6288  0.4143
16075TIP3   OH269639   5.377   3.036   4.032 -0.0538  0.4945  0.4797
16075TIP3    H169640   5.426   3.111   4.000  0.7402 -0.4808 -0.6290
16075TIP3    H269641   5.328   3.005   3.956 -0.2469 -0.1982  0.8853
16076TIP3   OH269642   0.812   0.556  12.594 -0.4290 -0.1490 -0.1654
16076TIP3    H169643   0.743   0.490  12.587 -2.4371  1.8878 -0.2899
16076TIP3    H269644   0.871   0.537  12.521  0.8961 -3.7597  1.6705
16077TIP3   OH269645   4.748   5.267   0.963 -0.6675 -0.7059  0.2618
16077TIP3    H169646   4.809   5.213   0.912  0.8500  0.4351  0.8089
16077TIP3    H269647   4.800   5.297   1.038 -0.6035  3.6783 -1.3817
16078TIP3   OH269648   4.716   3.890  13.157  0.4100  0.1261  0.6700
16078TIP3    H169649   4.781   3.946  13.199  1.2241 -0.3950  0.1243
16078TIP3    H269650   4.632   3.933  13.173  1.1215  2.0481 -0.6384
16079TIP3   OH269651   0.526   4.549  12.529 -0.3876 -0.0040 -0.5118
16079TIP3    H169652   0.565   4.629  12.565 -2.4223  0.4303  0.7773
16079TIP3    H269653   0.518   4.491  12.604 -0.3462 -0.8660 -1.1630
16080TIP3   OH269654   2.680   0.057   6.114  1.0636  0.0215 -0.3202
16080TIP3    H169655   2.610   0.121   6.129  1.3411  0.7986 -2.1727
16080TIP3    H269656   2.753   0.110   6.080  1.8100 -1.0835 -0.4538
16081TIP3   OH269657   4.119   1.549  12.247  0.1476 -0.1976 -0.5118
16081TIP3    H169658   4.090   1.461  12.223 -3.6246  0.5450  1.0376
16081TIP3    H269659   4.103   1.602  12.168 -1.4250 -0.0979 -0.1379
16082TIP3   OH269660   4.935   5.988  13.597  0.0897  0.4880  0.4587
16082TIP3    H169661   5.002   6.038  13.644 -0.4964  1.7217  0.0072
16082TIP3    H269662   4.942   5.899  13.632  1.8439  0.6340  0.5536
16083TIP3   OH269663   4.439   4.426  12.351 -0.4103  0.6174 -0.0330
16083TIP3    H169664   4.389   4.453  12.428  0.1472 -0.5194  0.7346
16083TIP3    H269665   4.531   4.438  12.375 -0.2419  0.6172 -0.6523
16084TIP3   OH269666   4.621   5.101   2.673 -0.0123  0.7439 -0.3354
16084TIP3    H169667   4.648   5.051   2.750  0.5756  0.0839 -0.9561
16084TIP3    H269668   4.695   5.159   2.655  0.5209 -0.2213 -1.3303
16085TIP3   OH269669   3.324   6.183   4.256 -0.4847 -0.2856 -0.0877
16085TIP3    H169670   3.290   6.191   4.167 -1.2568 -2.7378 -0.0493
16085TIP3    H269671   3.253   6.141   4.305  0.3140  0.1128  1.4410
16086TIP3   OH269672   4.161   2.887   1.425 -0.0773  0.4475 -0.3003
16086TIP3    H169673   4.090   2.912   1.484 -1.5218  1.4471 -2.3973
16086TIP3    H269674   4.117   2.852   1.348  1.7668 -0.4159 -0.9967
16087TIP3   OH269675   1.799   5.238  11.896 -0.9087  0.3234  0.1817
16087TIP3    H169676   1.778   5.326  11.865 -1.4993 -0.2886 -1.2034
16087TIP3    H269677   1.888   5.222  11.865 -2.0617 -0.8927 -2.6550
16088TIP3   OH269678   1.029   2.091  13.472  0.6401 -0.1080 -0.7303
16088TIP3    H169679   1.046   2.081  13.566  1.8210 -2.0687 -1.1167
16088TIP3    H269680   0.937   2.114  13.466  0.8431  1.2170  0.9737
16089TIP3   OH269681   5.543   2.337   1.592 -0.3281 -0.1267 -0.2154
16089TIP3    H169682   5.604   2.368   1.525 -1.4656  1.3131 -0.5999
16089TIP3    H269683   5.552   2.241   1.589  0.8944  0.0023 -1.2217
16090TIP3   OH269684   3.953   5.285   6.338 -0.2334 -0.1745  0.6616
16090TIP3    H169685   3.991   5.370   6.314  0.6597 -0.5102  0.8650
16090TIP3    H269686   4.028   5.225   6.339 -0.9980 -1.1637 -0.4092
16091TIP3   OH269687   5.027   2.910   2.514  0.1246  0.5555  0.2885
16091TIP3    H169688   5.056   2.981   2.572 -0.3454  0.8136  0.2079
16091TIP3    H269689   4.962   2.951   2.457 -0.5314 -0.0742  0.5776
16092TIP3   OH269690   6.516   2.707  11.437 -0.4918  0.2782  0.1858
16092TIP3    H169691   6.551   2.794  11.455  0.8641 -0.1442 -0.3805
16092TIP3    H269692   6.497   2.670  11.524 -0.1334  0.7473  0.4641
16093TIP3   OH269693   2.273   5.212   1.941  0.1592  0.3105  0.1275
16093TIP3    H169694   2.225   5.278   1.892 -1.6046 -0.4866  0.7459
16093TIP3    H269695   2.271   5.243   2.031  1.7738  0.8201  0.0067
16094TIP3   OH269696   6.516   4.586   5.271  0.2025 -0.1953 -0.1016
16094TIP3    H169697   6.585   4.530   5.305  1.1419  0.3270 -1.1174
16094TIP3    H269698   6.447   4.526   5.245 -0.5257 -0.6201  2.6071
16095TIP3   OH269699   1.983   0.440  16.104  0.3271 -0.3798  0.1920
16095TIP3    H169700   1.983   0.511  16.167  0.3062 -0.4545  0.2762
16095TIP3    H269701   1.899   0.396  16.116 -0.4658  0.7051 -1.1509
16096TIP3   OH269702   5.508   3.901   1.427 -0.2116  0.3565  0.3911
16096TIP3    H169703   5.531   3.934   1.340  1.0017 -0.0107  0.5632
16096TIP3    H269704   5.573   3.940   1.485  1.3647 -2.4003  0.5759
16097TIP3   OH269705   3.481   0.538   3.779  0.1801 -0.3169  0.2689
16097TIP3    H169706   3.404   0.540   3.722 -0.5667  0.3671  1.2926
16097TIP3    H269707   3.533   0.464   3.746 -0.5330 -0.3014 -0.9136
16098TIP3   OH269708   2.149   4.041   0.027  0.1417 -0.4600 -0.4700
16098TIP3    H169709   2.210   3.995  -0.030  0.4163 -1.2563  0.4569
16098TIP3    H269710   2.115   3.973   0.085 -0.1662  0.3345  0.2825
16099TIP3   OH269711   0.760   6.146  16.079  0.0524 -0.1941 -0.8240
16099TIP3    H169712   0.822   6.073  16.076  0.5485  0.2627 -1.6004
16099TIP3    H269713   0.775   6.194  15.998  0.4628  1.3987  0.1802
16100TIP3   OH269714   6.244   2.181   0.620 -0.1033 -0.1710  0.1764
16100TIP3    H169715   6.179   2.252   0.613 -2.2874 -2.2532 -1.2204
16100TIP3    H269716   6.232   2.148   0.709  0.1956  0.5326  0.4808
16101TIP3   OH269717   1.537   2.864  16.653 -0.3166 -0.1297  0.3306
16101TIP3    H169718   1.543   2.853  16.558  0.0122 -0.3513  0.3758
16101TIP3    H269719   1.593   2.795  16.689  2.2268  2.0179  0.6139
16102TIP3   OH269720   5.124   3.435   0.395 -0.3578 -0.8110  0.3291
16102TIP3    H169721   5.086   3.427   0.483 -2.5428  1.5501 -0.3588
16102TIP3    H269722   5.140   3.528   0.384  0.6919 -1.1844 -1.5004
16103TIP3   OH269723   6.563   3.802  16.833  0.4470 -0.0206 -0.3368
16103TIP3    H169724   6.501   3.807  16.760  0.0386  0.5386  0.0459
16103TIP3    H269725   6.550   3.714  16.869  0.1959 -0.0683 -0.5427
16104TIP3   OH269726   1.317   0.296  16.281 -0.4144 -0.6810 -0.4798
16104TIP3    H169727   1.255   0.250  16.224 -0.9143 -0.8348  0.1849
16104TIP3    H269728   1.270   0.374  16.309  0.2784  0.0227 -1.2652
16105TIP3   OH269729   6.766   0.314   4.914  0.4544 -0.1316  0.9470
16105TIP3    H169730   6.814   0.285   4.836 -0.3872 -0.6234  0.5987
16105TIP3    H269731   6.832   0.354   4.970  0.6373  2.8599 -1.2729
16106TIP3   OH269732   3.935   6.224  10.725 -0.6779 -0.0214  0.3265
16106TIP3    H169733   3.952   6.199  10.634  1.4432  0.9529  0.4482
16106TIP3    H269734   3.840   6.214  10.734 -0.9498  0.0326 -2.0488
16107TIP3   OH269735   4.648   4.211   0.654  0.3260 -0.0934 -0.0062
16107TIP3    H169736   4.594   4.202   0.575 -0.5325 -1.9787  0.7467
16107TIP3    H269737   4.643   4.125   0.696  0.6183  0.9319  2.2017
16108TIP3   OH269738   3.480   4.114   4.832  0.0501 -0.1782  0.5034
16108TIP3    H169739   3.494   4.074   4.918  2.8686 -0.3117  0.0448
16108TIP3    H269740   3.491   4.208   4.848  0.5591 -0.2018  0.2948
16109TIP3   OH269741   3.047   0.468   1.453 -0.8386  0.4479  0.2328
16109TIP3    H169742   2.993   0.426   1.386 -0.0520 -0.3864  0.1155
16109TIP3    H269743   3.134   0.475   1.414 -0.1206 -0.9662  1.5138
16110TIP3   OH269744   2.928   0.886   5.650  0.0922  0.0375  0.6423
16110TIP3    H169745   2.908   0.842   5.733  1.1074 -0.6864  0.5053
16110TIP3    H269746   3.010   0.933   5.668 -1.0835  2.1050  0.8676
16111TIP3   OH269747   2.209   5.338   4.111  0.2262 -0.2334 -0.2323
16111TIP3    H169748   2.267   5.366   4.182 -1.4499 -1.7276  1.7904
16111TIP3    H269749   2.182   5.250   4.136 -1.5898 -0.1998 -1.9868
16112TIP3   OH269750   3.255   6.755   2.635  0.2477  0.0237  0.3086
16112TIP3    H169751   3.325   6.715   2.686  0.2029  0.5068  0.7533
16112TIP3    H269752   3.251   6.703   2.555 -0.3230 -1.3455  1.2068
16113TIP3   OH269753   4.645   5.857  12.236 -0.4644  0.0244 -0.8799
16113TIP3    H169754   4.582   5.898  12.296 -0.3330  0.6992 -1.1975
16113TIP3    H269755   4.626   5.898  12.152  0.6740  0.5281 -0.8944
16114TIP3   OH269756   4.537   2.489   6.363  0.9772  0.0900  0.1725
16114TIP3    H169757   4.590   2.560   6.326  1.4728 -0.5135 -0.2684
16114TIP3    H269758   4.453   2.531   6.383  1.6210  1.0669  0.9169
16115TIP3   OH269759   2.110   2.963  14.463 -0.0770  0.6748  0.3106
16115TIP3    H169760   2.119   2.930  14.552 -1.0888  1.8518  0.8661
16115TIP3    H269761   2.092   2.885  14.410  1.0244 -0.0932  1.0465
16116TIP3   OH269762   6.219   5.452   0.917  0.2606 -0.3314  0.0085
16116TIP3    H169763   6.220   5.467   1.011 -0.3814 -0.4111  0.0282
16116TIP3    H269764   6.286   5.512   0.883 -0.4707  0.7009  0.3634
16117TIP3   OH269765   2.344   5.284   5.714 -0.0007  0.2887 -0.4230
16117TIP3    H169766   2.382   5.240   5.637  1.6178 -1.1749  1.1669
16117TIP3    H269767   2.279   5.222   5.747  0.9949 -0.1256  0.7682
16118TIP3   OH269768   1.700   4.017   2.124  0.8620 -0.0249 -0.2915
16118TIP3    H169769   1.745   4.027   2.041  1.3473  0.3382  0.0122
16118TIP3    H269770   1.656   4.101   2.138  0.2737 -0.2952 -0.4736
16119TIP3   OH269771   1.078   0.447   0.691 -0.8044  0.5249  0.6737
16119TIP3    H169772   0.998   0.500   0.691 -0.7411  0.6223  1.1107
16119TIP3    H269773   1.114   0.458   0.603 -1.5776  0.0094  0.2912
16120TIP3   OH269774   1.238   3.945  15.207 -0.3946 -0.2529 -0.7975
16120TIP3    H169775   1.231   3.857  15.244  3.3195 -0.3466 -0.0680
16120TIP3    H269776   1.243   4.003  15.284 -0.1021  0.3034 -1.2345
16121TIP3   OH269777   4.964   5.095   0.911  0.7017 -0.4465  0.0095
16121TIP3    H169778   4.951   5.065   1.001 -2.3564  0.0650 -0.2191
16121TIP3    H269779   4.987   5.016   0.862 -0.4044 -1.2078  0.7147
16122TIP3   OH269780   6.725   1.032  17.139  0.4121  0.1440 -0.4650
16122TIP3    H169781   6.804   0.978  17.143 -0.7615 -1.7261 -1.6273
16122TIP3    H269782   6.722   1.078  17.223  1.0832 -2.1577  0.8553
16123TIP3   OH269783   2.499   4.336  16.940 -0.0189  0.2696  0.9698
16123TIP3    H169784   2.588   4.330  16.906 -1.5042 -1.3988 -2.8711
16123TIP3    H269785   2.493   4.264  17.003  1.1722  0.0780  0.8826
16124TIP3   OH269786   1.403   6.000   3.985 -0.2882 -0.1828 -0.0722
16124TIP3    H169787   1.388   6.085   3.945  0.4608 -0.7125 -1.5227
16124TIP3    H269788   1.320   5.978   4.028 -1.2720  0.2133 -1.7247
16125TIP3   OH269789   3.498   3.103  14.715  0.2142  0.4152  0.1328
16125TIP3    H169790   3.534   3.129  14.630 -0.7157 -0.4163 -0.5285
16125TIP3    H269791   3.433   3.171  14.735 -0.3871 -0.0040 -0.3773
16126TIP3   OH269792   1.316   1.759   2.207 -0.3330 -0.2567  0.3131
16126TIP3    H169793   1.311   1.665   2.190  1.0574 -0.1595 -0.7610
16126TIP3    H269794   1.409   1.775   2.222 -0.7426  0.7152  1.9756
16127TIP3   OH269795   5.826   5.959   3.088 -0.3399 -0.2480 -0.4218
16127TIP3    H169796   5.896   5.894   3.076  0.5697  0.7212 -0.4420
16127TIP3    H269797   5.845   5.999   3.173 -0.5162  0.4548 -0.7138
16128TIP3   OH269798   0.087   5.481  17.200 -0.0124  0.4727  0.0255
16128TIP3    H169799   0.158   5.473  17.263  0.2666 -1.0938 -0.4558
16128TIP3    H269800   0.022   5.536  17.243  0.2706 -0.3908  1.5813
16129TIP3   OH269801   4.501   6.685  11.368 -0.4516 -0.2422  0.1288
16129TIP3    H169802   4.532   6.626  11.436 -1.5041 -0.5054  0.4009
16129TIP3    H269803   4.529   6.645  11.286 -1.1772 -1.1444  0.3090
16130TIP3   OH269804   5.839   5.314   5.700  0.3191  0.5228 -0.3833
16130TIP3    H169805   5.783   5.262   5.643 -0.4203  1.2301 -0.3085
16130TIP3    H269806   5.926   5.308   5.661  0.1787 -0.4889 -0.5618
16131TIP3   OH269807   1.710   0.265  11.938  0.4920 -0.5133  0.7263
16131TIP3    H169808   1.627   0.291  11.897  0.5434  0.0690  0.9882
16131TIP3    H269809   1.736   0.185  11.891  0.8395  0.4683 -0.7686
16132TIP3   OH269810   3.263   4.262   4.712 -0.0257  0.1421  0.5758
16132TIP3    H169811   3.240   4.292   4.800  0.5821  0.3248  0.6775
16132TIP3    H269812   3.343   4.212   4.725 -0.4592 -0.6353  0.2542
16133TIP3   OH269813   5.705   3.019  14.028  0.3069 -0.2960  0.2880
16133TIP3    H169814   5.764   2.967  14.081 -0.1551  1.3979  2.5552
16133TIP3    H269815   5.620   3.012  14.072  0.0461  1.6026  0.1528
16134TIP3   OH269816   4.117   4.201  14.645 -0.0209 -0.3345  0.1196
16134TIP3    H169817   4.110   4.207  14.741 -0.4152 -0.0824  0.0749
16134TIP3    H269818   4.143   4.110  14.629  0.0411 -0.3787  0.4659
16135TIP3   OH269819   1.580   0.419  11.448 -0.3245  0.4107  0.0826
16135TIP3    H169820   1.605   0.479  11.378 -1.3396  1.2915  0.4665
16135TIP3    H269821   1.655   0.360  11.456  1.1933  2.3199  0.4649
16136TIP3   OH269822   1.565   1.149  11.617 -0.0164 -0.7015 -0.0203
16136TIP3    H169823   1.630   1.190  11.674  0.4401  1.7560 -2.2367
16136TIP3    H269824   1.532   1.075  11.669  1.9420  0.1288  2.5468
16137TIP3   OH269825   6.528   5.289   2.684 -0.4169  0.2306  0.0758
16137TIP3    H169826   6.575   5.208   2.703 -1.7811 -0.6212 -0.0992
16137TIP3    H269827   6.451   5.287   2.740  0.0444  1.9093  0.8123
16138TIP3   OH269828   2.623   4.587  13.941  0.3443 -0.8334 -0.3983
16138TIP3    H169829   2.651   4.657  13.882 -1.7760 -0.7972 -1.4132
16138TIP3    H269830   2.676   4.511  13.915 -0.6103 -0.8340 -2.4264
16139TIP3   OH269831   0.650   1.693  11.732 -0.1679  0.0116  0.0795
16139TIP3    H169832   0.594   1.629  11.776  2.2096 -2.7404 -0.6818
16139TIP3    H269833   0.642   1.670  11.639  1.0922  0.5279 -0.1593
16140TIP3   OH269834   1.921   5.668   4.849 -0.0949 -0.0338  0.2071
16140TIP3    H169835   1.914   5.756   4.813 -0.3035 -0.7121 -1.4468
16140TIP3    H269836   2.003   5.634   4.815 -1.5227 -1.6172 -1.8065
16141TIP3   OH269837   0.443   5.185  15.931  0.1796 -0.1261 -0.0885
16141TIP3    H169838   0.355   5.168  15.963  0.5888 -1.0662  0.5744
16141TIP3    H269839   0.475   5.256  15.987  0.6248 -1.2708  1.1451
16142TIP3   OH269840   1.035   4.621   0.590  0.1900 -0.7782  0.3233
16142TIP3    H169841   1.130   4.628   0.590  0.1571  0.3084 -2.5304
16142TIP3    H269842   1.006   4.682   0.659  1.4721  0.8022 -0.5116
16143TIP3   OH269843   0.319   1.936  11.822 -0.8372  0.0072 -0.5498
16143TIP3    H169844   0.321   1.958  11.729 -0.2001 -2.9757 -1.3158
16143TIP3    H269845   0.391   1.985  11.861  1.1709 -1.4188 -2.3379
16144TIP3   OH269846   3.282   1.495  12.569  0.1152  0.5442  0.2559
16144TIP3    H169847   3.324   1.526  12.649  0.6830  0.3596  0.0360
16144TIP3    H269848   3.355   1.472  12.511 -0.2650  2.2877 -0.9446
16145TIP3   OH269849   5.644   1.149   6.104  0.2377 -0.1991 -0.0903
16145TIP3    H169850   5.652   1.130   6.198  0.7180  0.4885  0.0122
16145TIP3    H269851   5.559   1.111   6.080 -0.0292 -0.1258  0.6926
16146TIP3   OH269852   1.898   3.259  12.647 -0.1910  0.3932  0.1965
16146TIP3    H169853   1.896   3.252  12.551  0.8754 -1.1058  0.2596
16146TIP3    H269854   1.921   3.171  12.676 -0.5799  0.8294  1.8401
16147TIP3   OH269855   0.775   4.924   1.924 -0.1259  0.5428  0.1703
16147TIP3    H169856   0.708   4.874   1.971  0.7599 -1.3431 -0.5286
16147TIP3    H269857   0.728   4.961   1.849 -0.2320 -1.5859 -0.8755
16148TIP3   OH269858   2.790   4.602  10.748 -0.2810 -0.0765 -0.5569
16148TIP3    H169859   2.863   4.664  10.746 -0.7347  0.4780 -0.0101
16148TIP3    H269860   2.787   4.567  10.659 -0.4655  1.2108 -1.0677
16149TIP3   OH269861   0.063   1.846   6.413  0.2012  0.0801 -0.6070
16149TIP3    H169862   0.054   1.912   6.481  2.2243 -1.3189  1.0906
16149TIP3    H269863   0.057   1.762   6.460 -1.0514 -0.9518 -2.5246
16150TIP3   OH269864   2.327   5.011   5.058  0.2957 -0.6636 -0.0178
16150TIP3    H169865   2.355   4.924   5.029  1.0794 -0.3899 -0.0923
16150TIP3    H269866   2.308   5.058   4.978 -1.0771 -1.0765  0.0612
16151TIP3   OH269867   0.615   5.720   3.661  0.3505 -0.4013 -0.0350
16151TIP3    H169868   0.661   5.740   3.743  0.6062 -1.3482  0.0566
16151TIP3    H269869   0.684   5.715   3.595 -0.0666  2.7258 -0.8039
16152TIP3   OH269870   0.258   0.765  15.279 -0.3088 -0.2678 -0.1488
16152TIP3    H169871   0.352   0.746  15.275 -0.1404  0.7298 -1.1686
16152TIP3    H269872   0.222   0.723  15.201 -0.3852  1.0369 -0.8361
16153TIP3   OH269873   1.326   3.811   5.090  0.6620  0.4221 -0.4031
16153TIP3    H169874   1.352   3.723   5.065  2.7323  0.7745  0.4159
16153TIP3    H269875   1.306   3.805   5.183 -0.7508  0.4910 -0.6889
16154TIP3   OH269876   6.055   5.341   3.701  0.4256 -0.0757  0.1164
16154TIP3    H169877   5.991   5.408   3.725 -0.4492 -1.1229  0.7296
16154TIP3    H269878   6.114   5.385   3.640  0.1348  1.3893  0.8760
16155TIP3   OH269879   4.965   4.490   0.319 -0.1404  0.3619  0.2576
16155TIP3    H169880   4.963   4.464   0.412  0.6093 -0.0683  0.1561
16155TIP3    H269881   4.980   4.408   0.272 -2.9675  0.1999 -0.4177
16156TIP3   OH269882   0.259   6.597  12.763  0.2068 -0.2445 -0.2381
16156TIP3    H169883   0.225   6.592  12.673  0.0188  0.2688 -0.1970
16156TIP3    H269884   0.205   6.664  12.805  1.0433  0.3305 -0.0753
16157TIP3   OH269885   1.752   2.304   0.942  0.6977 -0.2528 -0.1847
16157TIP3    H169886   1.692   2.371   0.908  1.0061 -0.6016 -1.4073
16157TIP3    H269887   1.839   2.336   0.920  0.7802 -1.9960 -2.5344
16158TIP3   OH269888   5.041   2.476  12.541  0.5016  0.4905  0.3014
16158TIP3    H169889   4.967   2.425  12.574  0.1757  1.2891  0.8367
16158TIP3    H269890   5.106   2.472  12.611  0.5929  0.5497  0.2192
16159TIP3   OH269891   1.816   0.189   4.639  0.2293 -0.1033  0.0883
16159TIP3    H169892   1.827   0.284   4.628 -0.9958  0.0119 -0.1978
16159TIP3    H269893   1.840   0.173   4.731  2.0392  0.2307 -0.3193
16160TIP3   OH269894   0.479   3.135  11.058  0.2583  0.1191  0.4085
16160TIP3    H169895   0.555   3.093  11.017  0.8875 -0.4733  2.1663
16160TIP3    H269896   0.405   3.110  11.003  0.9533 -1.4370  0.1620
16161TIP3   OH269897   0.286   6.382   4.521  0.3518  0.0107 -0.0898
16161TIP3    H169898   0.263   6.462   4.473 -0.5696 -0.3445 -0.2434
16161TIP3    H269899   0.347   6.337   4.463 -0.8674 -0.4845 -0.9986
16162TIP3   OH269900   4.275   0.392   4.553 -0.4154  0.0187 -0.0982
16162TIP3    H169901   4.251   0.402   4.645  0.7484  0.4137  0.1661
16162TIP3    H269902   4.252   0.301   4.532  0.1995 -0.3619  0.8514
16163TIP3   OH269903   6.734   6.082   4.478  0.0485 -0.0208 -0.2126
16163TIP3    H169904   6.745   6.086   4.383 -1.4832 -0.2054 -0.4100
16163TIP3    H269905   6.668   6.148   4.497  0.9206  0.5715  0.8345
16164TIP3   OH269906   6.254   1.129  12.622 -0.3914 -0.0421  0.2612
16164TIP3    H169907   6.198   1.187  12.673 -0.3442 -1.0806  1.5168
16164TIP3    H269908   6.206   1.046  12.619  0.4172 -0.5099  0.1251
16165TIP3   OH269909   3.611   0.051   2.571  0.1653  0.2680 -0.4609
16165TIP3    H169910   3.602   0.104   2.492 -0.2772 -0.6125 -1.0110
16165TIP3    H269911   3.689  -0.004   2.554 -1.1262 -1.3946 -1.1712
16166TIP3   OH269912   2.719   3.982  10.359  0.4947 -0.3130 -0.5223
16166TIP3    H169913   2.798   4.014  10.317 -0.0270 -0.2999 -1.5082
16166TIP3    H269914   2.667   3.944  10.288 -0.4590 -0.1776  0.0818
16167TIP3   OH269915   6.566   0.174  13.443  0.4571  0.4830  0.2277
16167TIP3    H169916   6.575   0.080  13.458  0.1476  0.4804  0.4074
16167TIP3    H269917   6.609   0.214  13.518 -0.5403  0.4729  0.8246
16168TIP3   OH269918   5.734   2.380  12.096 -0.4214 -0.1493 -0.6390
16168TIP3    H169919   5.751   2.455  12.038 -1.0674 -0.3259 -1.0555
16168TIP3    H269920   5.821   2.355  12.128 -0.2305  1.0304 -0.1738
16169TIP3   OH269921   6.318   6.490  12.613  0.7084 -0.0952  0.2177
16169TIP3    H169922   6.293   6.399  12.631 -0.4421  0.3908  1.1514
16169TIP3    H269923   6.390   6.507  12.674 -0.3205  0.1932  1.3732
16170TIP3   OH269924   1.697   2.872   5.347 -0.4860 -0.1370  0.4271
16170TIP3    H169925   1.710   2.966   5.355 -0.5583 -0.1805  1.0973
16170TIP3    H269926   1.783   2.835   5.366 -1.3353 -0.3857  4.0146
16171TIP3   OH269927   2.378   1.166   4.667 -0.1243  0.1271  0.6398
16171TIP3    H169928   2.473   1.162   4.656 -0.2338  0.1956 -0.4242
16171TIP3    H269929   2.350   1.234   4.606 -0.6768  1.3177  2.2015
16172TIP3   OH269930   1.366   5.070  17.137 -0.0945 -0.4378  0.0108
16172TIP3    H169931   1.441   5.076  17.078 -0.6326 -1.9757 -0.8514
16172TIP3    H269932   1.335   5.160  17.146  2.2237  0.3140  0.8971
16173TIP3   OH269933   1.560   6.646   0.573  0.0800 -0.1802 -0.1518
16173TIP3    H169934   1.581   6.556   0.549 -0.4383  0.7122 -4.4073
16173TIP3    H269935   1.645   6.687   0.588  0.2745 -1.5825  2.8760
16174TIP3   OH269936   5.741   2.300   3.908  0.2854  0.1405 -0.6343
16174TIP3    H169937   5.661   2.350   3.920  0.2196 -0.2577  0.6071
16174TIP3    H269938   5.712   2.209   3.905  0.3608  0.1505 -3.2318
16175TIP3   OH269939   4.605   4.473  14.902  0.3011 -0.2460 -0.0636
16175TIP3    H169940   4.657   4.548  14.932  0.4806 -0.1621 -0.5746
16175TIP3    H269941   4.669   4.403  14.891  0.4836  0.1854 -1.8079
16176TIP3   OH269942   4.106   0.602  16.896  0.1022  0.9308 -0.0670
16176TIP3    H169943   4.109   0.679  16.952  2.6600  0.2505  0.7694
16176TIP3    H269944   4.166   0.622  16.824  0.6682 -0.2358  0.0795
16177TIP3   OH269945   5.442   5.180   4.094  0.1688  0.0703 -0.2315
16177TIP3    H169946   5.444   5.206   4.186  0.5833 -0.0136 -0.2182
16177TIP3    H269947   5.431   5.085   4.097  0.4022  0.0424 -0.2671
16178TIP3   OH269948   3.701   2.923   0.216  0.4507  0.2625  0.1940
16178TIP3    H169949   3.705   2.877   0.300 -2.2244  0.1416  0.3180
16178TIP3    H269950   3.713   3.015   0.239  2.0913  0.0021  0.4036
16179TIP3   OH269951   0.820   6.160   1.622 -0.1701  0.2608 -0.0237
16179TIP3    H169952   0.792   6.147   1.531  0.0459  2.9760 -0.5133
16179TIP3    H269953   0.746   6.129   1.674 -1.0059  0.3252 -1.1515
16180TIP3   OH269954   6.172   3.320   4.323  0.3345 -0.0951  0.4753
16180TIP3    H169955   6.253   3.343   4.368  0.1763  0.6795  0.3552
16180TIP3    H269956   6.133   3.403   4.298 -0.4428 -0.4710  0.4257
16181TIP3   OH269957   1.986   3.462   3.265 -0.0287 -0.2217  0.2634
16181TIP3    H169958   2.043   3.501   3.199 -0.1405  3.3641  2.1579
16181TIP3    H269959   1.908   3.518   3.265 -1.1884 -1.8098  1.5154
16182TIP3   OH269960   4.540   2.479  14.742 -0.4375 -0.0035  0.3474
16182TIP3    H169961   4.602   2.478  14.814 -0.9229  1.1458  0.7963
16182TIP3    H269962   4.519   2.572  14.729  0.6327 -0.0516 -2.1303
16183TIP3   OH269963   2.901   3.256   1.687 -0.2323 -0.1809  0.3256
16183TIP3    H169964   2.926   3.322   1.623  0.3901  0.3976  1.1447
16183TIP3    H269965   2.879   3.307   1.766 -1.8663 -0.8238  0.2878
16184TIP3   OH269966   0.143   2.631  13.245  0.1755 -0.1561  0.8064
16184TIP3    H169967   0.219   2.682  13.274  0.8848  0.6905 -2.2900
16184TIP3    H269968   0.181   2.548  13.215 -0.1570  0.1135 -0.3683
16185TIP3   OH269969   3.530   1.272   6.187 -0.0247  0.0359 -0.4462
16185TIP3    H169970   3.469   1.215   6.140 -1.3541  1.5426 -0.5813
16185TIP3    H269971   3.482   1.354   6.198  2.1262  1.3625 -0.8638
16186TIP3   OH269972   4.473   2.827  12.753 -0.7951 -0.1148  0.3994
16186TIP3    H169973   4.502   2.867  12.671 -0.2593 -1.4217 -0.0767
16186TIP3    H269974   4.432   2.744  12.726  0.6482 -1.2361  1.5170
16187TIP3   OH269975   6.726   5.440  12.423 -0.2176  0.3741 -0.1052
16187TIP3    H169976   6.646   5.409  12.381  1.4836 -2.2205 -1.5670
16187TIP3    H269977   6.789   5.448  12.352  1.4288  0.3555  1.3193
16188TIP3   OH269978   1.066   1.074   4.920  0.0459 -0.3853 -0.3870
16188TIP3    H169979   1.067   0.978   4.929 -0.2263 -0.3900 -0.3895
16188TIP3    H269980   1.155   1.101   4.943 -0.4111 -0.4679  1.5885
16189TIP3   OH269981   4.521   4.583   3.737  0.5422 -0.5227  0.4167
16189TIP3    H169982   4.570   4.511   3.697  0.4138 -1.0533  1.1866
16189TIP3    H269983   4.530   4.568   3.831  1.2279  0.9640  0.6055
16190TIP3   OH269984   3.897   6.700  12.582  0.8324 -0.0187  0.6682
16190TIP3    H169985   3.880   6.774  12.640  0.8401  1.7160 -1.4698
16190TIP3    H269986   3.984   6.718  12.546  0.6130 -0.8025 -0.2540
16191TIP3   OH269987   2.257   5.078   2.448  0.2272 -0.3746 -0.0432
16191TIP3    H169988   2.198   5.039   2.384  0.1239  0.2810 -0.3503
16191TIP3    H269989   2.343   5.079   2.406  0.4466 -1.2495  0.3708
16192TIP3   OH269990   0.137   4.457  13.548  0.0738  0.1931 -0.2616
16192TIP3    H169991   0.187   4.380  13.574 -0.0933  0.2550  0.2433
16192TIP3    H269992   0.165   4.526  13.608 -0.4927  0.2714 -0.0837
16193TIP3   OH269993   0.580   2.792   6.067  0.2244 -0.1596  0.1814
16193TIP3    H169994   0.634   2.721   6.033  0.0591 -0.8621  1.3557
16193TIP3    H269995   0.607   2.802   6.158  0.8838  1.9195 -0.2275
16194TIP3   OH269996   3.780   3.536  14.464 -0.1726  0.0322 -0.1870
16194TIP3    H169997   3.853   3.598  14.455 -0.4310  0.2658 -0.7043
16194TIP3    H269998   3.718   3.563  14.397  1.0414 -2.6981 -2.4924
16195TIP3   OH269999   5.733   0.208   2.757 -0.0383  0.0976 -0.2480
16195TIP3    H170000   5.772   0.126   2.785 -0.8929  0.2492  1.4390
16195TIP3    H270001   5.797   0.245   2.695  2.5046  0.3047  2.3672
16196TIP3   OH270002   1.960   4.353  16.438 -0.2448 -0.1265  0.4938
16196TIP3    H170003   1.888   4.416  16.430  0.3567  0.5179  0.1101
16196TIP3    H270004   1.940   4.305  16.519  0.2418  1.7916  1.7974
16197TIP3   OH270005   5.507   3.200  15.165  0.3370  0.5876 -0.3661
16197TIP3    H170006   5.590   3.153  15.175  0.4776  0.9003 -0.0659
16197TIP3    H270007   5.460   3.183  15.246  1.2059  2.5798  0.6073
16198TIP3   OH270008   5.746   5.015   1.954  0.4388 -0.2510 -0.4744
16198TIP3    H170009   5.800   4.995   1.878  0.9461 -1.8117  0.2732
16198TIP3    H270010   5.808   5.045   2.021  0.4885 -2.7337  0.6200
16199TIP3   OH270011   0.082   2.928   4.528 -0.0460 -0.2358 -0.2316
16199TIP3    H170012   0.117   2.848   4.490  0.8226  0.3145 -0.6213
16199TIP3    H270013   0.119   2.931   4.616  0.1289 -0.1471 -0.3063
16200TIP3   OH270014   3.420   6.730   1.969  0.1371  0.0233  0.2347
16200TIP3    H170015   3.515   6.727   1.980  0.1314  0.7734  0.5113
16200TIP3    H270016   3.397   6.822   1.979 -0.4246  0.1070 -1.5876
16201TIP3   OH270017   6.478   6.423   2.265  0.3058 -0.7448 -0.2933
16201TIP3    H170018   6.510   6.379   2.344 -0.5460 -0.3508  0.2831
16201TIP3    H270019   6.501   6.515   2.277  0.0275 -0.6566 -0.4242
16202TIP3   OH270020   3.700   0.346  14.205  0.5182  0.1550  0.1261
16202TIP3    H170021   3.669   0.328  14.116 -0.0113 -0.6223  0.4667
16202TIP3    H270022   3.662   0.431  14.227 -0.1825 -0.1237 -0.0057
16203TIP3   OH270023   1.535   4.578   3.449  0.1973 -0.4557  0.1012
16203TIP3    H170024   1.564   4.660   3.488 -0.9016  0.0554 -0.1147
16203TIP3    H270025   1.448   4.598   3.414  0.8914 -1.0778 -2.0351
16204TIP3   OH270026   3.694   1.082   6.027  0.2653 -0.3272 -0.4104
16204TIP3    H170027   3.746   1.006   6.050  1.2799 -0.4162 -2.8059
16204TIP3    H270028   3.603   1.054   6.039  0.6946 -0.7109  2.1772
16205TIP3   OH270029   0.860   3.116  10.403 -0.1613 -0.3747  0.9458
16205TIP3    H170030   0.858   3.204  10.442 -0.4285 -0.5397  1.2968
16205TIP3    H270031   0.950   3.086  10.416  0.1786  0.2152  0.0211
16206TIP3   OH270032   6.625   5.114  11.963 -0.2300  0.1758  0.3622
16206TIP3    H170033   6.534   5.092  11.981 -0.1410  0.3817  1.0669
16206TIP3    H270034   6.642   5.078  11.876 -0.9338 -0.0076  0.3018
16207TIP3   OH270035   1.263   2.125  14.355 -0.2236 -0.3794  0.0052
16207TIP3    H170036   1.315   2.046  14.340 -1.4295 -1.1039 -0.3587
16207TIP3    H270037   1.178   2.106  14.316 -1.1657  0.3267  1.6688
16208TIP3   OH270038   4.870   5.502  12.435 -0.2003  0.1101 -0.0732
16208TIP3    H170039   4.795   5.562  12.439 -0.8609 -0.7412  0.5846
16208TIP3    H270040   4.844   5.437  12.369  0.9941  1.1691 -1.6283
16209TIP3   OH270041   5.483   6.426  10.982  0.0748 -0.0614 -0.5393
16209TIP3    H170042   5.558   6.399  10.929 -0.4167 -0.9178 -0.7917
16209TIP3    H270043   5.487   6.370  11.060  0.3591  0.6786 -0.0118
16210TIP3   OH270044   4.233   4.518  15.498  0.0961 -0.4743  0.1348
16210TIP3    H170045   4.168   4.479  15.556  0.2490 -0.3508  0.3926
16210TIP3    H270046   4.182   4.564  15.432 -0.1034  1.4760  1.5783
16211TIP3   OH270047   1.481   4.999  10.781 -0.7490 -0.1054  0.6262
16211TIP3    H170048   1.565   5.043  10.768 -0.3910 -0.5661  1.3275
16211TIP3    H270049   1.501   4.906  10.771 -1.1113 -0.2394  1.1340
16212TIP3   OH270050   2.594   0.589  13.608 -0.4357  0.4418  0.4629
16212TIP3    H170051   2.565   0.615  13.696  0.5759 -1.1483  1.2887
16212TIP3    H270052   2.520   0.538  13.573 -1.0543  1.5301  0.1721
16213TIP3   OH270053   4.369   5.774  15.897  1.3535  0.3301  0.5602
16213TIP3    H170054   4.435   5.800  15.832  1.5494 -0.3157  0.4978
16213TIP3    H270055   4.331   5.694  15.862 -1.0913  1.9222 -0.5292
16214TIP3   OH270056   3.117   1.090   5.358 -0.4376  0.1106 -0.2143
16214TIP3    H170057   3.206   1.061   5.377 -1.2499 -0.4783  2.9885
16214TIP3    H270058   3.120   1.185   5.372 -0.4472  0.0075  0.5130
16215TIP3   OH270059   6.571   5.408   5.317 -0.4165 -0.5260  0.2403
16215TIP3    H170060   6.489   5.455   5.333 -0.6677 -0.5673 -0.9081
16215TIP3    H270061   6.547   5.338   5.256  0.3476 -0.9256  0.3915
16216TIP3   OH270062   0.671   5.088   1.459  0.1321  0.4206 -0.2560
16216TIP3    H170063   0.640   5.178   1.466 -1.1742 -0.0490  0.1240
16216TIP3    H270064   0.598   5.035   1.490  0.1235 -0.8973 -2.4093
16217TIP3   OH270065   1.299   2.195  14.064  0.5570  0.2218 -0.3933
16217TIP3    H170066   1.358   2.241  14.125 -2.7094  2.4023  1.2893
16217TIP3    H270067   1.284   2.258  13.994 -1.3380  0.5101  0.2427
16218TIP3   OH270068   5.309   0.873  14.244  0.4031 -0.3301 -0.2066
16218TIP3    H170069   5.301   0.841  14.333  0.3578  0.1698 -0.0318
16218TIP3    H270070   5.402   0.895  14.234  0.3211  0.0579 -0.1306
16219TIP3   OH270071   2.977   2.688   1.374  0.2298  0.0210 -0.3624
16219TIP3    H170072   3.070   2.670   1.388 -0.1220  0.0391  2.2049
16219TIP3    H270073   2.969   2.783   1.387  0.0499  0.2154 -1.8296
16220TIP3   OH270074   0.204   0.334  11.876  0.0777 -0.2451 -0.3631
16220TIP3    H170075   0.255   0.260  11.908 -1.7078 -1.2872  0.0934
16220TIP3    H270076   0.270   0.397  11.847  1.6262 -1.6095  0.1184
16221TIP3   OH270077   2.722   3.251  11.298 -0.5889 -0.1167  0.1639
16221TIP3    H170078   2.716   3.261  11.393  0.2136  1.0816  0.0968
16221TIP3    H270079   2.805   3.206  11.283  0.7248  2.3372 -0.1224
16222TIP3   OH270080   2.674   5.749   3.776 -0.1839  0.0236 -0.3902
16222TIP3    H170081   2.711   5.812   3.715 -0.1279  0.1545 -0.2196
16222TIP3    H270082   2.710   5.773   3.861  0.9328 -1.0778 -0.5393
16223TIP3   OH270083   4.043   2.690  13.321 -0.0199  0.0809 -0.5466
16223TIP3    H170084   4.034   2.699  13.226  1.3095  1.8359 -0.5393
16223TIP3    H270085   4.004   2.605  13.341 -1.3863  0.2244 -2.5019
16224TIP3   OH270086   1.940   1.928  15.834 -0.2122 -0.3285 -0.0814
16224TIP3    H170087   2.008   1.878  15.789  0.3085  0.8345 -0.5944
16224TIP3    H270088   1.956   2.019  15.809 -1.6611  0.0121  0.1869
16225TIP3   OH270089   2.167   6.209  13.302 -0.2388  0.0455  0.2505
16225TIP3    H170090   2.253   6.246  13.282 -0.5091  0.4180 -0.2466
16225TIP3    H270091   2.184   6.140  13.367  0.3618  0.5289  0.6122
16226TIP3   OH270092   0.248   1.012  15.382  0.6640  0.2541  0.1329
16226TIP3    H170093   0.245   0.926  15.340  2.0080  0.9233 -1.3855
16226TIP3    H270094   0.297   1.066  15.321 -1.5585  2.5355  0.2871
16227TIP3   OH270095   5.648   5.692  16.920 -0.0554  0.1870 -0.7494
16227TIP3    H170096   5.562   5.734  16.926  0.2948  0.6786  1.3276
16227TIP3    H270097   5.629   5.599  16.928 -0.3930  0.2963 -0.2523
16228TIP3   OH270098   0.591   5.049   0.144 -0.0485 -0.2013  0.2649
16228TIP3    H170099   0.551   5.037   0.058 -0.5526  1.6504  0.2089
16228TIP3    H270100   0.656   4.979   0.151 -0.6708 -0.9388 -1.2215
16229TIP3   OH270101   3.510   3.530   2.765 -0.0175 -0.4900 -0.3499
16229TIP3    H170102   3.589   3.573   2.796  0.3822 -0.6685 -1.0998
16229TIP3    H270103   3.439   3.588   2.792  0.3663 -0.3535  0.3624
16230TIP3   OH270104   3.722   2.807  11.894 -0.2068 -0.0438  0.7183
16230TIP3    H170105   3.681   2.892  11.911  0.6287  0.3322  0.8910
16230TIP3    H270106   3.807   2.813  11.937  0.4831 -0.4040 -0.5820
16231TIP3   OH270107   3.566   6.514  12.133  0.0509 -0.0057 -0.3543
16231TIP3    H170108   3.502   6.463  12.083  0.3904 -0.0286 -0.7620
16231TIP3    H270109   3.564   6.601  12.093 -1.0146  0.5006  0.7621
16232TIP3   OH270110   4.362   2.039  14.498  0.0233 -0.1649 -0.1241
16232TIP3    H170111   4.346   2.133  14.502 -0.3658 -0.2657  0.8415
16232TIP3    H270112   4.401   2.017  14.583 -2.2688 -1.2948  0.6778
16233TIP3   OH270113   2.593   0.157  17.201  0.1284  0.8128 -0.4720
16233TIP3    H170114   2.536   0.082  17.181 -0.0080  0.5912  0.7367
16233TIP3    H270115   2.610   0.197  17.116 -0.5877 -0.0272 -1.0194
16234TIP3   OH270116   3.967   0.926   3.231  0.0388 -0.8219  0.2707
16234TIP3    H170117   4.027   0.985   3.185 -1.8377  0.7111 -0.2358
16234TIP3    H270118   4.012   0.906   3.313  2.3019 -1.5866 -1.1034
16235TIP3   OH270119   3.817   1.329  16.046 -0.4153 -0.0033 -0.1711
16235TIP3    H170120   3.818   1.423  16.065  0.6627  0.1931 -1.1043
16235TIP3    H270121   3.850   1.323  15.956 -0.1073 -1.3020  0.0224
16236TIP3   OH270122   0.366   4.939   3.964 -0.2352 -0.5077 -0.2034
16236TIP3    H170123   0.311   4.994   3.907  1.2491 -0.1605 -1.3414
16236TIP3    H270124   0.344   4.968   4.053 -1.3846  0.0887 -0.6597
16237TIP3   OH270125   3.163   6.485  13.960  0.1306  0.0568 -0.4551
16237TIP3    H170126   3.195   6.551  13.898 -1.7661  1.6025  0.1565
16237TIP3    H270127   3.108   6.427  13.908  1.0380 -0.5005 -0.8082
16238TIP3   OH270128   2.338   0.924   1.408 -0.2600 -0.4666  0.0361
16238TIP3    H170129   2.300   0.841   1.381  1.0082  0.2265 -4.3137
16238TIP3    H270130   2.389   0.903   1.486 -1.8021 -3.2495  0.3617
16239TIP3   OH270131   3.076   6.151   4.076  0.0713 -0.1383 -0.1733
16239TIP3    H170132   3.042   6.077   4.025 -1.1506  0.6643 -0.5454
16239TIP3    H270133   3.155   6.178   4.028 -0.2579 -0.3112 -0.8198
16240TIP3   OH270134   3.201   4.385   4.974  0.0585  0.4039  0.0346
16240TIP3    H170135   3.192   4.295   5.005  1.3454 -0.0936 -0.9631
16240TIP3    H270136   3.112   4.418   4.966 -0.4698 -1.1623 -0.6590
16241TIP3   OH270137   2.018   3.853   0.201 -0.2505  0.2281  0.5330
16241TIP3    H170138   1.938   3.857   0.252 -0.9176 -1.8126 -0.3028
16241TIP3    H270139   2.020   3.763   0.166  2.7135  0.0416  1.0657
16242TIP3   OH270140   0.502   2.528   0.028 -0.5298 -0.1715 -0.1802
16242TIP3    H170141   0.505   2.523  -0.067 -0.3750  1.6649 -0.2850
16242TIP3    H270142   0.443   2.601   0.047  0.4169  0.2737  1.1079
16243TIP3   OH270143   2.225   4.174  16.826  0.4596 -0.3627  0.0626
16243TIP3    H170144   2.268   4.259  16.823 -0.7098  0.2135 -0.9816
16243TIP3    H270145   2.175   4.174  16.908  0.0267  0.1738 -0.2020
16244TIP3   OH270146   1.791   0.113   1.055 -0.4006 -0.0900 -0.5118
16244TIP3    H170147   1.788   0.167   0.976  1.5244  1.6826  0.5668
16244TIP3    H270148   1.747   0.166   1.121  2.1296  0.5103  0.7418
16245TIP3   OH270149   0.895   1.046   5.351  0.1979 -0.0038  0.3894
16245TIP3    H170150   0.898   0.968   5.295 -1.2195  1.1572 -1.3110
16245TIP3    H270151   0.964   1.103   5.317 -1.6586  1.3551 -1.1858
16246TIP3   OH270152   0.474   4.097   1.311  0.0440 -0.3828 -0.1807
16246TIP3    H170153   0.465   4.187   1.341  0.8429 -0.9574  1.8869
16246TIP3    H270154   0.568   4.081   1.308 -0.0594 -2.2994  3.3018
16247TIP3   OH270155   5.946   5.220   3.982  0.1303 -0.3130 -0.1161
16247TIP3    H170156   5.878   5.160   4.011 -2.5762  1.6757 -2.0733
16247TIP3    H270157   5.937   5.222   3.886  1.7109  1.3950 -0.2726
16248TIP3   OH270158   3.188   2.667  16.611 -0.5084 -0.4031 -0.5421
16248TIP3    H170159   3.127   2.601  16.578 -2.5784  1.0153  0.3326
16248TIP3    H270160   3.151   2.751  16.582 -0.2363  0.6255  1.9161
16249TIP3   OH270161   5.714   5.303   3.377 -0.2793  0.1898  0.5236
16249TIP3    H170162   5.692   5.211   3.393 -2.3670  0.9106  1.9405
16249TIP3    H270163   5.810   5.306   3.382 -0.3478 -1.3990  3.3847
16250TIP3   OH270164   1.825   3.120  14.158 -0.1709  0.1774 -0.3543
16250TIP3    H170165   1.788   3.149  14.241  0.6961  0.5809 -0.0949
16250TIP3    H270166   1.883   3.047  14.182 -1.9607 -1.4755 -0.9418
16251TIP3   OH270167   6.413   1.416  16.391  0.1340 -0.7844 -0.3250
16251TIP3    H170168   6.351   1.391  16.323  0.3939 -2.1304 -0.0858
16251TIP3    H270169   6.499   1.398  16.353  0.3679  0.3749 -0.3788
16252TIP3   OH270170   4.580   3.565   1.518  0.2500 -0.2965 -0.1232
16252TIP3    H170171   4.599   3.594   1.608 -2.4644  2.1556 -0.2981
16252TIP3    H270172   4.519   3.492   1.529  0.4286 -0.4258  0.0268
16253TIP3   OH270173   3.596   2.624  10.655  0.6305 -0.6460  0.1091
16253TIP3    H170174   3.626   2.704  10.612  0.4786 -0.0594  1.0720
16253TIP3    H270175   3.676   2.585  10.691  0.3456  0.7241  2.3511
16254TIP3   OH270176   4.553   1.357   4.438  0.0760  0.0331  0.3011
16254TIP3    H170177   4.625   1.418   4.454  0.8334 -0.6905 -0.3650
16254TIP3    H270178   4.538   1.315   4.523 -0.0176  0.6729  0.6058
16255TIP3   OH270179   5.522   4.421   6.029 -0.0306 -0.6337  0.2648
16255TIP3    H170180   5.485   4.488   6.086 -0.1768 -1.0454  0.6518
16255TIP3    H270181   5.447   4.368   6.002 -0.2602  0.6849 -1.8223
16256TIP3   OH270182   5.892   4.989  14.179  0.1506 -0.1357 -0.0870
16256TIP3    H170183   5.953   4.990  14.104  1.9040 -1.7600  1.2669
16256TIP3    H270184   5.896   4.899  14.211 -0.7699  0.4924  1.8198
16257TIP3   OH270185   4.454   1.385   2.490  0.0620 -0.2893  0.0851
16257TIP3    H170186   4.428   1.370   2.581  0.6950  1.9444  0.6500
16257TIP3    H270187   4.519   1.455   2.494 -0.4541  0.3741 -2.1755
16258TIP3   OH270188   4.180   2.542   2.067 -0.5505 -0.9125  0.1209
16258TIP3    H170189   4.118   2.593   2.119 -0.1068  0.4964 -0.7198
16258TIP3    H270190   4.266   2.568   2.099 -0.3392 -1.7712  0.2673
16259TIP3   OH270191   0.138   2.790  15.663 -0.0210  0.2037  0.3364
16259TIP3    H170192   0.083   2.737  15.720  0.6635 -0.1685  0.6600
16259TIP3    H270193   0.219   2.740  15.654  0.2254  0.6902 -0.2256
16260TIP3   OH270194   5.123   6.762  16.824 -0.1295  0.7487  0.4978
16260TIP3    H170195   5.133   6.740  16.917 -0.0956  1.0504  0.5643
16260TIP3    H270196   5.046   6.713  16.796 -0.5450  1.1948  0.8529
16261TIP3   OH270197   5.989   0.078   3.938 -0.0544 -0.3260  0.1287
16261TIP3    H170198   6.031   0.159   3.908 -3.5998  1.2748 -0.7280
16261TIP3    H270199   5.961   0.034   3.858  0.0435 -1.4240  0.6883
16262TIP3   OH270200   5.906   4.959  13.696 -0.3028  0.4409 -0.4560
16262TIP3    H170201   5.866   4.874  13.714 -0.6625 -0.0272 -3.2596
16262TIP3    H270202   5.996   4.950  13.724 -0.7358 -0.3602  0.6895
16263TIP3   OH270203   4.850   6.302   5.882  0.2929 -0.5487 -0.5190
16263TIP3    H170204   4.921   6.342   5.933 -0.3961  1.0919 -0.7905
16263TIP3    H270205   4.793   6.376   5.860 -1.2192 -1.7757 -0.7534
16264TIP3   OH270206   5.120   6.035  12.359  0.3815 -0.3302 -0.0969
16264TIP3    H170207   5.025   6.030  12.346  0.4625  0.0764 -0.9120
16264TIP3    H270208   5.133   6.111  12.416  0.2651  0.0542 -0.5796
16265TIP3   OH270209   0.278   6.439  11.724  0.2879  0.2450  0.3349
16265TIP3    H170210   0.339   6.423  11.797  1.2343  0.7397 -0.3363
16265TIP3    H270211   0.220   6.508  11.756  1.2817  1.1123  0.2795
16266TIP3   OH270212   6.176   0.518  13.010  0.1040  0.6124  0.5841
16266TIP3    H170213   6.172   0.423  13.017 -0.7182  0.5225 -0.8551
16266TIP3    H270214   6.150   0.537  12.920 -0.2433  2.2242  0.9928
16267TIP3   OH270215   4.101   6.028  11.761 -0.3656  0.3617 -0.0935
16267TIP3    H170216   4.120   6.108  11.811 -1.4888  0.1504  0.6876
16267TIP3    H270217   4.183   5.979  11.761  0.1678  1.2479 -0.0871
16268TIP3   OH270218   4.562   0.068   4.455  0.0866 -0.0339 -0.1949
16268TIP3    H170219   4.645   0.107   4.485  0.6230  0.4145 -2.1657
16268TIP3    H270220   4.589  -0.008   4.403 -0.7154  0.2781 -1.0872
16269TIP3   OH270221   5.928   2.618   2.773  0.1411  0.3411  0.4498
16269TIP3    H170222   5.924   2.547   2.709 -0.8058  0.4571  0.3708
16269TIP3    H270223   6.016   2.654   2.763 -0.0877  0.5445 -0.9992
16270TIP3   OH270224   1.711   1.765  15.236 -0.1391 -0.2497  0.2087
16270TIP3    H170225   1.757   1.694  15.281  2.1556  0.5189 -0.8500
16270TIP3    H270226   1.770   1.839  15.242 -1.8049  1.1431 -0.1400
16271TIP3   OH270227   6.039   1.847   0.997 -0.1262  0.0618 -0.4918
16271TIP3    H170228   6.066   1.825   1.086 -1.8430 -0.0337  0.0343
16271TIP3    H270229   6.066   1.772   0.944  0.2990 -0.1831  0.0640
16272TIP3   OH270230   6.775   6.534  16.803  0.1741  0.1842 -0.0596
16272TIP3    H170231   6.852   6.508  16.753 -0.3407 -0.7535 -0.3752
16272TIP3    H270232   6.711   6.563  16.738  0.6489  2.0592  0.2669
16273TIP3   OH270233   6.542   3.401   4.203 -0.0590 -0.1726 -0.3780
16273TIP3    H170234   6.531   3.495   4.189  0.3450  0.2393  1.9901
16273TIP3    H270235   6.623   3.379   4.156  0.3675  0.8574 -0.1277
16274TIP3   OH270236   4.491   5.537  13.088  0.0699 -0.6298  0.6665
16274TIP3    H170237   4.419   5.559  13.149 -1.1339 -0.0263 -0.9444
16274TIP3    H270238   4.558   5.603  13.107 -0.5863 -0.0008  0.8502
16275TIP3   OH270239   1.267   6.068   2.352 -0.7224 -0.4897  0.0264
16275TIP3    H170240   1.184   6.021   2.346 -0.7976 -0.7078  2.5238
16275TIP3    H270241   1.309   6.034   2.431  1.0910  0.6798 -0.3931
16276TIP3   OH270242   2.707   0.768  16.245 -0.3394  0.1467  0.0050
16276TIP3    H170243   2.623   0.793  16.207 -0.3768  0.4927  0.3193
16276TIP3    H270244   2.772   0.791  16.178 -0.4123  0.6745  0.1166
16277TIP3   OH270245   5.493   0.369  13.809 -0.2807  0.0227 -0.1268
16277TIP3    H170246   5.520   0.348  13.898 -0.5075 -1.6528 -0.4480
16277TIP3    H270247   5.512   0.463  13.800  3.0345 -0.5387  0.5030
16278TIP3   OH270248   0.526   0.790  12.503 -0.3716  0.1708 -0.2517
16278TIP3    H170249   0.454   0.784  12.566 -1.6164 -1.8540 -1.8080
16278TIP3    H270250   0.571   0.871  12.526  0.0749 -1.1704  4.1119
16279TIP3   OH270251   6.516   0.464  17.202 -0.5505  0.2462 -0.4425
16279TIP3    H170252   6.593   0.450  17.257 -1.6200  2.0175  1.5595
16279TIP3    H270253   6.539   0.423  17.118  1.1061 -2.4745  1.2794
16280TIP3   OH270254   1.354   3.621  12.316  0.4345  0.1252 -0.2329
16280TIP3    H170255   1.441   3.597  12.348  0.5179 -0.7785 -1.1065
16280TIP3    H270256   1.343   3.570  12.236 -0.5518  0.8904 -0.5996
16281TIP3   OH270257   6.633   2.241   2.492 -0.7301 -0.1658  0.5450
16281TIP3    H170258   6.602   2.296   2.419 -1.2920 -2.7889 -1.2729
16281TIP3    H270259   6.575   2.263   2.565 -2.6096 -0.1552 -0.8957
16282TIP3   OH270260   0.345   0.757   4.940  0.1378 -0.4189 -0.3941
16282TIP3    H170261   0.399   0.807   4.879 -0.1787 -2.6777 -2.6158
16282TIP3    H270262   0.404   0.692   4.977 -0.3280 -0.8899 -0.4661
16283TIP3   OH270263   5.056   5.915  12.658  0.2826  0.1784  0.4396
16283TIP3    H170264   5.002   5.993  12.673  0.5893  0.3883  0.4470
16283TIP3    H270265   5.067   5.912  12.563 -0.2606 -0.2133  0.3877
16284TIP3   OH270266   1.254   2.511   1.632  0.1191  0.0687  0.2143
16284TIP3    H170267   1.321   2.564   1.589 -1.1052  0.4047 -1.3290
16284TIP3    H270268   1.236   2.440   1.570 -1.6964  0.5765  0.1411
16285TIP3   OH270269   1.280   6.292  14.322 -0.3984 -0.6625 -0.3713
16285TIP3    H170270   1.262   6.228  14.391  0.7086 -0.3763  0.1943
16285TIP3    H270271   1.194   6.327  14.299 -0.7409 -0.5445  1.0719
16286TIP3   OH270272   4.850   5.066   4.988  0.2092 -0.3441 -0.5147
16286TIP3    H170273   4.938   5.047   4.956  0.8267 -0.4608  1.1786
16286TIP3    H270274   4.825   4.987   5.036  0.7360  1.0470  2.2142
16287TIP3   OH270275   6.151   3.996  14.599  0.3593 -0.2177  0.7631
16287TIP3    H170276   6.065   4.029  14.574  1.2092  1.1270 -0.4570
16287TIP3    H270277   6.157   3.911  14.557  1.3295  1.5426 -2.8506
16288TIP3   OH270278   6.490   3.187  15.088 -0.2206 -0.3128  0.4756
16288TIP3    H170279   6.465   3.279  15.071  1.1429  0.3819  2.1484
16288TIP3    H270280   6.417   3.152  15.139 -1.5062 -0.6611 -1.5322
16289TIP3   OH270281   0.013   5.771  14.677 -0.2989 -0.3538  0.4696
16289TIP3    H170282  -0.016   5.788  14.588 -0.5717  1.3084  0.8574
16289TIP3    H270283  -0.067   5.779  14.730  0.2464  0.8974  1.1231
16290TIP3   OH270284   2.079   1.268  14.595  0.5597  0.3176 -0.0427
16290TIP3    H170285   2.162   1.286  14.550  1.2870  0.3770  1.3018
16290TIP3    H270286   2.018   1.331  14.558  0.7536 -0.6135 -2.0271
16291TIP3   OH270287   3.388   0.229  14.848 -0.2775 -0.4641 -0.2131
16291TIP3    H170288   3.293   0.232  14.853 -0.3206  0.2715 -1.2834
16291TIP3    H270289   3.412   0.311  14.805  0.8013 -0.8679 -0.3972
16292TIP3   OH270290   4.328   1.726   5.687  0.0355 -0.0898  0.4417
16292TIP3    H170291   4.385   1.714   5.611  0.7424 -0.8892  1.0767
16292TIP3    H270292   4.363   1.665   5.752 -1.1889 -0.1522  1.0509
16293TIP3   OH270293   5.939   0.236  14.279 -0.1467 -0.1846  0.2603
16293TIP3    H170294   5.977   0.239  14.367 -1.5390  1.0423  0.8234
16293TIP3    H270295   5.859   0.184  14.289  0.8460 -1.9561 -0.7394
16294TIP3   OH270296   6.523   3.162   1.262  0.0655 -0.1078 -0.5056
16294TIP3    H170297   6.505   3.082   1.211 -0.2783 -0.6417  0.4263
16294TIP3    H270298   6.495   3.139   1.351  0.2029  0.9763 -0.1840
16295TIP3   OH270299   4.045   1.676  11.999  0.4606  0.4975  0.3227
16295TIP3    H170300   4.058   1.770  12.014 -1.7582  1.0589 -1.1260
16295TIP3    H270301   4.084   1.660  11.912 -1.2908  0.5897 -0.5016
16296TIP3   OH270302   6.709   0.900   3.159  0.1464 -0.6468  0.3673
16296TIP3    H170303   6.776   0.963   3.134 -0.2183 -0.4401 -0.1113
16296TIP3    H270304   6.670   0.936   3.238  0.3798 -0.5989  0.4587
16297TIP3   OH270305   5.553   4.935  16.347  0.0382 -0.0817 -0.3097
16297TIP3    H170306   5.631   4.966  16.301 -0.7545  2.0672 -0.2281
16297TIP3    H270307   5.480   4.978  16.304 -0.8177  0.9560  2.0688
16298TIP3   OH270308   5.211   6.028   5.010  0.3449 -0.3255 -0.1158
16298TIP3    H170309   5.226   5.979   5.090  0.8185  0.7408  0.4578
16298TIP3    H270310   5.287   6.009   4.955 -0.3437 -1.6580 -0.6305
16299TIP3   OH270311   2.130   0.201  11.344 -0.5405  0.2962 -0.1987
16299TIP3    H170312   2.047   0.247  11.330 -0.4669  0.8587  1.0781
16299TIP3    H270313   2.105   0.117  11.383 -0.4822  0.8141  0.9873
16300TIP3   OH270314   5.794   6.087  15.665 -0.3182 -0.4923  0.1630
16300TIP3    H170315   5.822   6.078  15.574 -0.3075 -2.3364  0.3368
16300TIP3    H270316   5.814   6.178  15.687  0.0899 -0.1583 -1.5364
16301TIP3   OH270317   1.621   3.476  10.945 -0.5624 -0.1234 -0.1644
16301TIP3    H170318   1.562   3.547  10.920 -0.2720  0.5817  1.1180
16301TIP3    H270319   1.585   3.444  11.028  1.9978  1.6213  1.6554
16302TIP3   OH270320   3.072   4.350   4.538 -0.0239 -0.0622  0.2321
16302TIP3    H170321   3.150   4.315   4.581 -0.7317 -1.5076  0.3757
16302TIP3    H270322   3.003   4.343   4.604 -0.2266  1.4258  0.1823
16303TIP3   OH270323   0.932   3.138   5.257 -0.4257  0.2182 -0.2638
16303TIP3    H170324   0.883   3.212   5.222  0.4961  0.8480 -0.2497
16303TIP3    H270325   0.865   3.076   5.287 -1.1980  1.2292  0.1128
16304TIP3   OH270326   2.377   1.099  15.640 -0.2496 -0.4860  0.2057
16304TIP3    H170327   2.392   1.071  15.550  1.9504  3.2015 -0.6693
16304TIP3    H270328   2.464   1.102  15.679 -0.9630  0.0112  1.7918
16305TIP3   OH270329   0.431   4.181   4.924  0.1820  0.4176 -0.3652
16305TIP3    H170330   0.397   4.248   4.983 -2.7017 -1.3560  0.0644
16305TIP3    H270331   0.474   4.117   4.982 -0.2022  0.0922 -0.4364
16306TIP3   OH270332   1.140   3.772   2.922 -0.6326 -0.2864 -0.4444
16306TIP3    H170333   1.118   3.832   2.994 -1.0976  0.2286 -1.0137
16306TIP3    H270334   1.165   3.691   2.966 -1.9100 -0.3097  0.2807
16307TIP3   OH270335   5.584   6.142   2.175  0.2186 -0.0979 -0.5561
16307TIP3    H170336   5.545   6.148   2.088 -0.2401 -0.1456 -0.3576
16307TIP3    H270337   5.564   6.053   2.204 -0.0989  0.0927 -0.1838
16308TIP3   OH270338   5.873   6.655   2.091  0.2335 -0.4417 -0.1829
16308TIP3    H170339   5.786   6.660   2.131  0.2032  2.5457 -0.5431
16308TIP3    H270340   5.932   6.643   2.165 -0.1592  1.3454  0.4401
16309TIP3   OH270341   0.728   1.889   0.300 -0.1199  0.6509 -0.0432
16309TIP3    H170342   0.791   1.939   0.352  1.0958  0.6952 -1.5499
16309TIP3    H270343   0.742   1.798   0.327  1.4992  0.5052 -1.2758
16310TIP3   OH270344   0.610   5.198  16.780 -0.3387 -0.1099 -0.0272
16310TIP3    H170345   0.644   5.272  16.730 -1.8606 -0.2004 -1.2530
16310TIP3    H270346   0.626   5.220  16.871  0.8792  0.8844 -0.4765
16311TIP3   OH270347   5.299   3.709  16.155  0.4254  0.2458  0.3416
16311TIP3    H170348   5.273   3.641  16.216 -0.4554  0.2052 -0.0696
16311TIP3    H270349   5.395   3.715  16.164  0.7467 -2.2992 -0.9146
16312TIP3   OH270350   3.581   5.646  16.593 -0.0895  0.6035 -0.2569
16312TIP3    H170351   3.628   5.591  16.531 -1.7745 -0.8477 -0.2772
16312TIP3    H270352   3.524   5.700  16.539 -1.3589 -0.4666  0.0022
16313TIP3   OH270353   1.347   2.149   1.433  0.6333  0.6237  0.7364
16313TIP3    H170354   1.393   2.099   1.500 -0.5154  0.7014  1.5956
16313TIP3    H270355   1.410   2.215   1.404  1.2002  0.4644  1.5995
16314TIP3   OH270356   5.767   0.850  11.975  0.5206 -0.1302 -0.3924
16314TIP3    H170357   5.747   0.767  11.932  0.5637 -0.9783  1.2037
16314TIP3    H270358   5.855   0.873  11.946  0.7314 -0.9372 -0.3814
16315TIP3   OH270359   2.115   6.049  12.093 -0.2358 -0.3728 -0.3742
16315TIP3    H170360   2.094   6.133  12.054 -1.4315 -0.2455  0.5084
16315TIP3    H270361   2.106   6.064  12.187 -2.2726 -1.9622 -0.2905
16316TIP3   OH270362   1.108   2.082  13.173  0.1816  0.4724 -0.3987
16316TIP3    H170363   1.132   2.063  13.264 -0.2599 -1.5828 -0.6824
16316TIP3    H270364   1.013   2.098  13.177  0.7746  4.3678  0.0723
16317TIP3   OH270365   2.523   4.193  12.860  0.8934  0.8847  0.3502
16317TIP3    H170366   2.575   4.130  12.809  0.8698 -0.1218  1.5535
16317TIP3    H270367   2.579   4.269  12.869  1.3008  0.6617 -0.2773
16318TIP3   OH270368   5.414   0.682   2.212  0.2895 -0.1739 -0.2799
16318TIP3    H170369   5.355   0.740   2.260  0.2441 -0.6807  0.2689
16318TIP3    H270370   5.499   0.726   2.215  0.1204  0.1663 -0.3994
16319TIP3   OH270371   2.732   2.923   6.518 -0.2854 -0.1877  0.1572
16319TIP3    H170372   2.807   2.883   6.563  0.3499 -0.0035 -0.7314
16319TIP3    H270373   2.662   2.858   6.526  0.4755 -1.1061 -0.4993
16320TIP3   OH270374   6.151   5.697   0.112  0.1473 -0.1557 -0.1777
16320TIP3    H170375   6.122   5.779   0.152  0.4824 -0.6866  1.1680
16320TIP3    H270376   6.233   5.719   0.068  0.7021  0.0367  0.9369
16321TIP3   OH270377   6.458   2.965   1.093 -0.2346  0.0280 -0.2185
16321TIP3    H170378   6.470   2.927   1.007  2.0697 -0.1772  0.1763
16321TIP3    H270379   6.391   2.911   1.135 -0.8743 -0.2676 -1.6189
16322TIP3   OH270380   5.205   0.341  13.527 -0.0635  0.4971 -0.1922
16322TIP3    H170381   5.241   0.256  13.553  0.3441  0.9115  0.6010
16322TIP3    H270382   5.282   0.393  13.503 -0.3839  0.3079 -1.7114
16323TIP3   OH270383   3.740   5.370   1.999  0.1576  0.2593 -0.3650
16323TIP3    H170384   3.743   5.400   1.908 -1.0399 -1.2850 -0.9342
16323TIP3    H270385   3.831   5.350   2.020  0.3985  0.2915 -1.3446
16324TIP3   OH270386   4.318   3.652  15.292 -0.4882  0.3749  0.8744
16324TIP3    H170387   4.235   3.604  15.290 -1.1592  1.5399  0.2434
16324TIP3    H270388   4.332   3.672  15.385 -0.8510  0.0747  0.9953
16325TIP3   OH270389   3.158   4.774  14.495 -0.6904 -0.7204 -0.0419
16325TIP3    H170390   3.123   4.863  14.487  0.6196 -0.3015 -1.3574
16325TIP3    H270391   3.236   4.783  14.550 -2.3129 -1.5825  2.4993
16326TIP3   OH270392   5.368   6.375  13.459 -0.4797 -0.1636  0.1303
16326TIP3    H170393   5.276   6.356  13.442 -0.4586 -0.4689  0.3601
16326TIP3    H270394   5.367   6.449  13.520 -0.5685  0.0032 -0.0729
16327TIP3   OH270395   5.110   3.945   6.560  0.2591 -0.0570 -0.1913
16327TIP3    H170396   5.154   3.947   6.476  0.0935  0.1497 -0.2744
16327TIP3    H270397   5.169   3.992   6.620 -1.3571  3.2179 -1.0366
16328TIP3   OH270398   2.951   3.505  14.448  0.6145  0.1692 -0.3010
16328TIP3    H170399   2.886   3.575  14.442 -0.7362 -0.7791  2.3935
16328TIP3    H270400   3.020   3.542  14.503  0.7811  0.0343 -0.4191
16329TIP3   OH270401   2.793   1.396   4.217 -0.2022  0.7486  0.5107
16329TIP3    H170402   2.829   1.323   4.168 -1.3870 -0.2365  1.0596
16329TIP3    H270403   2.709   1.414   4.175  1.1237  3.3861 -1.1112
16330TIP3   OH270404   3.492   2.571   4.352  0.3883  0.1699 -0.3834
16330TIP3    H170405   3.448   2.594   4.434 -0.4468 -0.6799 -0.5865
16330TIP3    H270406   3.493   2.653   4.303 -0.6074  0.3021 -0.2010
16331TIP3   OH270407   3.607   4.495  16.006 -0.1159  0.5120 -0.3623
16331TIP3    H170408   3.562   4.410  16.005  0.1637  0.3161  1.8593
16331TIP3    H270409   3.553   4.550  16.064  1.7191  0.6857  1.2377
16332TIP3   OH270410   1.187   4.567   1.125  0.1954 -0.4877  0.3103
16332TIP3    H170411   1.168   4.515   1.047 -0.9499  0.2074  0.1065
16332TIP3    H270412   1.282   4.579   1.124  0.1674 -0.2744 -1.1205
16333TIP3   OH270413   2.819   4.820   5.659 -0.1304  0.3799 -0.2603
16333TIP3    H170414   2.752   4.873   5.614  0.6099 -0.9715 -3.0879
16333TIP3    H270415   2.806   4.838   5.752 -4.4624  0.0956 -0.7297
16334TIP3   OH270416   5.284   0.196  12.428 -0.1477 -0.1079 -0.5040
16334TIP3    H170417   5.337   0.160  12.499  0.1969  2.2210  0.4672
16334TIP3    H270418   5.291   0.132  12.357  1.1330 -1.4901  0.8438
16335TIP3   OH270419   2.624   2.214  15.500 -0.0797 -0.4913 -0.0804
16335TIP3    H170420   2.598   2.271  15.428  1.2779  2.4064  1.6336
16335TIP3    H270421   2.705   2.172  15.470  0.4716  0.6988 -0.2643
16336TIP3   OH270422   0.945   4.209  10.746 -0.0009  0.1305 -0.3429
16336TIP3    H170423   0.899   4.231  10.665 -1.4347  0.7492  0.6116
16336TIP3    H270424   0.884   4.235  10.815  0.9919 -0.8701  0.9194
16337TIP3   OH270425   1.476   4.606  15.214  0.2100  0.2773  0.4702
16337TIP3    H170426   1.395   4.563  15.184  0.1970  0.9153 -0.4073
16337TIP3    H270427   1.458   4.627  15.306 -0.9112  1.0728  0.0899
16338TIP3   OH270428   4.278   6.711   2.317  0.2361  0.6892 -0.5865
16338TIP3    H170429   4.272   6.800   2.283 -1.1400  0.8566  0.0684
16338TIP3    H270430   4.319   6.720   2.403 -0.5406  0.7817 -0.2178
16339TIP3   OH270431   4.862   2.584   1.740 -0.1086  0.2708 -0.2400
16339TIP3    H170432   4.869   2.675   1.768  0.0538  0.3813 -0.6284
16339TIP3    H270433   4.772   2.576   1.709  0.4678  0.9012 -2.2190
16340TIP3   OH270434   5.705   6.114   2.912  0.5825 -0.4669 -0.0452
16340TIP3    H170435   5.684   6.041   2.852 -0.9639 -0.9152  1.0007
16340TIP3    H270436   5.760   6.074   2.979  1.3441 -0.2220 -0.5151
16341TIP3   OH270437   3.604   5.785  17.123  0.3160  0.0519 -0.2011
16341TIP3    H170438   3.508   5.783  17.123  0.3254 -0.5044  1.0822
16341TIP3    H270439   3.625   5.878  17.124 -0.2007  0.2060 -1.9221
16342TIP3   OH270440   6.605   5.673  12.836  0.0838 -0.1098 -0.3685
16342TIP3    H170441   6.527   5.724  12.857  0.1073 -0.5613  0.8971
16342TIP3    H270442   6.576   5.610  12.770 -0.9013 -0.9407  0.8141
16343TIP3   OH270443   5.392   0.438  16.282  0.4841 -0.3299  0.1669
16343TIP3    H170444   5.377   0.411  16.372  2.0496 -0.4592  0.4173
16343TIP3    H270445   5.342   0.377  16.229  1.2143 -1.5641  0.8719
16344TIP3   OH270446   0.506   1.197   0.796  0.1559 -0.5673  0.4997
16344TIP3    H170447   0.441   1.202   0.866 -0.1897 -1.0816  0.2243
16344TIP3    H270448   0.518   1.288   0.768  0.5114 -0.3315  1.4162
16345TIP3   OH270449   5.049   0.852  14.206  0.0830  0.2405  0.5060
16345TIP3    H170450   5.048   0.775  14.149  1.3000  0.8478 -0.3716
16345TIP3    H270451   5.142   0.864  14.227 -0.2463  0.6748  1.7381
16346TIP3   OH270452   3.105   1.108   4.813 -0.4313  0.0321  0.0119
16346TIP3    H170453   3.028   1.068   4.854 -0.8093  1.6481  0.9077
16346TIP3    H270454   3.160   1.136   4.886 -0.1335  1.0599 -0.6004
16347TIP3   OH270455   4.335   3.589  14.182  0.1372 -0.4853 -0.2397
16347TIP3    H170456   4.358   3.581  14.274  0.6923 -0.6842 -0.3957
16347TIP3    H270457   4.321   3.499  14.153  0.9956 -0.4928 -0.6161
16348TIP3   OH270458   2.522   0.557   1.814  0.7595  0.9832 -0.4870
16348TIP3    H170459   2.446   0.506   1.785  0.5139  1.0329  0.0668
16348TIP3    H270460   2.595   0.520   1.765  0.3716  0.9599 -1.0517
16349TIP3   OH270461   5.612   2.190   4.531  0.1699 -0.4872  0.4064
16349TIP3    H170462   5.570   2.275   4.544  0.2367 -0.3193 -0.4440
16349TIP3    H270463   5.550   2.140   4.478  0.9906 -0.2693 -0.7802
16350TIP3   OH270464   1.361   4.101  14.963  0.5110 -0.6062  0.5077
16350TIP3    H170465   1.337   4.083  15.054  0.3209 -0.7741  0.4245
16350TIP3    H270466   1.308   4.040  14.912 -0.5678  0.5479  0.1981
16351TIP3   OH270467   1.243   5.885   1.412 -0.3927 -0.6185 -0.3110
16351TIP3    H170468   1.157   5.855   1.383 -0.2416 -0.8427 -0.5294
16351TIP3    H270469   1.297   5.883   1.333  0.3646 -2.4894  0.2107
16352TIP3   OH270470   5.954   0.732  12.996 -0.2886  0.3838 -0.0980
16352TIP3    H170471   6.046   0.707  13.001 -0.7196 -1.0807  0.7879
16352TIP3    H270472   5.933   0.768  13.082 -0.5081  0.8005 -0.3257
16353TIP3   OH270473   3.527   1.246   3.335  0.3380  0.4218  0.0346
16353TIP3    H170474   3.507   1.189   3.409  1.1133 -1.1937 -0.9885
16353TIP3    H270475   3.518   1.190   3.258 -1.0303  2.2182 -1.1594
16354TIP3   OH270476   6.028   4.522   1.559 -0.5629 -0.0579  0.1343
16354TIP3    H170477   5.960   4.564   1.507  0.2962 -0.6623 -1.5161
16354TIP3    H270478   6.110   4.562   1.530 -0.1931  0.7029  2.1375
16355TIP3   OH270479   4.629   2.548  16.441  0.8374  0.6720  0.0124
16355TIP3    H170480   4.577   2.626  16.426  1.6573  1.5699  1.7066
16355TIP3    H270481   4.639   2.543  16.536  1.5034 -1.0172 -0.1238
16356TIP3   OH270482   5.960   3.122  14.557  0.4209  0.1415  0.3338
16356TIP3    H170483   5.993   3.195  14.608  0.6649 -0.2526  0.7380
16356TIP3    H270484   5.868   3.113  14.583  0.0395  1.0960 -0.6325
16357TIP3   OH270485   1.929   0.586   2.357 -0.6691  0.4557  0.2633
16357TIP3    H170486   1.881   0.666   2.334 -0.1496  0.2170 -1.7809
16357TIP3    H270487   2.021   0.611   2.350 -0.4572 -0.9552 -2.9750
16358TIP3   OH270488   3.657   6.139   4.750  0.0164 -0.3980 -0.4277
16358TIP3    H170489   3.658   6.133   4.654 -1.1867 -0.8008 -0.4210
16358TIP3    H270490   3.663   6.233   4.767  0.1211 -0.3171 -0.8974
16359TIP3   OH270491   3.629   4.394  13.290  0.3150 -0.1230  0.2625
16359TIP3    H170492   3.677   4.342  13.225  0.6089  2.4067 -1.6025
16359TIP3    H270493   3.547   4.416  13.247 -0.4378 -0.2897  1.6097
16360TIP3   OH270494   6.056   5.959   4.413 -0.4732  0.0046  0.6294
16360TIP3    H170495   6.140   5.986   4.450 -0.3485 -0.1865  0.4848
16360TIP3    H270496   6.079   5.910   4.335 -0.7618  1.0658 -0.1325
16361TIP3   OH270497   3.805   2.763  12.214  0.4820  0.2014 -0.2838
16361TIP3    H170498   3.796   2.690  12.154  0.6188  0.7892 -1.0285
16361TIP3    H270499   3.805   2.723  12.301  1.2793 -0.7470 -0.7082
16362TIP3   OH270500   5.836   5.662  13.656 -0.4597  0.4757 -0.1118
16362TIP3    H170501   5.903   5.644  13.722  0.3684  1.2588 -0.7252
16362TIP3    H270502   5.857   5.604  13.583  0.3172  1.6284 -0.8140
16363TIP3   OH270503   2.590   2.441   0.590  0.1262  0.4446 -0.0336
16363TIP3    H170504   2.648   2.492   0.646  2.1251 -2.9493  1.1855
16363TIP3    H270505   2.515   2.420   0.645  0.1730  0.5726  0.0781
16364TIP3   OH270506   5.176   5.857  13.340  0.0410 -0.2121 -0.3854
16364TIP3    H170507   5.250   5.806  13.374  1.1720  0.9370 -1.1123
16364TIP3    H270508   5.208   5.947  13.336 -0.8998  0.0696 -2.1027
16365TIP3   OH270509   5.639   1.333  11.190  0.1006  0.3266 -0.2053
16365TIP3    H170510   5.642   1.312  11.096  0.3088  1.1873 -0.4023
16365TIP3    H270511   5.666   1.425  11.194  0.2670  0.2398  0.7204
16366TIP3   OH270512   1.875   0.515   0.355 -0.4120  0.4080  0.3537
16366TIP3    H170513   1.835   0.428   0.362 -0.2687  0.3811  0.8359
16366TIP3    H270514   1.820   0.560   0.290 -0.3146 -0.1326 -0.1146
16367TIP3   OH270515   0.937   4.335  11.137  0.3334 -0.1646 -0.4335
16367TIP3    H170516   0.874   4.338  11.066  0.1517  0.4952 -0.2550
16367TIP3    H270517   0.974   4.424  11.140  0.2926 -0.1648  0.3274
16368TIP3   OH270518   3.909   3.487  10.468 -1.0062 -0.1995 -0.5696
16368TIP3    H170519   3.949   3.541  10.536  0.9349 -1.1052 -0.9377
16368TIP3    H270520   3.923   3.397  10.498 -2.7953 -0.5374 -0.7229
16369TIP3   OH270521   3.127   1.618  15.996 -0.0744 -0.4785  0.0214
16369TIP3    H170522   3.177   1.694  15.966  0.9675 -0.9347  0.5642
16369TIP3    H270523   3.166   1.596  16.081 -2.5863  0.4251  1.4579
16370TIP3   OH270524   0.602   0.760  15.891 -0.1007 -0.0816 -0.1777
16370TIP3    H170525   0.642   0.844  15.870 -1.5829  0.4901 -0.8453
16370TIP3    H270526   0.592   0.716  15.807 -0.1423 -0.5394  0.0648
16371TIP3   OH270527   3.798   0.860  13.997  0.5310  0.0847  0.0871
16371TIP3    H170528   3.884   0.842  14.034  0.4452 -4.2378 -1.5489
16371TIP3    H270529   3.743   0.788  14.027 -1.7470  1.1607 -1.3200
16372TIP3   OH270530   1.617   4.478  12.393 -0.0196 -0.1218  0.4890
16372TIP3    H170531   1.570   4.514  12.318 -0.0270  0.1848  0.6397
16372TIP3    H270532   1.549   4.437  12.447  0.0879 -1.0467 -0.0664
16373TIP3   OH270533   0.864   0.066   3.928  0.3467  0.1539  0.7067
16373TIP3    H170534   0.932  -0.000   3.932  0.2156 -0.2475 -2.4601
16373TIP3    H270535   0.782   0.016   3.918  0.2484  0.7237 -1.6812
16374TIP3   OH270536   3.521   5.860  16.237 -0.0724 -0.2782 -0.3176
16374TIP3    H170537   3.489   5.940  16.196  0.5509 -0.0022 -0.2750
16374TIP3    H270538   3.446   5.801  16.238 -0.2968 -0.0072 -1.1346
16375TIP3   OH270539   2.335   5.949   3.232  0.3456 -0.3879 -0.6724
16375TIP3    H170540   2.259   5.908   3.273  0.4166 -1.4011 -1.5579
16375TIP3    H270541   2.408   5.892   3.254  1.2225  1.5866  1.8205
16376TIP3   OH270542   2.939   4.070   3.166 -0.1160 -0.4578  0.3460
16376TIP3    H170543   2.935   3.981   3.200  0.9731 -0.3134  0.8723
16376TIP3    H270544   3.027   4.101   3.189  0.3504 -0.0634 -1.8958
16377TIP3   OH270545   1.302   1.257  17.236 -0.4610 -0.6052  0.0393
16377TIP3    H170546   1.212   1.245  17.268 -0.4964 -0.9119 -0.1663
16377TIP3    H270547   1.339   1.168  17.236  0.1070 -0.3645  0.9055
16378TIP3   OH270548   0.899   2.917   0.851  0.2759 -0.0663 -0.5300
16378TIP3    H170549   0.878   2.836   0.805  0.8530  1.6047 -3.8613
16378TIP3    H270550   0.989   2.907   0.880 -0.0119 -1.0173  0.0617
16379TIP3   OH270551   2.278   3.157  15.431  0.1695 -0.2116  0.1599
16379TIP3    H170552   2.211   3.204  15.481 -0.5579 -1.4783  0.4058
16379TIP3    H270553   2.283   3.203  15.348 -0.2800  0.5116  0.5252
16380TIP3   OH270554   5.655   3.844   1.115  0.9777  0.1225 -0.5203
16380TIP3    H170555   5.698   3.924   1.086 -0.0457  1.2974  1.1041
16380TIP3    H270556   5.562   3.866   1.116  0.6658 -1.1820 -0.3288
16381TIP3   OH270557   5.258   1.937  16.393  0.2937  0.3334  0.1409
16381TIP3    H170558   5.304   1.992  16.329 -0.2019  0.0506 -0.4680
16381TIP3    H270559   5.327   1.891  16.440  0.6229 -0.2435 -0.9088
16382TIP3   OH270560   2.880   3.849  17.073 -0.1790 -0.1050  0.1331
16382TIP3    H170561   2.854   3.912  17.006  0.2190  0.4937  0.5385
16382TIP3    H270562   2.918   3.776  17.023  0.7049  0.6144 -0.2679
16383TIP3   OH270563   1.469   1.624   5.119 -0.0674 -0.0125  0.1184
16383TIP3    H170564   1.467   1.719   5.130  0.9774 -0.0485  0.7417
16383TIP3    H270565   1.492   1.610   5.027 -0.5067  0.3265 -0.0457
16384TIP3   OH270566   4.138   3.179  13.548 -0.7648  0.3625  0.0346
16384TIP3    H170567   4.191   3.238  13.493  0.9361 -1.3531 -0.2131
16384TIP3    H270568   4.138   3.096  13.500  0.8556 -1.2078  2.6614
16385TIP3   OH270569   0.856   0.837  16.534 -0.4317  0.7958  0.3885
16385TIP3    H170570   0.824   0.879  16.614  1.0136 -1.1060  2.0304
16385TIP3    H270571   0.841   0.743  16.550 -1.8166  0.5178 -2.3502
16386TIP3   OH270572   5.935   3.445   5.041 -0.5338  0.1225  0.7702
16386TIP3    H170573   5.974   3.426   5.126  0.3829 -3.2216 -0.3188
16386TIP3    H270574   6.005   3.487   4.991 -0.2582 -0.2747  0.8223
16387TIP3   OH270575   5.208   0.683  15.431  0.1483  0.6496  0.1844
16387TIP3    H170576   5.174   0.594  15.446 -0.5221  0.9886  0.7354
16387TIP3    H270577   5.131   0.732  15.400 -0.1423  1.6906  2.4424
16388TIP3   OH270578   2.860   1.313   1.692  0.0692 -0.2505 -0.0143
16388TIP3    H170579   2.899   1.373   1.756  0.0877 -0.8675  0.5616
16388TIP3    H270580   2.917   1.318   1.616  0.7301 -0.4114  0.4610
16389TIP3   OH270581   5.094   0.552  10.920 -0.3419 -0.0624  0.0230
16389TIP3    H170582   5.064   0.607  10.992 -1.6996  0.4203 -0.8949
16389TIP3    H270583   5.054   0.467  10.936 -0.1859 -0.1102  0.1521
16390TIP3   OH270584   0.934   5.992   2.920  0.3639 -0.4997 -1.0771
16390TIP3    H170585   0.995   5.983   2.993  0.1852 -0.7814 -0.9605
16390TIP3    H270586   0.986   6.031   2.850  0.8114 -1.1918 -1.1377
16391TIP3   OH270587   0.643   2.552  14.278 -0.1121  0.4005 -0.2576
16391TIP3    H170588   0.621   2.462  14.257 -3.0455  1.0355 -0.1176
16391TIP3    H270589   0.582   2.576  14.348  0.5629  2.4965 -0.3460
16392TIP3   OH270590   6.067   4.947   1.155  0.3453  0.2273 -0.4459
16392TIP3    H170591   6.032   4.997   1.081 -2.0056 -2.8942 -1.5246
16392TIP3    H270592   6.162   4.951   1.144  0.0866  1.6977 -2.3322
16393TIP3   OH270593   3.257   5.781   2.558  0.0968  0.3159  0.1556
16393TIP3    H170594   3.181   5.798   2.614  0.3262  0.8482  0.3120
16393TIP3    H270595   3.227   5.802   2.469  0.1714  0.9055  0.2653
16394TIP3   OH270596   1.663   1.368   2.852  0.5075  0.2690 -0.0043
16394TIP3    H170597   1.619   1.318   2.921 -0.5238  0.5426 -0.4539
16394TIP3    H270598   1.673   1.455   2.889  0.3686  0.2932 -0.0218
16395TIP3   OH270599   6.780   5.173  13.271  0.3888  0.5155  0.1792
16395TIP3    H170600   6.691   5.143  13.292  1.0638 -0.5186  1.6459
16395TIP3    H270601   6.802   5.233  13.342  1.9855 -1.5482  1.4770
16396TIP3   OH270602   4.533   5.650   1.169  0.1844  0.2629 -0.8682
16396TIP3    H170603   4.461   5.710   1.188 -1.2649 -1.7724  0.2345
16396TIP3    H270604   4.591   5.658   1.245  0.1956  0.5386 -0.9033
16397TIP3   OH270605   3.804   1.198  13.507  0.1742 -0.0905  0.2679
16397TIP3    H170606   3.716   1.211  13.543 -0.6942  1.2774 -2.2632
16397TIP3    H270607   3.837   1.286  13.488  1.5930 -0.6487  0.0387
16398TIP3   OH270608   1.432   1.283  12.400 -0.5935 -0.0199 -0.4968
16398TIP3    H170609   1.461   1.313  12.487 -3.9018 -0.9300  0.9872
16398TIP3    H270610   1.492   1.211  12.379  1.1676  1.1604  0.3319
16399TIP3   OH270611   4.178   5.058   0.624 -0.4504  0.9182  0.2611
16399TIP3    H170612   4.204   5.028   0.537 -0.8641  0.4552  0.2982
16399TIP3    H270613   4.090   5.093   0.612 -1.6419 -1.7328  1.0534
16400TIP3   OH270614   1.003   5.410  13.226  0.1070  0.2320  0.7985
16400TIP3    H170615   0.996   5.486  13.169  2.0036  0.2912  0.6356
16400TIP3    H270616   1.013   5.336  13.166 -0.6369 -0.0417  0.9940
16401TIP3   OH270617   6.046   4.793  15.673  0.4913 -0.2967  0.3020
16401TIP3    H170618   6.134   4.808  15.707  0.9111 -1.6332 -0.1683
16401TIP3    H270619   6.047   4.703  15.641 -0.9332 -0.2020 -0.0674
16402TIP3   OH270620   0.280   0.863   4.333  0.2285  0.6981 -0.2496
16402TIP3    H170621   0.274   0.885   4.240 -1.7043  2.6181  0.2867
16402TIP3    H270622   0.245   0.774   4.340  0.8221  0.3690 -1.4106
16403TIP3   OH270623   3.834   2.688   5.917  0.6578 -0.2755  0.3261
16403TIP3    H170624   3.914   2.671   5.868  0.6556  0.0293  0.2175
16403TIP3    H270625   3.863   2.698   6.008  1.2772  3.8192 -0.2340
16404TIP3   OH270626   1.270   4.346   4.432  0.3544 -0.2414  0.0470
16404TIP3    H170627   1.339   4.357   4.497  0.2117 -0.1801  0.1890
16404TIP3    H270628   1.314   4.308   4.356  0.7024  0.5495 -0.1577
16405TIP3   OH270629   5.652   0.553   0.841  0.1506  0.7200 -0.8781
16405TIP3    H170630   5.639   0.614   0.768 -0.7625 -0.3133 -1.5987
16405TIP3    H270631   5.567   0.548   0.884  0.3381  0.3096 -0.5484
16406TIP3   OH270632   0.803   3.209  15.513  0.7819  0.1283 -0.8440
16406TIP3    H170633   0.766   3.295  15.534 -0.5610 -0.9255  1.3079
16406TIP3    H270634   0.842   3.179  15.595 -0.1827 -1.9915 -1.1326
16407TIP3   OH270635   2.993   4.152  11.080  0.4735 -0.4183 -0.3619
16407TIP3    H170636   3.073   4.204  11.086 -0.8378  1.4156  2.2613
16407TIP3    H270637   2.943   4.194  11.010  0.2826  0.6534  0.4021
16408TIP3   OH270638   1.212   4.641  13.629  0.0448 -0.7026  0.1227
16408TIP3    H170639   1.148   4.571  13.642 -2.0374  1.3521  1.2374
16408TIP3    H270640   1.199   4.669  13.539 -0.7943 -0.1383  0.4156
16409TIP3   OH270641   5.690   2.197   5.483  0.4069 -0.2543 -0.0742
16409TIP3    H170642   5.607   2.219   5.441  0.1211 -2.1311 -0.5736
16409TIP3    H270643   5.728   2.130   5.426  2.2990  0.6258  0.1178
16410TIP3   OH270644   6.676   1.779   2.352  0.0609  0.5620  0.0406
16410TIP3    H170645   6.610   1.849   2.352 -1.6165 -0.9360  2.1359
16410TIP3    H270646   6.694   1.764   2.445  2.2832 -0.0820 -0.4678
16411TIP3   OH270647   0.719   5.947  15.068 -0.3467  0.2866 -0.1519
16411TIP3    H170648   0.639   5.970  15.020 -1.3451 -0.4287  1.1551
16411TIP3    H270649   0.775   5.905  15.002 -2.6226 -2.7477 -0.2230
16412TIP3   OH270650   2.141   2.379   3.206 -0.1497 -0.0327 -0.3213
16412TIP3    H170651   2.143   2.291   3.242 -2.5951 -0.5009 -1.2006
16412TIP3    H270652   2.106   2.367   3.117 -0.4486  1.7983 -0.4675
16413TIP3   OH270653   5.905   2.480  15.721 -0.1364  0.4187 -0.2127
16413TIP3    H170654   5.957   2.482  15.640 -1.2130 -0.5470 -0.9389
16413TIP3    H270655   5.869   2.568  15.729 -0.1054  0.4896 -0.8459
16414TIP3   OH270656   1.405   1.319   1.311  0.4533  0.1214  0.4125
16414TIP3    H170657   1.401   1.407   1.347  1.0305  0.3438 -0.0529
16414TIP3    H270658   1.498   1.297   1.311  0.3082 -0.5110  0.5763
16415TIP3   OH270659   1.389   4.394   0.163 -0.0893  0.1532 -0.1336
16415TIP3    H170660   1.449   4.325   0.134  0.7452  1.2244 -1.0109
16415TIP3    H270661   1.343   4.356   0.238  3.1749  0.0365  1.9185
16416TIP3   OH270662   6.771   2.279   2.885 -0.3360 -0.2907 -0.2294
16416TIP3    H170663   6.741   2.353   2.832  0.5456  0.2966  0.0736
16416TIP3    H270664   6.705   2.269   2.953  0.6130  1.5958  1.0026
16417TIP3   OH270665   2.845   5.738  11.984 -0.5041  0.1133  0.2412
16417TIP3    H170666   2.767   5.745  12.039  1.2283  1.9341  2.5877
16417TIP3    H270667   2.897   5.815  12.008  1.7894 -0.8333 -1.6139
16418TIP3   OH270668   4.791   5.255   5.393 -0.2657 -0.6078 -0.2008
16418TIP3    H170669   4.712   5.286   5.435  0.3495  1.4242 -0.5102
16418TIP3    H270670   4.794   5.161   5.413 -1.0792 -0.0961  2.4931
16419TIP3   OH270671   0.629   4.906  13.868  0.3665  0.1223 -0.0505
16419TIP3    H170672   0.684   4.877  13.941  0.3009 -0.4121 -0.2103
16419TIP3    H270673   0.681   4.887  13.790  0.1335  0.0123 -0.1802
16420TIP3   OH270674   5.490   6.747  13.787 -0.0957  0.2525  0.0799
16420TIP3    H170675   5.524   6.763  13.875  2.4085 -1.1311 -0.6151
16420TIP3    H270676   5.425   6.817  13.774 -0.1767  0.7441  2.8204
16421TIP3   OH270677   2.297   4.753   1.532  0.1597  0.3150  0.0827
16421TIP3    H170678   2.271   4.828   1.586 -1.9752  0.6631 -1.3420
16421TIP3    H270679   2.383   4.777   1.497  0.3881  1.2070  1.2234
16422TIP3   OH270680   0.115   0.580  13.621 -0.8632 -0.8187  0.0534
16422TIP3    H170681   0.050   0.627  13.569 -0.2815  2.0148  1.7961
16422TIP3    H270682   0.194   0.580  13.567 -1.0914 -0.4598 -0.2817
16423TIP3   OH270683   0.375   2.621  16.330  0.6795 -0.8266 -0.3312
16423TIP3    H170684   0.320   2.574  16.393  0.5732  0.8251  0.8533
16423TIP3    H270685   0.323   2.623  16.250 -0.4377 -0.4359  0.3895
16424TIP3   OH270686   0.521   0.860  11.320 -0.4785  0.2542 -0.5183
16424TIP3    H170687   0.506   0.803  11.244  0.3892 -0.8177  0.1103
16424TIP3    H270688   0.492   0.946  11.290  0.8062  0.0587 -2.4155
16425TIP3   OH270689   3.612   1.836  13.121 -0.0824 -0.0081  0.8834
16425TIP3    H170690   3.706   1.853  13.130  0.1960 -0.5617 -0.8185
16425TIP3    H270691   3.604   1.741  13.131 -0.0944 -0.3087 -1.6511
16426TIP3   OH270692   6.575   2.476   3.365  1.0297 -0.4429 -0.8801
16426TIP3    H170693   6.512   2.460   3.294  1.2537  0.1308 -1.2112
16426TIP3    H270694   6.532   2.441   3.443  0.6161 -0.7306 -1.2321
16427TIP3   OH270695   4.883   4.905  12.311  0.6325 -0.1999  0.4492
16427TIP3    H170696   4.948   4.972  12.290  1.7341 -1.4091 -0.0512
16427TIP3    H270697   4.826   4.946  12.376 -0.0300  1.9817 -1.4492
16428TIP3   OH270698   0.461   0.853  16.105 -0.0284 -0.0319 -0.5046
16428TIP3    H170699   0.522   0.886  16.170  0.1885 -1.5143  0.0601
16428TIP3    H270700   0.515   0.835  16.028 -0.5946  3.6573 -1.8439
16429TIP3   OH270701   2.707   5.499  15.958  0.2464  0.2160 -0.2919
16429TIP3    H170702   2.649   5.483  15.883  1.0389  0.4519 -0.9627
16429TIP3    H270703   2.757   5.576  15.934 -0.4862  1.1477  1.1015
16430TIP3   OH270704   4.460   1.026   4.837 -0.1477  0.4320  0.0248
16430TIP3    H170705   4.397   1.027   4.765 -0.8645  1.4211  0.6446
16430TIP3    H270706   4.466   0.934   4.863 -0.6193  0.2032 -0.6556
16431TIP3   OH270707   5.307   0.016   4.299  0.0370 -0.2772  0.1911
16431TIP3    H170708   5.351  -0.031   4.228 -0.4441 -1.2320  0.5156
16431TIP3    H270709   5.270   0.093   4.257  2.1422  0.6330 -0.0592
16432TIP3   OH270710   4.902   3.231   5.538 -0.4449  0.1726  0.5440
16432TIP3    H170711   4.812   3.261   5.527 -0.2593  1.7707  2.9904
16432TIP3    H270712   4.894   3.145   5.579 -0.8594  1.3016  2.8915
16433TIP3   OH270713   1.841   3.817   4.848  0.1163 -0.1029 -0.1393
16433TIP3    H170714   1.836   3.870   4.928 -0.4136 -1.5718  0.8320
16433TIP3    H270715   1.813   3.876   4.778  0.0581  1.0482  0.8407
16434TIP3   OH270716   2.067   4.189  17.066 -0.1196  1.3719  0.6137
16434TIP3    H170717   2.090   4.150  17.150 -1.6226  1.7420  1.1963
16434TIP3    H270718   2.081   4.283  17.079  0.6743  1.3286  0.1097
16435TIP3   OH270719   2.611   5.840  11.577 -0.1573 -0.5571 -0.3042
16435TIP3    H170720   2.670   5.910  11.606  0.1642 -1.7623  2.1097
16435TIP3    H270721   2.655   5.799  11.503  1.3362 -0.4789  0.5318
16436TIP3   OH270722   2.304   0.250  15.147 -0.2061  0.2709  0.6139
16436TIP3    H170723   2.232   0.289  15.198  1.5329  2.0261  1.8080
16436TIP3    H270724   2.328   0.171  15.195 -1.8705 -0.7926 -0.2582
16437TIP3   OH270725   1.486   2.879  13.784  0.3068 -0.1803  0.8748
16437TIP3    H170726   1.563   2.936  13.776 -0.8742  1.7926  2.8905
16437TIP3    H270727   1.457   2.891  13.875 -1.1019 -2.5791  0.7710
16438TIP3   OH270728   5.407   0.721  11.800 -0.1019  0.5718 -0.4682
16438TIP3    H170729   5.402   0.627  11.781 -0.4672  0.7229 -1.1356
16438TIP3    H270730   5.320   0.744  11.831  0.1909  0.5481  0.3765
16439TIP3   OH270731   1.119   5.511  12.890  0.1346  0.1690 -0.1356
16439TIP3    H170732   1.198   5.553  12.923 -0.5700  0.5425  1.0928
16439TIP3    H270733   1.102   5.440  12.952 -1.0754  0.7480  0.2190
16440TIP3   OH270734   4.456   2.538   0.422 -0.2908 -0.1982  0.2734
16440TIP3    H170735   4.370   2.525   0.461  0.3078 -0.6475  1.4569
16440TIP3    H270736   4.492   2.450   0.414  0.9246  0.1502  1.7692
16441TIP3   OH270737   6.422   4.947  11.978  0.9043 -0.3981 -0.0333
16441TIP3    H170738   6.384   4.947  12.066 -0.1272  0.7939 -0.4675
16441TIP3    H270739   6.464   4.861  11.970 -1.4553 -1.6410  0.5703
16442TIP3   OH270740   1.597   3.058   4.755  0.0398 -0.4049 -0.3799
16442TIP3    H170741   1.594   2.996   4.827  0.2880 -0.5778 -0.5180
16442TIP3    H270742   1.525   3.119   4.773 -0.2010 -0.7255 -0.2397
16443TIP3   OH270743   0.164   4.142   5.518 -0.4219  0.3691  0.3879
16443TIP3    H170744   0.224   4.100   5.579  0.2422  0.5753 -0.1129
16443TIP3    H270745   0.094   4.079   5.505  1.3280 -1.2226 -1.5432
16444TIP3   OH270746   5.944   0.984   3.843 -0.1303  0.4481 -0.1256
16444TIP3    H170747   5.988   0.900   3.836  1.3600  1.0699  1.5318
16444TIP3    H270748   5.871   0.978   3.780  0.3800 -1.7781 -0.5475
16445TIP3   OH270749   2.077   3.175  10.425  0.3024  0.2313  0.2336
16445TIP3    H170750   2.044   3.098  10.471  0.6840  0.1719  0.4140
16445TIP3    H270751   2.009   3.241  10.437  0.0539 -0.0244  0.2292
16446TIP3   OH270752   3.925   4.516   4.988 -0.0266 -0.1728 -0.0501
16446TIP3    H170753   3.939   4.574   4.913  0.9479  0.7693  0.8487
16446TIP3    H270754   3.898   4.432   4.949 -1.1904  0.7849 -1.3704
16447TIP3   OH270755   3.364   1.628  15.811 -0.2449  0.1339 -0.3479
16447TIP3    H170756   3.441   1.678  15.785 -0.3890  0.5500  0.0167
16447TIP3    H270757   3.394   1.572  15.883 -0.3964  0.6558  0.1298
16448TIP3   OH270758   1.545   2.898   4.194 -1.1490 -0.3240  0.6542
16448TIP3    H170759   1.455   2.918   4.170 -0.9263  0.0344  0.0964
16448TIP3    H270760   1.539   2.860   4.282 -2.1018 -2.8957 -0.4664
16449TIP3   OH270761   3.896   4.863   0.231 -0.0454  0.1443 -0.7224
16449TIP3    H170762   3.852   4.946   0.213  0.7624  0.7463  0.0372
16449TIP3    H270763   3.989   4.883   0.220  0.1481 -0.6765 -0.5721
16450TIP3   OH270764   4.329   0.619  12.602  0.0873 -0.3114 -0.2596
16450TIP3    H170765   4.345   0.713  12.604  1.2077 -0.5191  1.4813
16450TIP3    H270766   4.413   0.581  12.576  0.0456 -0.9019  0.4545
16451TIP3   OH270767   4.047   0.674  16.304 -0.7473 -0.3951 -0.0422
16451TIP3    H170768   4.141   0.680  16.319 -0.4607  1.2599 -2.3157
16451TIP3    H270769   4.008   0.705  16.387  0.7154  0.4117  0.3639
16452TIP3   OH270770   6.201   3.188  14.896 -0.1783 -0.0646 -0.2519
16452TIP3    H170771   6.236   3.154  14.978  0.1334  2.8828  0.9126
16452TIP3    H270772   6.270   3.247  14.863 -1.6944  1.4027 -0.8657
16453TIP3   OH270773   6.452   0.275  16.301 -0.0858 -0.1420 -0.0765
16453TIP3    H170774   6.406   0.191  16.296 -0.6084  0.2077 -1.1331
16453TIP3    H270775   6.459   0.292  16.395  1.6149 -2.2322  0.2228
16454TIP3   OH270776   2.500   4.564  15.357  0.2918  0.4038 -0.3134
16454TIP3    H170777   2.516   4.582  15.264  0.4838  0.6255 -0.2387
16454TIP3    H270778   2.556   4.488  15.377 -1.2922 -0.9385 -0.8818
16455TIP3   OH270779   5.638   1.081  11.318  0.2654 -0.1853  0.1224
16455TIP3    H170780   5.656   1.165  11.275  0.3560 -1.1343 -1.7289
16455TIP3    H270781   5.547   1.062  11.295  0.4073 -0.8364  0.0858
16456TIP3   OH270782   2.214   3.212   3.888  0.2529  0.1117 -0.2625
16456TIP3    H170783   2.184   3.244   3.802 -0.0878  1.5095  0.3533
16456TIP3    H270784   2.211   3.290   3.944  0.2129 -0.8504  1.0874
16457TIP3   OH270785   2.647   5.839   0.836 -0.6584 -0.0077 -0.2260
16457TIP3    H170786   2.615   5.926   0.813  0.0589  0.1588 -0.6124
16457TIP3    H270787   2.643   5.837   0.932  0.6778  0.9807 -0.1332
16458TIP3   OH270788   6.545   1.431   1.366 -0.0887 -0.4998 -0.1109
16458TIP3    H170789   6.469   1.385   1.328  0.2897  0.8103 -2.5303
16458TIP3    H270790   6.513   1.463   1.451 -1.2751 -2.5887  0.2851
16459TIP3   OH270791   6.729   1.992  15.459 -0.1297  0.6392  0.1831
16459TIP3    H170792   6.662   1.980  15.392 -1.4379 -1.2482  1.7807
16459TIP3    H270793   6.710   2.078  15.496 -0.0222  1.2518 -1.1276
16460TIP3   OH270794   6.025   4.961  17.018  0.1550 -0.4319  0.0872
16460TIP3    H170795   5.947   5.003  16.983 -0.0896 -1.4828 -0.6667
16460TIP3    H270796   6.095   4.988  16.960  0.5198  1.1217  1.1983
16461TIP3   OH270797   5.655   3.212   1.381 -0.3745 -0.2973 -0.1585
16461TIP3    H170798   5.727   3.263   1.344  0.7395 -1.6589  0.0741
16461TIP3    H270799   5.651   3.133   1.326 -1.2651 -0.5382  0.2377
16462TIP3   OH270800   1.569   2.028  13.048 -0.3147 -0.2032 -0.2375
16462TIP3    H170801   1.495   2.016  13.107 -0.7477 -0.8964 -0.9240
16462TIP3    H270802   1.642   2.048  13.106 -0.7155 -0.9859  0.5458
16463TIP3   OH270803   3.585   2.320  13.883 -0.0637 -0.5237  0.1354
16463TIP3    H170804   3.509   2.262  13.891 -1.1414  1.0280  1.2147
16463TIP3    H270805   3.549   2.404  13.857  1.4234 -0.0909 -0.5897
16464TIP3   OH270806   6.139   3.484  14.561 -0.1286 -0.0986  0.2979
16464TIP3    H170807   6.101   3.430  14.630 -2.2335  0.8054 -0.1118
16464TIP3    H270808   6.206   3.536  14.606  1.0892 -2.1515  0.9190
16465TIP3   OH270809   0.523   0.174   0.216  0.2016 -0.2732 -0.2300
16465TIP3    H170810   0.480   0.098   0.256  1.1268 -0.1913  0.9679
16465TIP3    H270811   0.572   0.138   0.143  0.0826 -0.7270 -0.0884
16466TIP3   OH270812   5.327   1.417  15.343 -0.0381  0.3494  0.1550
16466TIP3    H170813   5.280   1.501  15.334 -1.5492 -0.3472  1.2657
16466TIP3    H270814   5.265   1.352  15.309  1.0262 -0.3513 -0.4563
16467TIP3   OH270815   3.164   3.624  14.570  0.0048 -0.3507 -0.1840
16467TIP3    H170816   3.251   3.588  14.588 -1.2667 -2.3981  2.2134
16467TIP3    H270817   3.141   3.671  14.650 -1.2149 -0.1049 -0.6741
16468TIP3   OH270818   2.669   6.534  12.754 -0.6125  0.1855 -0.1848
16468TIP3    H170819   2.576   6.531  12.777 -0.8715 -1.6764 -1.3123
16468TIP3    H270820   2.672   6.587  12.674 -1.1413 -2.1852 -1.8401
16469TIP3   OH270821   1.532   1.579  16.869 -0.3597  0.2275 -0.2749
16469TIP3    H170822   1.500   1.542  16.951  2.0118 -0.1063  0.5263
16469TIP3    H270823   1.508   1.514  16.803  0.6652 -1.1140  0.6412
16470TIP3   OH270824   6.396   5.077   5.392  0.3060 -0.2043  0.2354
16470TIP3    H170825   6.455   5.002   5.395  1.3759  0.6457  0.5025
16470TIP3    H270826   6.397   5.105   5.300  1.9431  1.0825  0.6238
16471TIP3   OH270827   1.077   3.768  15.869 -0.2782 -0.1617 -0.0225
16471TIP3    H170828   1.157   3.721  15.845  1.4974  1.8469  1.7168
16471TIP3    H270829   1.095   3.803  15.956 -2.6565  1.2677 -0.0592
16472TIP3   OH270830   1.128   3.274  14.766 -0.0335  0.0342 -0.0115
16472TIP3    H170831   1.108   3.288  14.858  0.4784 -0.2267  0.1393
16472TIP3    H270832   1.171   3.189  14.763  0.9123  0.5159 -0.3536
16473TIP3   OH270833   5.877   2.033   1.582 -0.0927  0.1351 -0.2941
16473TIP3    H170834   5.862   2.011   1.490 -0.1783  0.8861 -0.4622
16473TIP3    H270835   5.958   2.083   1.581  1.2591 -1.9941  0.3431
16474TIP3   OH270836   5.147   1.635  16.454 -0.6065 -0.3395 -0.3692
16474TIP3    H170837   5.232   1.648  16.495 -1.0848 -0.6651  0.7541
16474TIP3    H270838   5.152   1.683  16.372  1.1080 -1.4042 -0.9105
16475TIP3   OH270839   5.896   1.584  17.225  0.2007 -0.0229  0.3696
16475TIP3    H170840   5.941   1.524  17.165 -2.0920 -2.4359  0.9649
16475TIP3    H270841   5.807   1.591  17.190  0.1739  2.4152  0.7945
16476TIP3   OH270842   0.042   5.360   2.272  1.0434  0.1035 -0.9561
16476TIP3    H170843  -0.003   5.335   2.353 -1.9739  0.5979 -2.3984
16476TIP3    H270844   0.085   5.280   2.242  0.7916 -0.4971  0.2740
16477TIP3   OH270845   0.965   6.379  16.172 -0.4043  0.0351 -0.4562
16477TIP3    H170846   1.054   6.343  16.164 -0.8607 -1.2926  0.4979
16477TIP3    H270847   0.926   6.366  16.085 -1.0967 -3.1855  0.2938
16478TIP3   OH270848   5.728   0.950  14.004 -0.0188  0.3812 -0.3074
16478TIP3    H170849   5.707   0.856  14.007 -1.3507  0.6543 -0.7472
16478TIP3    H270850   5.819   0.955  14.032  0.2695 -1.1207 -0.9430
16479TIP3   OH270851   1.591   2.922   3.779  0.0332 -0.1522 -0.2874
16479TIP3    H170852   1.504   2.916   3.739  0.2292 -0.9800 -0.6061
16479TIP3    H270853   1.592   2.853   3.845  0.2734  0.1857  0.0614
16480TIP3   OH270854   2.789   5.200  12.252 -0.1275 -0.5503 -0.2614
16480TIP3    H170855   2.843   5.227  12.326 -0.6840 -1.4822  0.4885
16480TIP3    H270856   2.766   5.281  12.208 -0.9270  0.1261  1.3764
16481TIP3   OH270857   0.130   1.426  16.401 -0.4489 -0.1035 -0.6513
16481TIP3    H170858   0.087   1.363  16.459  1.4017 -0.2296  0.6193
16481TIP3    H270859   0.194   1.375  16.353 -0.5515  0.3914 -1.3231
16482TIP3   OH270860   0.726   4.003   1.338  0.0996 -0.9122  0.0267
16482TIP3    H170861   0.740   4.062   1.412 -1.5813  0.9346 -1.0831
16482TIP3    H270862   0.795   4.025   1.276  0.4135 -1.2005  0.2731
16483TIP3   OH270863   1.328   0.854  12.535 -0.0531 -0.2335  0.0875
16483TIP3    H170864   1.281   0.935  12.516 -0.4579 -0.6779 -0.8032
16483TIP3    H270865   1.415   0.883  12.563 -0.5569  0.5505  0.8674
16484TIP3   OH270866   6.585   5.344   5.751 -0.4811  0.1508 -0.1956
16484TIP3    H170867   6.599   5.290   5.674 -0.5603 -1.0354  0.6080
16484TIP3    H270868   6.630   5.298   5.822  1.9692  2.6195 -0.0553
16485TIP3   OH270869   5.158   2.883   4.655 -0.3487  0.2766 -0.2243
16485TIP3    H170870   5.138   2.863   4.563 -0.9493  1.3701 -0.3423
16485TIP3    H270871   5.083   2.935   4.685 -0.7045 -1.0198  1.2244
16486TIP3   OH270872   3.037   6.603   0.733  0.0774  0.5006 -0.0297
16486TIP3    H170873   3.065   6.555   0.811 -0.4311 -0.3904 -0.3881
16486TIP3    H270874   3.118   6.641   0.698  0.2882  1.0174  1.0019
16487TIP3   OH270875   3.214   1.584  17.108 -0.6705 -0.0937  0.2157
16487TIP3    H170876   3.273   1.624  17.044 -0.5059 -0.3650  0.1945
16487TIP3    H270877   3.264   1.511  17.144 -0.9458 -0.2444  0.2939
16488TIP3   OH270878   2.999   1.548   1.133  0.0235 -0.6634 -0.2486
16488TIP3    H170879   3.092   1.543   1.153 -0.1433  0.8539  0.9859
16488TIP3    H270880   2.962   1.467   1.167  0.8470 -1.1890 -0.5800
16489TIP3   OH270881   3.363   5.653   2.776  0.6231  0.5676 -0.0279
16489TIP3    H170882   3.358   5.558   2.764 -1.7717  0.4160  1.7867
16489TIP3    H270883   3.322   5.688   2.696  1.7740  0.0984 -0.8378
16490TIP3   OH270884   2.762   0.280   2.479  0.3672 -0.5063  0.4070
16490TIP3    H170885   2.687   0.328   2.514  1.0258  1.1584 -0.3872
16490TIP3    H270886   2.801   0.236   2.555 -1.8029 -1.9807  0.7121
16491TIP3   OH270887   4.912   3.763   4.328 -0.3167 -0.6714  0.4502
16491TIP3    H170888   4.948   3.676   4.346  0.3935 -0.0554  2.0619
16491TIP3    H270889   4.910   3.807   4.413 -3.7255 -0.2306  0.2253
16492TIP3   OH270890   0.857   6.063   4.584  0.4031 -0.6902  0.0367
16492TIP3    H170891   0.816   5.987   4.624 -0.5818 -0.3582 -0.3290
16492TIP3    H270892   0.873   6.123   4.657  0.4352 -0.9054  0.2076
16493TIP3   OH270893   5.095   6.101   6.302  0.0482 -0.1099 -0.4753
16493TIP3    H170894   5.131   6.017   6.330  1.7818  0.8940  0.3940
16493TIP3    H270895   5.025   6.119   6.365  0.0139 -0.6595 -0.3520
16494TIP3   OH270896   5.457   0.018  16.264  0.0562 -0.0013  0.3591
16494TIP3    H170897   5.367   0.025  16.296  0.2351 -1.5825  1.2509
16494TIP3    H270898   5.448  -0.018  16.176 -0.1057 -1.9267  1.1435
16495TIP3   OH270899   0.381   4.550   1.156  0.1061  0.0188 -0.3673
16495TIP3    H170900   0.339   4.615   1.213 -1.8654 -1.0255 -0.6079
16495TIP3    H270901   0.331   4.554   1.075  1.5996  0.0089 -1.3090
16496TIP3   OH270902   2.876   6.550  13.358  0.0460 -0.1460 -0.0345
16496TIP3    H170903   2.942   6.492  13.319  0.6448  0.0147  0.7287
16496TIP3    H270904   2.814   6.490  13.399  0.1302 -0.2778 -0.0983
16497TIP3   OH270905   5.353   3.811  14.758 -0.2906 -0.1816  0.0985
16497TIP3    H170906   5.416   3.880  14.735 -1.1387  0.6253  0.1595
16497TIP3    H270907   5.406   3.746  14.804  0.3245  0.9945  1.1069
16498TIP3   OH270908   3.999   6.503  11.423  0.3102  0.6657 -0.3087
16498TIP3    H170909   3.921   6.550  11.453 -0.0467 -0.4187  0.4850
16498TIP3    H270910   3.973   6.411  11.423  1.9970  0.1659  1.2302
16499TIP3   OH270911   6.751   6.310   6.705 -0.0923 -0.1605  0.1289
16499TIP3    H170912   6.843   6.319   6.683  0.3909 -0.8577  1.7972
16499TIP3    H270913   6.736   6.216   6.710 -0.7583 -0.0459  0.4089
16500TIP3   OH270914   4.832   1.904  17.152  0.4091  0.1605  0.0139
16500TIP3    H170915   4.829   1.852  17.072  0.2005 -0.5250  0.4694
16500TIP3    H270916   4.922   1.896  17.184  0.7913  1.3343 -0.7462
16501TIP3   OH270917   3.867   2.900  12.726  0.5291  0.7587  0.1466
16501TIP3    H170918   3.834   2.811  12.738 -2.3138  1.6768 -0.5538
16501TIP3    H270919   3.807   2.955  12.776 -0.8124  2.7986 -3.5397
16502TIP3   OH270920   6.737   0.901  14.797 -0.1827 -0.8184  0.5570
16502TIP3    H170921   6.690   0.972  14.753  2.2012  0.4845  0.0810
16502TIP3    H270922   6.777   0.941  14.874  0.0417 -1.9586  1.0542
16503TIP3   OH270923   4.400   3.921   6.610  0.2913  0.2054 -0.7903
16503TIP3    H170924   4.309   3.893   6.603 -0.0308  0.2661  2.4994
16503TIP3    H270925   4.435   3.870   6.683  2.6346  0.8944 -1.3893
16504TIP3   OH270926   4.309   5.204   4.695 -0.0944  0.0201  0.3184
16504TIP3    H170927   4.289   5.270   4.761 -1.0264  2.0215 -1.9191
16504TIP3    H270928   4.400   5.180   4.713  0.5821  2.6238  0.5726
16505TIP3   OH270929   2.543   0.481  14.227  0.3458 -0.8104  0.0802
16505TIP3    H170930   2.590   0.493  14.144 -0.0219 -0.3250 -0.0623
16505TIP3    H270931   2.550   0.388  14.245  1.9746 -0.6230  0.4313
16506TIP3   OH270932   6.135   2.465   2.332  0.4630 -0.3197 -0.6706
16506TIP3    H170933   6.135   2.559   2.318 -0.0005 -0.1889  0.1452
16506TIP3    H270934   6.226   2.443   2.353  0.1675  0.3329  1.4724
16507TIP3   OH270935   0.555   6.306  12.601 -0.8025 -0.4621 -0.3838
16507TIP3    H170936   0.582   6.308  12.693 -0.9102 -0.9200 -0.3439
16507TIP3    H270937   0.637   6.308  12.553 -0.7143 -1.1861 -0.2667
16508TIP3   OH270938   4.862   6.629   5.716  0.6330  0.0278  0.0036
16508TIP3    H170939   4.896   6.540   5.727  0.1248 -0.2359 -0.5372
16508TIP3    H270940   4.894   6.677   5.793  1.7211 -0.3727 -0.1989
16509TIP3   OH270941   5.577   4.702   3.848  0.6370  0.4387 -0.1925
16509TIP3    H170942   5.522   4.630   3.879  0.1035  0.9133 -0.0121
16509TIP3    H270943   5.645   4.660   3.796  0.2454 -0.1828 -0.2111
16510TIP3   OH270944   0.205   3.162   1.768 -0.6149 -0.3784 -0.1017
16510TIP3    H170945   0.143   3.132   1.834  0.4211 -0.1410  0.9908
16510TIP3    H270946   0.212   3.257   1.782 -0.2324 -0.3551 -0.4137
16511TIP3   OH270947   3.910   2.741  16.906 -0.9126 -0.0784  0.0355
16511TIP3    H170948   3.974   2.796  16.952 -0.8584 -0.1358  0.0286
16511TIP3    H270949   3.936   2.744  16.814  0.5663 -2.0559  0.3444
16512TIP3   OH270950   3.911   4.145  14.398 -0.0680 -0.1772  0.0283
16512TIP3    H170951   3.961   4.180  14.472 -1.3679  2.5623 -0.3296
16512TIP3    H270952   3.963   4.168  14.321  0.1725 -1.0354 -0.0700
16513TIP3   OH270953   5.075   4.954  12.732 -0.3350 -0.5564  0.3770
16513TIP3    H170954   5.036   4.981  12.649 -1.9612 -0.7908  1.0437
16513TIP3    H270955   5.169   4.948  12.714 -0.4803  1.0492 -0.9802
16514TIP3   OH270956   0.770   4.325   6.522  0.4745 -0.0729  0.3422
16514TIP3    H170957   0.701   4.277   6.476  1.0431 -1.8744  1.3144
16514TIP3    H270958   0.839   4.337   6.457  0.0262  0.0854 -0.1069
16515TIP3   OH270959   6.565   6.222   5.398  0.3850 -0.0650 -0.0474
16515TIP3    H170960   6.563   6.143   5.452  2.5993  1.5215  2.4843
16515TIP3    H270961   6.505   6.283   5.441 -0.2607  0.1411 -1.2068
16516TIP3   OH270962   4.127   6.146  11.475  0.5744  0.0629 -0.1584
16516TIP3    H170963   4.040   6.169  11.442  0.2599 -0.8892 -0.0088
16516TIP3    H270964   4.110   6.092  11.552  1.2850 -0.9690 -0.7105
16517TIP3   OH270965   3.575   2.313   1.271 -0.3655 -0.4150  0.2007
16517TIP3    H170966   3.572   2.403   1.303 -1.2081 -0.5550  0.5286
16517TIP3    H270967   3.629   2.318   1.192  0.6557  0.1537  0.9189
16518TIP3   OH270968   5.447   0.995   0.168 -0.3317  0.0176 -0.1635
16518TIP3    H170969   5.366   1.046   0.171 -0.8649 -0.8718  1.0602
16518TIP3    H270970   5.510   1.052   0.123 -1.4798  0.9268 -0.6447
16519TIP3   OH270971   2.497   2.318   0.348 -0.1214 -0.6304  0.5617
16519TIP3    H170972   2.550   2.344   0.423  0.2156 -1.4343  0.6051
16519TIP3    H270973   2.551   2.255   0.301 -0.9443 -1.2775  0.4728
16520TIP3   OH270974   5.560   1.585   2.812  0.5723 -0.2554 -0.1744
16520TIP3    H170975   5.609   1.666   2.802  0.0670  0.0366 -0.3138
16520TIP3    H270976   5.542   1.556   2.722  0.8802 -0.6020 -0.1267
16521TIP3   OH270977   5.620   0.649   3.634  0.4016  0.2603 -0.1406
16521TIP3    H170978   5.563   0.603   3.695  0.7258  0.6291  0.4382
16521TIP3    H270979   5.689   0.687   3.689  2.0812 -1.4778 -0.9774
16522TIP3   OH270980   0.671   0.643  13.647 -0.4440 -0.1493  0.4825
16522TIP3    H170981   0.734   0.663  13.716 -1.0026  0.5702  0.7933
16522TIP3    H270982   0.634   0.728  13.623 -1.3822 -0.5785  0.3911
16523TIP3   OH270983   3.116   3.786  13.141 -0.3674 -0.0700 -0.0404
16523TIP3    H170984   3.044   3.847  13.123 -1.4927 -1.9092 -1.9943
16523TIP3    H270985   3.083   3.731  13.213 -0.2447  0.1514  0.1872
16524TIP3   OH270986   5.290   1.779   0.114 -0.3655 -0.0726  0.8204
16524TIP3    H170987   5.356   1.710   0.106  0.6782  0.6836  2.5534
16524TIP3    H270988   5.340   1.857   0.140 -1.6992  1.0094  0.2149
16525TIP3   OH270989   2.270   3.364   2.299  0.5148  0.2111 -0.1987
16525TIP3    H170990   2.218   3.441   2.320 -1.1495 -0.7642 -0.6402
16525TIP3    H270991   2.266   3.357   2.204 -0.9537 -1.4959 -0.0293
16526TIP3   OH270992   6.715   4.181   1.999 -0.4742 -0.0675  0.0589
16526TIP3    H170993   6.664   4.165   2.078  0.5025 -0.9199  0.5417
16526TIP3    H270994   6.740   4.093   1.969 -0.6862  0.2611 -1.0867
16527TIP3   OH270995   4.214   2.041  11.344 -0.2641  0.8689  0.8588
16527TIP3    H170996   4.143   2.077  11.291 -0.4396  1.0586  1.2218
16527TIP3    H270997   4.232   1.955  11.304 -1.3455  0.4059  1.3437
16528TIP3   OH270998   5.401   0.711   0.707 -0.7098 -0.1300 -0.8863
16528TIP3    H170999   5.473   0.757   0.665  1.2435 -2.9389 -0.7686
16528TIP3    H271000   5.357   0.664   0.636 -1.8498  0.8040 -0.8144
16529TIP3   OH271001   5.496   0.909   0.953 -0.2836 -0.2109 -0.2607
16529TIP3    H171002   5.537   0.905   0.867  1.3924  0.7339  0.4519
16529TIP3    H271003   5.506   1.001   0.980 -0.5437 -0.5422  1.0313
16530TIP3   OH271004   1.676   1.612   1.921  0.2386 -0.1493  0.0961
16530TIP3    H171005   1.757   1.657   1.895  0.7448 -1.2982 -0.3480
16530TIP3    H271006   1.675   1.616   2.017  0.0044  1.2560  0.0556
16531TIP3   OH271007   1.903   0.835  15.619  0.3270  0.0354  0.0695
16531TIP3    H171008   1.977   0.891  15.595 -0.0908  0.4725 -0.2166
16531TIP3    H271009   1.906   0.831  15.714 -1.8322  3.6205  0.3883
16532TIP3   OH271010   3.502   1.780  16.511  0.3478 -0.3735 -0.2054
16532TIP3    H171011   3.554   1.732  16.575  0.1914  1.1467  1.0772
16532TIP3    H271012   3.418   1.794  16.554 -0.6473 -1.5880 -1.7265
16533TIP3   OH271013   3.976   5.262   4.258 -0.0881 -0.3212 -0.1999
16533TIP3    H171014   3.966   5.177   4.216  1.6454 -0.9518  0.6169
16533TIP3    H271015   3.888   5.284   4.289 -0.9770 -0.7947 -2.3181
16534TIP3   OH271016   2.166   1.559   4.974 -0.1113 -0.0997 -0.3707
16534TIP3    H171017   2.147   1.627   5.038  1.6516 -0.5338  0.6774
16534TIP3    H271018   2.231   1.503   5.018  0.8451 -0.6283 -2.4051
16535TIP3   OH271019   3.106   4.749   6.456 -0.4228  0.2583 -0.0208
16535TIP3    H171020   3.069   4.698   6.384  1.3129 -1.0897 -0.0096
16535TIP3    H271021   3.153   4.820   6.413  0.9200 -0.7555 -0.2710
16536TIP3   OH271022   4.794   5.822  11.338  0.0613 -0.4160 -0.1337
16536TIP3    H171023   4.741   5.797  11.263  0.3140  1.2679 -0.8968
16536TIP3    H271024   4.841   5.743  11.363 -0.4254 -1.1163 -1.4209
16537TIP3   OH271025   6.630   4.358  12.414  0.3201 -0.6423  0.1762
16537TIP3    H171026   6.571   4.398  12.350  0.8996  0.3300  0.2311
16537TIP3    H271027   6.591   4.273  12.433 -1.2322  0.1069  0.4348
16538TIP3   OH271028   4.751   0.904  13.787 -0.4151 -0.0861  0.2829
16538TIP3    H171029   4.744   0.972  13.721  1.1674 -0.5415 -0.3878
16538TIP3    H271030   4.728   0.823  13.742  1.9304 -0.5860 -0.1124
16539TIP3   OH271031   5.105   2.924  11.095 -1.1111 -0.7874  0.5436
16539TIP3    H171032   5.146   3.009  11.110 -1.0998 -0.5618 -0.6772
16539TIP3    H271033   5.158   2.883  11.027 -2.5531 -0.7222 -0.6535
16540TIP3   OH271034   5.449   0.268   5.518 -0.2236  0.4939  0.4133
16540TIP3    H171035   5.438   0.173   5.526  0.7522  0.0831 -2.4720
16540TIP3    H271036   5.371   0.305   5.559 -1.5171 -1.6207 -0.0613
16541TIP3   OH271037   6.047   0.635   4.914 -0.5622  0.6361 -0.5950
16541TIP3    H171038   6.047   0.551   4.867  2.3163  0.7704 -0.9291
16541TIP3    H271039   6.125   0.631   4.970 -1.6365  2.1978  1.0383
16542TIP3   OH271040   2.947   5.964  14.588 -0.4922 -0.1543 -0.2695
16542TIP3    H171041   2.999   5.995  14.514 -0.1550  1.1442  0.4937
16542TIP3    H271042   3.003   5.979  14.664 -2.0786  1.5416  0.6029
16543TIP3   OH271043   2.765   6.261   1.662  0.3937 -0.5576 -0.1860
16543TIP3    H171044   2.697   6.329   1.664 -0.8031 -1.7474  1.4728
16543TIP3    H271045   2.832   6.295   1.603 -2.2126  0.1085 -2.9048
16544TIP3   OH271046   4.564   3.068   3.722 -0.3002  0.0134 -0.0646
16544TIP3    H171047   4.537   3.149   3.679  0.8226  0.2146 -0.4099
16544TIP3    H271048   4.528   3.075   3.811 -1.1115  0.3999 -0.4120
16545TIP3   OH271049   2.996   4.564  14.588 -0.1595 -0.3024 -0.3833
16545TIP3    H171050   2.920   4.584  14.533  0.2528 -1.6065 -1.4538
16545TIP3    H271051   3.070   4.606  14.543  0.0712 -0.7929 -0.4712
16546TIP3   OH271052   4.747   4.987  11.093  0.0453  0.1413  0.3209
16546TIP3    H171053   4.679   4.951  11.149 -0.3770  0.0880 -0.2180
16546TIP3    H271054   4.796   4.910  11.063  0.8092  0.2359  1.2930
16547TIP3   OH271055   5.358   4.679  11.893 -0.3941 -0.0401 -0.4690
16547TIP3    H171056   5.364   4.594  11.935 -2.1507 -0.6857 -1.4486
16547TIP3    H271057   5.281   4.672  11.837  0.6115  1.5348 -2.0878
16548TIP3   OH271058   6.602   1.996  11.923  0.3965  0.0877  0.0295
16548TIP3    H171059   6.642   2.049  11.992 -0.5403  0.5187  0.2506
16548TIP3    H271060   6.670   1.988  11.856  0.9332  0.5984  0.5120
16549TIP3   OH271061   1.447   2.539  12.094 -0.0602 -0.7382 -0.2420
16549TIP3    H171062   1.537   2.508  12.108 -0.7504 -1.7879  2.1699
16549TIP3    H271063   1.450   2.632  12.116  0.5838 -0.5910 -0.9127
16550TIP3   OH271064   3.022   6.725  15.343  0.0880  0.3881  0.5066
16550TIP3    H171065   3.113   6.718  15.370  0.0976 -0.9294  0.1931
16550TIP3    H271066   2.981   6.645  15.375 -1.0530  1.1501  0.9800
16551TIP3   OH271067   6.389   1.856  11.817 -0.2617  0.0684 -0.2563
16551TIP3    H171068   6.463   1.902  11.856 -1.2096  1.1647  0.2984
16551TIP3    H271069   6.317   1.871  11.878 -0.8752 -1.1996 -0.6566
16552TIP3   OH271070   1.022   6.630   3.934  0.1364 -0.5903  0.3172
16552TIP3    H171071   1.051   6.598   4.020 -2.2764  0.0868  1.4272
16552TIP3    H271072   0.939   6.585   3.919 -0.3754  0.7218 -0.8277
16553TIP3   OH271073   5.499   0.517   3.834  0.3712 -0.6050  0.4530
16553TIP3    H171074   5.421   0.467   3.857 -0.6115  2.0200  3.1793
16553TIP3    H271075   5.570   0.475   3.883 -0.1738 -0.2655  1.5479
16554TIP3   OH271076   4.188   3.548   0.881 -0.0557  0.0042  0.4982
16554TIP3    H171077   4.156   3.549   0.972 -0.2227  1.2454  0.4320
16554TIP3    H271078   4.224   3.636   0.868 -0.8132  0.0985 -0.9266
16555TIP3   OH271079   5.428   2.843   6.341 -0.3023  0.6067  0.0210
16555TIP3    H171080   5.378   2.822   6.420 -0.9095  0.0244 -0.5116
16555TIP3    H271081   5.518   2.851   6.371 -0.2373 -1.4638  0.4941
16556TIP3   OH271082   1.344   4.867   3.613 -0.4478  0.4793 -0.0472
16556TIP3    H171083   1.432   4.857   3.577 -0.7463 -0.0005 -0.6614
16556TIP3    H271084   1.329   4.785   3.660 -0.6270  0.4915 -0.0844
16557TIP3   OH271085   1.045   4.126   6.092  0.2251 -0.0337 -0.1994
16557TIP3    H171086   1.108   4.172   6.147  0.2675  0.5855 -0.7604
16557TIP3    H271087   0.984   4.085   6.155  0.8498 -0.1644  0.3221
16558TIP3   OH271088   0.804   6.340  14.172  0.3564  0.1480 -0.5529
16558TIP3    H171089   0.737   6.273  14.162 -1.0472  1.2072  1.2400
16558TIP3    H271090   0.833   6.332  14.263 -0.5526  2.5594  0.0093
16559TIP3   OH271091   4.725   2.012   4.258  0.1545  0.1848  0.1626
16559TIP3    H171092   4.748   1.984   4.346  1.3329 -0.3141 -0.2934
16559TIP3    H271093   4.693   2.102   4.269 -0.4662 -0.1522  1.1881
16560TIP3   OH271094   4.384   5.336   5.165 -0.0098 -0.0080 -0.3867
16560TIP3    H171095   4.361   5.244   5.180 -1.0748  0.5616  1.7217
16560TIP3    H271096   4.445   5.356   5.236 -0.7459  1.2327 -0.0958
16561TIP3   OH271097   0.845   1.056  17.125  0.2065  0.2240 -0.0816
16561TIP3    H171098   0.879   1.064  17.036 -0.5630  0.7201 -0.3322
16561TIP3    H271099   0.825   0.963  17.135  1.8786 -0.1426  0.1724
16562TIP3   OH271100   5.420   0.868  13.567  0.3753 -0.3438 -0.2789
16562TIP3    H171101   5.433   0.775  13.587 -0.1853 -0.7070 -1.5308
16562TIP3    H271102   5.328   0.884  13.585  0.8931  0.4724  1.7968
16563TIP3   OH271103   3.783   2.023  14.587 -0.1446 -0.0233 -0.3253
16563TIP3    H171104   3.775   2.101  14.533  0.3804  1.1172  1.2045
16563TIP3    H271105   3.872   2.027  14.623 -0.4909 -0.7397  0.6501
16564TIP3   OH271106   0.305   1.032  13.283 -0.6456 -0.7433  0.1355
16564TIP3    H171107   0.348   1.059  13.202  0.5760 -0.0775  0.9831
16564TIP3    H271108   0.274   1.114  13.322  0.6644 -0.8143  1.3780
16565TIP3   OH271109   5.647   2.174  12.522  0.5071  0.2319  0.1319
16565TIP3    H171110   5.570   2.139  12.566  1.3057 -1.8593 -0.1021
16565TIP3    H271111   5.643   2.137  12.434 -0.3618  3.3230 -1.2075
16566TIP3   OH271112   2.894   0.150  15.466 -0.2238  0.2518 -0.2720
16566TIP3    H171113   2.946   0.086  15.416 -0.7742 -0.4933  0.1131
16566TIP3    H271114   2.811   0.106  15.482 -0.0714  0.5149  1.2637
16567TIP3   OH271115   2.762   4.815  13.809 -0.2012 -0.2530 -0.5742
16567TIP3    H171116   2.843   4.858  13.838 -0.7191  1.8979 -2.1616
16567TIP3    H271117   2.761   4.827  13.714 -1.7582 -1.4022 -0.7159
16568TIP3   OH271118   5.443   3.899   4.740  0.2498  0.1010  0.1279
16568TIP3    H171119   5.525   3.860   4.768 -0.0124 -1.5534 -1.3972
16568TIP3    H271120   5.383   3.884   4.814  0.0862 -2.5967 -0.5088
16569TIP3   OH271121   1.533   0.983  12.638 -0.3879 -0.3867 -0.5473
16569TIP3    H171122   1.487   1.057  12.677  0.3512  0.6632 -1.6430
16569TIP3    H271123   1.625   1.000  12.656 -0.2256 -1.1032 -0.7090
16570TIP3   OH271124   3.745   2.390   2.992 -0.0387  0.8788  0.6930
16570TIP3    H171125   3.705   2.412   2.908 -0.4496  2.4449  1.2784
16570TIP3    H271126   3.839   2.385   2.974 -0.1085  1.3803  0.1829
16571TIP3   OH271127   0.876   5.825   3.251 -0.2756  0.6816 -0.0730
16571TIP3    H171128   0.796   5.791   3.212 -0.5295 -0.4180  1.3824
16571TIP3    H271129   0.943   5.761   3.228  0.2266  1.6377 -1.3543
16572TIP3   OH271130   3.558   2.648  13.183 -0.6688 -0.1763  0.0077
16572TIP3    H171131   3.569   2.675  13.274  2.7228  0.8647 -0.6691
16572TIP3    H271132   3.543   2.554  13.188 -0.0589 -0.2077  1.5920
16573TIP3   OH271133   0.583   2.799   2.278  0.5724  0.2749 -0.3217
16573TIP3    H171134   0.641   2.730   2.248 -0.0021  0.0870 -1.0008
16573TIP3    H271135   0.619   2.879   2.240  0.2596  0.1311 -0.9162
16574TIP3   OH271136   4.721   1.686  12.362  0.2437  0.0468  1.0348
16574TIP3    H171137   4.775   1.636  12.423 -0.5332 -1.5215  0.4498
16574TIP3    H271138   4.735   1.645  12.277 -1.4640 -0.0667  0.7906
16575TIP3   OH271139   6.373   1.687   1.236  0.3771  0.0466 -0.3306
16575TIP3    H171140   6.370   1.761   1.176 -0.1302 -0.2411 -0.6697
16575TIP3    H271141   6.452   1.639   1.212  0.6108  0.3848 -0.2261
16576TIP3   OH271142   2.594   2.181  14.122  0.6182  0.0939 -0.2493
16576TIP3    H171143   2.540   2.131  14.062 -1.9997 -0.5789  2.5136
16576TIP3    H271144   2.602   2.267  14.082 -0.9698 -0.3761 -1.6179
16577TIP3   OH271145   4.300   1.383   5.829  0.0913  0.2061 -0.2682
16577TIP3    H171146   4.377   1.432   5.857 -0.7114 -0.3506  3.0667
16577TIP3    H271147   4.311   1.374   5.734  3.0117  2.0062 -0.1660
16578TIP3   OH271148   3.746   2.445   1.000 -0.5926 -0.3401  0.4272
16578TIP3    H171149   3.812   2.385   1.033 -1.1298 -1.3822 -0.3797
16578TIP3    H271150   3.749   2.520   1.060  1.3863 -0.3235  0.3201
16579TIP3   OH271151   4.373   1.317   2.237  0.7510  0.2103 -0.1743
16579TIP3    H171152   4.391   1.341   2.328  0.0824 -0.6472  0.1969
16579TIP3    H271153   4.325   1.391   2.201 -1.1391 -0.4345  0.9028
16580TIP3   OH271154   1.200   1.576   6.470  0.6068  0.1510  0.0898
16580TIP3    H171155   1.227   1.491   6.505 -0.3262 -0.5350 -0.8189
16580TIP3    H271156   1.274   1.634   6.489  1.4648 -0.9762  0.2714
16581TIP3   OH271157   0.887   4.437   2.191 -0.2163 -0.0342  0.1324
16581TIP3    H171158   0.866   4.347   2.167 -0.2932  0.2211 -0.7879
16581TIP3    H271159   0.982   4.437   2.204 -0.2501 -0.3025  0.3728
16582TIP3   OH271160   4.532   4.775   1.046  0.2053 -0.0203  0.5012
16582TIP3    H171161   4.600   4.724   1.002  0.4704 -0.4852  1.4522
16582TIP3    H271162   4.458   4.773   0.985  0.4406 -0.9945  0.2435
16583TIP3   OH271163   3.602   3.611  15.794  0.3129  0.6450  0.4881
16583TIP3    H171164   3.608   3.539  15.856 -0.8673 -0.4650 -0.6546
16583TIP3    H271165   3.510   3.610  15.766  0.1235  2.9792  0.9099
16584TIP3   OH271166   0.881   6.217   4.806  0.5383  0.4542  0.2629
16584TIP3    H171167   0.842   6.208   4.893 -0.5296  0.1390 -0.2395
16584TIP3    H271168   0.973   6.238   4.823  0.3684  0.2683  1.4644
16585TIP3   OH271169   5.245   6.172  13.121 -0.8476 -0.4076 -0.7831
16585TIP3    H171170   5.185   6.247  13.130 -1.4584 -0.9518 -0.1565
16585TIP3    H271171   5.244   6.132  13.208  3.5806  1.8858  0.4755
16586TIP3   OH271172   4.956   4.779   2.335  0.2968 -0.9492  0.1562
16586TIP3    H171173   4.908   4.803   2.414 -0.9159 -1.7116 -0.3513
16586TIP3    H271174   5.034   4.734   2.367 -0.4805 -1.7703  0.8925
16587TIP3   OH271175   5.474   3.257  16.382 -0.2380  0.3026  0.8187
16587TIP3    H171176   5.387   3.218  16.374  0.1102 -0.1629 -0.8102
16587TIP3    H271177   5.457   3.349  16.406 -1.2252  0.5570 -0.8280
16588TIP3   OH271178   4.552   2.616  11.434 -0.1446 -0.4725  0.5148
16588TIP3    H171179   4.593   2.671  11.368 -0.2358  0.5066  1.2555
16588TIP3    H271180   4.459   2.639  11.430  0.0332  0.5785  1.8809
16589TIP3   OH271181   2.498   3.111  15.608  0.4519 -0.1814  0.6301
16589TIP3    H171182   2.423   3.106  15.549  1.2723 -0.6416 -0.3780
16589TIP3    H271183   2.530   3.201  15.598  0.9727 -0.4470 -0.0980
16590TIP3   OH271184   4.809   1.940  11.891  0.4853 -0.3861 -0.5073
16590TIP3    H171185   4.758   1.901  11.963  1.3384  1.7264  1.3145
16590TIP3    H271186   4.820   1.869  11.829 -1.9011 -1.7872  0.5641
16591TIP3   OH271187   5.476   0.213  14.530 -0.0445  0.1348 -0.0953
16591TIP3    H171188   5.537   0.252  14.592 -1.1481  0.7449  0.6432
16591TIP3    H271189   5.442   0.136  14.575  0.8966 -0.7538 -0.8930
16592TIP3   OH271190   3.964   4.432  15.565  0.3580  0.3395 -0.1503
16592TIP3    H171191   3.897   4.486  15.524  0.2061  0.1181 -0.1973
16592TIP3    H271192   3.995   4.375  15.495  1.0039  0.8299 -0.2709
16593TIP3   OH271193   1.788   3.411  13.033  0.6012 -0.4362  0.6318
16593TIP3    H171194   1.866   3.369  12.999 -0.1336 -1.4146  0.1158
16593TIP3    H271195   1.765   3.361  13.112 -0.7465 -1.5808 -0.4430
16594TIP3   OH271196   3.685   6.322   5.936 -0.0081  0.3858 -1.2181
16594TIP3    H171197   3.683   6.403   5.988  0.2792 -0.3904  0.0097
16594TIP3    H271198   3.640   6.345   5.854 -1.4736  1.2879 -0.1737
16595TIP3   OH271199   2.040   1.187   0.281  0.0068 -0.8471 -0.1673
16595TIP3    H171200   2.033   1.107   0.228 -1.6978 -0.9477  0.1925
16595TIP3    H271201   1.963   1.185   0.337  1.4347 -0.3914  1.8516
16596TIP3   OH271202   5.025   2.196   5.787 -1.1235  0.4022 -0.5512
16596TIP3    H171203   5.088   2.163   5.851 -0.5663 -1.0642 -1.8534
16596TIP3    H271204   4.939   2.174   5.824 -0.7843 -1.2184 -0.7272
16597TIP3   OH271205   1.622   2.289   2.617  0.5085 -0.0058 -0.0062
16597TIP3    H171206   1.615   2.194   2.626  0.5517 -0.0922 -0.8624
16597TIP3    H271207   1.533   2.317   2.596  1.1393 -0.2641 -3.2917
16598TIP3   OH271208   6.354   3.211  16.338  0.1201  0.3098  0.1523
16598TIP3    H171209   6.269   3.186  16.302  0.5177 -1.0014  0.0960
16598TIP3    H271210   6.380   3.137  16.393  0.6366  1.2559  1.2175
16599TIP3   OH271211   0.565   3.015  11.313  0.5177  0.4150  0.5595
16599TIP3    H171212   0.546   3.044  11.224  0.8063  1.0418  0.6974
16599TIP3    H271213   0.659   2.994  11.311  0.4433  0.0691  0.6208
16600TIP3   OH271214   1.999   5.900  17.197 -0.8515 -0.0789  0.1739
16600TIP3    H171215   1.950   5.880  17.277 -1.5416  2.1222  0.3484
16600TIP3    H271216   1.938   5.951  17.144 -0.3144 -1.3344 -1.6657
16601TIP3   OH271217   4.029   1.534   2.379 -0.2661  0.6276 -0.1541
16601TIP3    H171218   4.078   1.612   2.351  0.2867  0.5006  0.4395
16601TIP3    H271219   4.062   1.464   2.324  0.6200  0.4335  0.6091
16602TIP3   OH271220   3.634   2.951   1.387 -0.6291  0.1273 -0.1835
16602TIP3    H171221   3.565   2.908   1.337 -1.3349  0.0170  0.8804
16602TIP3    H271222   3.714   2.907   1.360 -0.7617  1.2510 -2.5535
16603TIP3   OH271223   3.342   1.829  16.208  0.1213  0.4459 -0.1374
16603TIP3    H171224   3.424   1.845  16.254 -0.4477  2.1335  0.3323
16603TIP3    H271225   3.345   1.888  16.133 -0.9453  1.0193  0.2543
16604TIP3   OH271226   1.133   5.592   6.134  0.0746  0.1776  0.3283
16604TIP3    H171227   1.115   5.554   6.048 -3.4199  1.2248  0.5103
16604TIP3    H271228   1.160   5.517   6.188 -0.1991 -0.9148 -1.0203
16605TIP3   OH271229   5.277   3.835   4.937  0.2089 -0.3796  0.6696
16605TIP3    H171230   5.240   3.800   5.018 -1.9144 -1.5822 -0.7573
16605TIP3    H271231   5.211   3.898   4.906  1.3964  0.7187  0.3005
16606TIP3   OH271232   3.898   0.529   5.331  0.1458 -0.3606 -0.6596
16606TIP3    H171233   3.861   0.476   5.260  1.6908 -1.0907 -0.9326
16606TIP3    H271234   3.902   0.618   5.294 -2.6749  0.0392 -0.1127
16607TIP3   OH271235   5.146   1.663  11.912 -0.3397 -0.2494 -0.1790
16607TIP3    H171236   5.215   1.706  11.862  0.4966 -1.0005  0.3106
16607TIP3    H271237   5.126   1.723  11.984 -0.0400 -0.1314 -0.1961
16608TIP3   OH271238   0.546   5.208   5.692 -0.3505 -0.9074  0.2743
16608TIP3    H171239   0.623   5.161   5.658 -0.2970 -1.4966  1.2024
16608TIP3    H271240   0.578   5.253   5.770 -0.1922  1.3936 -1.0742
16609TIP3   OH271241   5.979   6.393   0.049 -0.0881 -0.3992 -0.6598
16609TIP3    H171242   5.994   6.486   0.063 -0.8676 -0.4119  0.3606
16609TIP3    H271243   6.066   6.353   0.054  0.2106  0.2401 -0.7894
16610TIP3   OH271244   4.282   6.353   2.348  0.3456  0.1109 -0.4682
16610TIP3    H171245   4.354   6.411   2.323 -0.4179  0.9164 -0.7980
16610TIP3    H271246   4.285   6.351   2.444 -0.6505  2.0021 -0.3800
16611TIP3   OH271247   6.315   6.046   4.472  0.0107  0.2427 -0.5557
16611TIP3    H171248   6.407   6.061   4.449  0.2704  0.8567  0.8441
16611TIP3    H271249   6.276   6.133   4.475 -0.3660  0.0563 -0.0750
16612TIP3   OH271250   5.432   6.235  13.712 -0.2938  0.1176  0.2509
16612TIP3    H171251   5.527   6.228  13.725 -0.6187 -0.2282  2.5613
16612TIP3    H271252   5.423   6.305  13.647  1.5530 -0.0245 -0.2005
16613TIP3   OH271253   4.324   2.272   3.732 -0.8115  0.2000  0.7300
16613TIP3    H171254   4.300   2.341   3.794  0.9569  0.2300  1.4348
16613TIP3    H271255   4.394   2.223   3.777 -0.4074 -0.5833 -0.7137
16614TIP3   OH271256   5.910   5.453  10.731  0.6163  0.0500  0.1051
16614TIP3    H171257   5.816   5.440  10.736  0.5740  0.7410  1.4532
16614TIP3    H271258   5.931   5.509  10.806  2.0906 -0.0740 -0.1855
16615TIP3   OH271259   5.595   5.857   0.367 -0.5580 -0.7891 -0.0796
16615TIP3    H171260   5.589   5.903   0.284 -1.2928  1.7878  1.3543
16615TIP3    H271261   5.686   5.868   0.395 -0.1676 -2.1189 -0.7531
16616TIP3   OH271262   3.428   6.092   4.919  0.6682 -0.1620  0.4102
16616TIP3    H171263   3.505   6.087   4.861 -0.8153 -0.9781 -1.5605
16616TIP3    H271264   3.422   6.185   4.942  1.6954  0.0682 -0.1924
16617TIP3   OH271265   0.454   4.632   2.454 -0.3364 -0.3676 -0.3724
16617TIP3    H171266   0.532   4.582   2.433 -0.4997 -0.1750 -1.4609
16617TIP3    H271267   0.458   4.645   2.549  0.2299 -1.5553 -0.2338
16618TIP3   OH271268   3.235   3.570   2.161  0.3869  0.2623  0.4165
16618TIP3    H171269   3.252   3.606   2.074  2.7198 -1.3592  0.1508
16618TIP3    H271270   3.316   3.524   2.185 -0.9367 -1.0835  2.5644
16619TIP3   OH271271   5.986   1.161  10.802  0.1190 -0.1276 -0.2035
16619TIP3    H171272   6.016   1.085  10.753  0.6575 -1.3353  1.9843
16619TIP3    H271273   6.065   1.203  10.834 -0.3060 -0.8998  1.9382
16620TIP3   OH271274   2.085   2.175  12.314 -0.2170 -1.0674 -0.8122
16620TIP3    H171275   2.005   2.144  12.272 -1.2186 -0.8341  0.8551
16620TIP3    H271276   2.060   2.256  12.357  0.8359 -1.1398 -0.0270
16621TIP3   OH271277   3.809   3.667   2.178  0.0004 -0.3182  0.6131
16621TIP3    H171278   3.714   3.675   2.176  0.0735  2.1908  3.1690
16621TIP3    H271279   3.839   3.723   2.107 -0.4585 -2.4523 -1.2894
16622TIP3   OH271280   4.431   4.098   6.408 -0.5450 -0.0563 -0.2060
16622TIP3    H171281   4.380   4.048   6.344  1.4381 -1.8623 -0.4261
16622TIP3    H271282   4.416   4.054   6.491  0.0575 -0.1527 -0.1450
16623TIP3   OH271283   2.529   5.413   5.111 -0.1386  0.4807  0.4500
16623TIP3    H171284   2.469   5.488   5.118  0.0226  0.8635 -1.8237
16623TIP3    H271285   2.578   5.430   5.030  1.7661 -0.7573  1.3249
16624TIP3   OH271286   5.303   0.599  14.698 -0.1102  0.1766  0.2343
16624TIP3    H171287   5.286   0.550  14.617  2.0122 -2.5064  1.3613
16624TIP3    H271288   5.394   0.581  14.719 -0.5157  1.1465  3.0492
16625TIP3   OH271289   5.027   3.160   3.010 -0.2163 -0.7184  0.1857
16625TIP3    H171290   5.021   3.243   2.963 -2.1166 -0.8160  0.2099
16625TIP3    H271291   5.117   3.156   3.041  0.3178  0.6017 -1.1491
16626TIP3   OH271292   2.522   6.255  12.126 -0.7792  0.2810 -0.1704
16626TIP3    H171293   2.489   6.230  12.212 -2.3570  0.5774 -0.6542
16626TIP3    H271294   2.545   6.348  12.135 -2.3736  0.7240 -0.4407
16627TIP3   OH271295   6.680   4.435   6.265 -0.4590  0.0636 -0.6467
16627TIP3    H171296   6.644   4.387   6.190  1.4394  0.2480 -1.6976
16627TIP3    H271297   6.753   4.485   6.228 -1.6652  2.8804  0.6271
16628TIP3   OH271298   6.037   1.069   1.248 -0.3708  0.2016  0.3665
16628TIP3    H171299   6.075   1.153   1.221  0.7165 -0.5649 -0.5369
16628TIP3    H271300   5.944   1.087   1.258 -0.9338  0.4960 -4.3043
16629TIP3   OH271301   1.492   0.977   3.860  0.6830  0.1520  0.0834
16629TIP3    H171302   1.488   1.036   3.784  0.5106  0.7763  0.5795
16629TIP3    H271303   1.545   1.024   3.924 -0.2650  0.1799  0.8501
16630TIP3   OH271304   2.120   3.847  12.836 -0.0572  0.5372 -0.3246
16630TIP3    H171305   2.158   3.763  12.809  0.1217  0.1576  1.0729
16630TIP3    H271306   2.187   3.912  12.815  0.9400 -0.0025  1.1305
16631TIP3   OH271307   0.305   0.939  12.397  0.4882  0.1333 -0.1914
16631TIP3    H171308   0.354   0.859  12.415  0.1414  0.1537  0.8412
16631TIP3    H271309   0.251   0.918  12.322 -1.5055 -1.4194  1.6293
16632TIP3   OH271310   5.855   0.471   3.585 -0.1476  0.4961 -0.8093
16632TIP3    H171311   5.809   0.405   3.637  0.5920 -0.5317 -1.4371
16632TIP3    H271312   5.785   0.527   3.552 -0.8739 -0.4836 -0.9857
16633TIP3   OH271313   3.892   0.357  16.904 -0.2107  0.1790 -0.0314
16633TIP3    H171314   3.915   0.306  16.826 -0.6936 -1.7590  1.0595
16633TIP3    H271315   3.972   0.407  16.923  0.5704 -0.7981 -0.6488
16634TIP3   OH271316   0.939   3.573  11.434 -0.2638  0.2630 -0.0709
16634TIP3    H171317   0.852   3.554  11.468 -0.5679  0.2897 -0.8274
16634TIP3    H271318   0.928   3.579  11.339  0.2646  1.8021 -0.0531
16635TIP3   OH271319   1.327   5.707  14.835 -0.1345  0.2977  0.3547
16635TIP3    H171320   1.299   5.744  14.751  0.8616  0.3507  0.0383
16635TIP3    H271321   1.421   5.691  14.824 -0.6372 -2.9911  0.2245
16636TIP3   OH271322   3.136   2.300   0.530  0.6706 -0.1475  0.1734
16636TIP3    H171323   3.044   2.288   0.506  1.1393 -0.2445 -1.6617
16636TIP3    H271324   3.142   2.391   0.560  0.4917  0.6985 -2.2621
16637TIP3   OH271325   1.985   2.516   5.889  0.6918  0.2379 -0.2692
16637TIP3    H171326   1.951   2.558   5.968 -2.0082 -1.9385 -0.1983
16637TIP3    H271327   2.037   2.442   5.921  0.8226  0.2181 -0.5205
16638TIP3   OH271328   4.614   4.364  17.227  0.0268  0.3387 -0.1052
16638TIP3    H171329   4.681   4.298  17.247 -0.8526 -0.7638 -0.7698
16638TIP3    H271330   4.573   4.334  17.147 -0.9190  1.2972  0.0029
16639TIP3   OH271331   4.569   6.150   2.527 -0.6296  0.0743  0.6081
16639TIP3    H171332   4.559   6.230   2.579 -0.7053  0.4446  0.0239
16639TIP3    H271333   4.513   6.086   2.570 -0.9577  0.4801  0.7835
16640TIP3   OH271334   0.851   3.524  12.944  0.2409 -0.3428 -1.2883
16640TIP3    H171335   0.855   3.521  12.849  0.3922 -1.5410 -1.2527
16640TIP3    H271336   0.877   3.437  12.972  0.9248  0.2213 -0.1156
16641TIP3   OH271337   5.490   3.118  15.699  0.0588 -0.1485 -0.1909
16641TIP3    H171338   5.531   3.202  15.679 -2.3124  0.7691 -1.4009
16641TIP3    H271339   5.563   3.059  15.714  1.7801  2.3848  1.8287
16642TIP3   OH271340   0.310   1.952  14.249 -0.8310 -0.3104 -0.2078
16642TIP3    H171341   0.330   2.033  14.296 -1.0361 -1.5142  2.0224
16642TIP3    H271342   0.394   1.906  14.244 -0.5618  0.3330 -2.1214
16643TIP3   OH271343   6.620   1.445   4.508  0.6480 -0.2073 -0.1766
16643TIP3    H171344   6.623   1.532   4.468  2.7416  0.0137  0.3530
16643TIP3    H271345   6.578   1.389   4.443 -0.8858  1.2402 -0.4433
16644TIP3   OH271346   0.468   3.850  11.495 -0.1866 -0.2094 -0.3918
16644TIP3    H171347   0.464   3.942  11.521  0.1013  0.0718 -1.3414
16644TIP3    H271348   0.412   3.845  11.417 -1.4956 -1.1554  0.5873
16645TIP3   OH271349   2.461   0.739   0.055  0.7572 -0.0976  0.0044
16645TIP3    H171350   2.421   0.826   0.056  0.7807 -0.0845 -0.1921
16645TIP3    H271351   2.392   0.681   0.023  0.7530 -0.1457  0.1009
16646TIP3   OH271352   6.412   1.792   2.925 -0.3061  0.2744 -0.0621
16646TIP3    H171353   6.327   1.768   2.887 -0.8147 -0.7227  1.6403
16646TIP3    H271354   6.417   1.887   2.914 -1.6801  0.3605 -0.1457
16647TIP3   OH271355   3.978   1.569   5.538 -0.2360 -0.0908  0.0448
16647TIP3    H171356   4.004   1.484   5.572 -0.3134 -0.0003  0.3335
16647TIP3    H271357   3.907   1.598   5.596 -0.2228  0.1593 -0.0609
16648TIP3   OH271358   5.874   3.245   0.059 -0.0904 -0.2796  0.2131
16648TIP3    H171359   5.871   3.283  -0.029 -2.2837 -1.5916 -0.3140
16648TIP3    H271360   5.957   3.275   0.095  0.3368  1.1872 -1.8963
16649TIP3   OH271361   2.709   0.644  16.626 -0.2773  0.3206  0.1568
16649TIP3    H171362   2.788   0.635  16.572 -0.9612 -0.8143 -0.6823
16649TIP3    H271363   2.705   0.737  16.647  0.7483  0.5529 -0.6236
16650TIP3   OH271364   1.781   2.794  14.415 -0.1350 -0.3920  0.3904
16650TIP3    H171365   1.770   2.880  14.456  0.5651  0.1469 -0.5164
16650TIP3    H271366   1.732   2.801  14.333  0.7534 -0.5032 -0.1597
16651TIP3   OH271367   1.452   3.036   2.134  0.0902  0.2977 -0.4405
16651TIP3    H171368   1.465   2.942   2.123 -0.1712  0.5616 -3.6128
16651TIP3    H271369   1.516   3.062   2.200  1.9251 -1.6998 -1.3687
16652TIP3   OH271370   4.149   0.331  14.883 -0.7115 -0.3280 -0.3714
16652TIP3    H171371   4.126   0.418  14.851 -1.3033 -0.4661 -0.3291
16652TIP3    H271372   4.216   0.346  14.949 -2.1668  0.2490  1.0119
16653TIP3   OH271373   5.548   4.616   6.248  0.5624 -0.0795  0.1870
16653TIP3    H171374   5.487   4.683   6.280 -0.1415 -0.4534 -0.3369
16653TIP3    H271375   5.623   4.664   6.215 -0.3611  0.5147 -1.0893
16654TIP3   OH271376   6.779   6.269  12.311  0.5824  0.0945 -0.1102
16654TIP3    H171377   6.689   6.256  12.283  0.1560  0.1282  1.1848
16654TIP3    H271378   6.786   6.363  12.326 -0.5658 -0.4088  4.2091
16655TIP3   OH271379   6.695   2.824   1.325  0.0647  0.1911 -0.3143
16655TIP3    H171380   6.753   2.781   1.388 -0.4049 -0.9714 -0.6594
16655TIP3    H271381   6.753   2.874   1.269  0.5885  0.3549  0.3636
16656TIP3   OH271382   2.385   4.665  16.717  0.1603 -0.2196  0.6876
16656TIP3    H171383   2.418   4.730  16.655  0.7159 -1.4671 -0.3517
16656TIP3    H271384   2.451   4.597  16.717 -0.7306 -1.0936  1.2642
16657TIP3   OH271385   4.050   4.855  11.726  0.1053 -0.6435  0.0192
16657TIP3    H171386   4.046   4.932  11.670  0.4558 -0.2104  0.5860
16657TIP3    H271387   4.135   4.860  11.769  1.1527 -2.6324 -1.7383
16658TIP3   OH271388   2.767   4.117  14.894  0.0822  0.3554  0.2649
16658TIP3    H171389   2.672   4.107  14.886  0.2877 -1.0033 -0.6701
16658TIP3    H271390   2.799   4.121  14.804  1.0982 -1.2882  0.5309
16659TIP3   OH271391   4.012   4.396  14.843  0.2189  0.1983  0.1698
16659TIP3    H171392   3.993   4.478  14.799 -0.6952  1.0130  1.9980
16659TIP3    H271393   4.090   4.414  14.896  1.0683 -0.6412 -0.7699
16660TIP3   OH271394   1.633   1.714   4.883  0.2616  0.1383 -0.2098
16660TIP3    H171395   1.624   1.619   4.884  0.2434  0.1424  1.1059
16660TIP3    H271396   1.717   1.731   4.926 -0.2248  0.7536  0.5151
16661TIP3   OH271397   0.284   3.253   3.298  0.2628 -0.1556 -0.0917
16661TIP3    H171398   0.377   3.268   3.278  0.3845 -1.0173 -0.1712
16661TIP3    H271399   0.284   3.179   3.358 -0.5406 -1.7916 -2.0769
16662TIP3   OH271400   3.635   0.412  15.369 -0.3631 -0.2100  0.0306
16662TIP3    H171401   3.559   0.452  15.327 -1.2275 -1.4448  0.3742
16662TIP3    H271402   3.600   0.333  15.411  0.9893 -0.4413  0.7531
16663TIP3   OH271403   5.333   1.143  16.766  0.2606 -0.0263  0.2214
16663TIP3    H171404   5.319   1.171  16.857 -0.2243  1.6581 -0.3660
16663TIP3    H271405   5.283   1.205  16.713  1.8040 -0.0457 -1.3047
16664TIP3   OH271406   5.103   0.900   1.156  0.3692 -0.2576 -0.2129
16664TIP3    H171407   5.064   0.895   1.243 -0.1306 -1.5928 -0.4895
16664TIP3    H271408   5.173   0.835   1.158  1.1258  0.5513 -0.4280
16665TIP3   OH271409   5.234   3.428   4.898 -0.0359  0.2089  0.2134
16665TIP3    H171410   5.188   3.511   4.887 -1.8347 -0.8074 -0.0417
16665TIP3    H271411   5.207   3.374   4.824  2.7827  0.1143 -0.8051
16666TIP3   OH271412   2.490   2.358  12.650  0.3807  0.1394  0.4119
16666TIP3    H171413   2.582   2.378  12.634  0.4832 -0.3002  0.4580
16666TIP3    H271414   2.467   2.297  12.579  0.6591 -1.3219  1.5603
16667TIP3   OH271415   4.408   1.794   1.731  0.0275  0.1356 -0.0692
16667TIP3    H171416   4.331   1.755   1.774  0.3374 -0.3288  0.0648
16667TIP3    H271417   4.371   1.864   1.676 -0.4570  0.1637  0.2784
16668TIP3   OH271418   2.513   4.742  12.591 -0.1387 -0.1164  0.1295
16668TIP3    H171419   2.570   4.770  12.520  0.5112  1.0954  1.1196
16668TIP3    H271420   2.497   4.649  12.575 -1.4334  0.5337 -2.5871
16669TIP3   OH271421   3.791   0.890   4.954  0.4432  0.0012  0.5092
16669TIP3    H171422   3.845   0.823   4.913 -1.2874 -2.4963  2.1415
16669TIP3    H271423   3.713   0.895   4.899  0.4070  0.4475  0.5968
16670TIP3   OH271424   5.186   2.241  13.624 -0.9225  0.2467 -0.2010
16670TIP3    H171425   5.191   2.245  13.720  1.5684  0.9746 -0.3334
16670TIP3    H271426   5.179   2.333  13.597 -1.0414  0.0764 -0.7577
16671TIP3   OH271427   0.486   5.908   3.850 -0.0745  0.0286  0.0156
16671TIP3    H171428   0.558   5.845   3.842  0.2459  0.3860  0.0920
16671TIP3    H271429   0.497   5.966   3.775  0.0808  0.4586  0.3696
16672TIP3   OH271430   1.572   1.448  15.992  0.3033 -0.2176  0.1330
16672TIP3    H171431   1.630   1.510  15.947 -0.1558  0.2347  0.1656
16672TIP3    H271432   1.570   1.371  15.935 -0.4532  0.4397 -0.7334
16673TIP3   OH271433   0.834   3.498  13.694  0.4195  0.5414  0.5231
16673TIP3    H171434   0.929   3.493  13.707  0.2779 -0.8750  1.1303
16673TIP3    H271435   0.816   3.591  13.685  2.1708  0.6997 -1.9582
16674TIP3   OH271436   5.740   4.713  11.286  0.3266  0.0499  0.1661
16674TIP3    H171437   5.810   4.776  11.269 -1.3712  2.1848  0.8024
16674TIP3    H271438   5.752   4.690  11.379  0.2712  0.3068  0.2385
16675TIP3   OH271439   1.660   1.029   0.080 -0.3744 -0.4664 -0.0490
16675TIP3    H171440   1.661   1.116   0.119  0.5470  0.2206 -1.5720
16675TIP3    H271441   1.570   1.019   0.049 -0.2583  0.3117 -0.6583
16676TIP3   OH271442   4.731   0.563   0.450  0.1435 -0.3268 -0.1337
16676TIP3    H171443   4.646   0.587   0.413 -0.3706 -0.1332  1.1713
16676TIP3    H271444   4.738   0.615   0.530  0.3535 -2.2851  1.1425
16677TIP3   OH271445   5.910   6.702   5.946  0.1068 -0.2927  0.3921
16677TIP3    H171446   5.821   6.704   5.909  0.5846 -1.1208 -0.8391
16677TIP3    H271447   5.950   6.783   5.915 -0.1484 -0.0022  0.8042
16678TIP3   OH271448   0.783   2.498  14.634  0.1605  0.2371 -0.2281
16678TIP3    H171449   0.836   2.577  14.620 -1.5868  1.3469 -0.7019
16678TIP3    H271450   0.805   2.441  14.561  3.4389 -0.8867  1.5138
16679TIP3   OH271451   0.874   1.958   4.962  0.0226  0.3528  0.3086
16679TIP3    H171452   0.806   1.981   5.026 -0.1444 -0.1764  0.3251
16679TIP3    H271453   0.894   1.866   4.981  1.1993  0.6896  0.7170
16680TIP3   OH271454   1.439   1.721  13.123  0.1531 -0.1084 -0.4240
16680TIP3    H171455   1.532   1.701  13.135  0.4593  1.5197  0.0716
16680TIP3    H271456   1.413   1.672  13.045  1.5822 -0.1334 -0.8957
16681TIP3   OH271457   0.567   0.849  14.928  0.5138 -0.1481  0.1568
16681TIP3    H171458   0.574   0.944  14.936 -0.3678 -0.2067  1.8476
16681TIP3    H271459   0.473   0.832  14.932  0.5500 -0.9708 -1.8558
16682TIP3   OH271460   1.388   0.027  12.304  0.5709 -0.3497 -0.6323
16682TIP3    H171461   1.449   0.063  12.239  1.1516  2.3831  1.3248
16682TIP3    H271462   1.432   0.042  12.388 -2.7762  1.7532  0.8447
16683TIP3   OH271463   3.727   6.358   6.351  0.4248 -0.6704  0.6183
16683TIP3    H171464   3.743   6.400   6.436  1.0839 -0.4166  0.3752
16683TIP3    H271465   3.663   6.415   6.308  1.2638  0.0629  0.3174
16684TIP3   OH271466   4.258   1.114  10.445  0.0278 -0.0583 -0.7729
16684TIP3    H171467   4.204   1.143  10.371  1.3639  0.6956 -1.4711
16684TIP3    H271468   4.304   1.193  10.474 -0.1406 -0.4451  0.5786
16685TIP3   OH271469   4.195   3.950  14.579 -0.3547  0.1141 -0.3911
16685TIP3    H171470   4.120   3.893  14.566  1.0190 -1.9038  0.1310
16685TIP3    H271471   4.245   3.944  14.498  1.0105 -1.3536  0.5207
16686TIP3   OH271472   0.761   5.068   2.582  0.0644 -0.3320  0.0679
16686TIP3    H171473   0.787   5.144   2.529 -0.7396 -1.3786 -1.8574
16686TIP3    H271474   0.792   4.992   2.533 -2.9479 -1.4452 -0.2415
16687TIP3   OH271475   2.353   4.053  14.265  0.6139  0.2481 -0.6463
16687TIP3    H171476   2.304   3.982  14.306 -1.2541  1.4072 -0.8201
16687TIP3    H271477   2.299   4.079  14.191  1.1621  2.0332 -0.4289
16688TIP3   OH271478   3.596   1.057  13.962 -0.3902  0.1011  0.2390
16688TIP3    H171479   3.687   1.037  13.986 -0.0577 -0.1947 -1.2117
16688TIP3    H271480   3.564   1.112  14.033  1.3244  1.2702  0.1350
16689TIP3   OH271481   1.613   3.252  13.237 -0.1966  0.3120 -0.0951
16689TIP3    H171482   1.520   3.264  13.217 -0.4572 -0.3499  0.7218
16689TIP3    H271483   1.616   3.178  13.298  1.0539 -1.0440 -1.7649
16690TIP3   OH271484   4.223   2.358   4.751 -0.0274 -0.3451  0.1226
16690TIP3    H171485   4.230   2.341   4.845 -3.2877 -1.2251  0.2377
16690TIP3    H271486   4.264   2.282   4.710 -1.9535 -1.7873  0.8142
16691TIP3   OH271487   0.389   2.653  11.782 -0.2324  0.2078 -0.3545
16691TIP3    H171488   0.452   2.581  11.786 -0.7185 -0.1431  1.1643
16691TIP3    H271489   0.428   2.723  11.835 -0.1271  0.7833 -1.1797
16692TIP3   OH271490   4.517   4.573  15.774 -0.3889 -0.2665 -0.2677
16692TIP3    H171491   4.485   4.509  15.710 -1.1218  0.5914 -0.7767
16692TIP3    H271492   4.597   4.534  15.808  1.0093  0.0680 -3.0345
16693TIP3   OH271493   1.710   5.751  14.373  0.4368  0.4522  0.4914
16693TIP3    H171494   1.678   5.832  14.413  0.4427  0.6294  0.1417
16693TIP3    H271495   1.675   5.753  14.284  0.6992  0.2228  0.3825
16694TIP3   OH271496   4.673   1.377   5.347 -0.3094  0.0547  0.4403
16694TIP3    H171497   4.612   1.421   5.289  0.1808  0.5511  0.2958
16694TIP3    H271498   4.648   1.285   5.344 -0.5756  0.1507 -0.1990
16695TIP3   OH271499   1.172   0.639  11.137 -0.2132 -0.3152  0.7878
16695TIP3    H171500   1.098   0.621  11.079  0.4847 -2.4510  0.5065
16695TIP3    H271501   1.245   0.592  11.097  0.8013  0.0250  2.2115
16696TIP3   OH271502   1.019   5.960   2.415  0.8950  0.2848  0.1619
16696TIP3    H171503   1.004   5.921   2.502 -0.1299  0.1027 -0.0994
16696TIP3    H271504   0.982   6.048   2.422  2.9214  1.1336  0.6486
16697TIP3   OH271505   6.585   6.587  11.741  0.2015 -0.2716  0.3357
16697TIP3    H171506   6.624   6.501  11.753 -0.7798 -0.9606 -1.2365
16697TIP3    H271507   6.582   6.625  11.829  0.0594 -2.0795  1.1338
16698TIP3   OH271508   1.857   5.967  11.376  0.1945  0.5194 -0.1323
16698TIP3    H171509   1.920   6.038  11.366 -1.5217  2.2071  0.8775
16698TIP3    H271510   1.786   5.989  11.316  0.1867 -0.9611 -0.6835
16699TIP3   OH271511   3.193   0.666  12.886 -0.0702 -0.2361  0.5888
16699TIP3    H171512   3.199   0.591  12.828 -0.9030  0.1750 -0.0278
16699TIP3    H271513   3.236   0.637  12.967  2.0064 -0.4755 -0.5516
16700TIP3   OH271514   2.489   6.010  15.982 -0.2048 -0.1405  0.0333
16700TIP3    H171515   2.488   6.068  16.058  0.0281 -1.7614  1.3170
16700TIP3    H271516   2.579   6.014  15.949 -0.8667  2.3228 -1.5837
16701TIP3   OH271517   5.735   3.029   4.309 -0.0113  0.0925  0.0658
16701TIP3    H171518   5.688   3.029   4.393 -0.9892  0.0390 -0.4770
16701TIP3    H271519   5.816   3.078   4.327  0.0357 -0.3716  1.1733
16702TIP3   OH271520   4.338   6.123  11.113 -0.0188 -0.6092  0.1177
16702TIP3    H171521   4.294   6.121  11.028 -1.8751 -1.3603  1.0851
16702TIP3    H271522   4.362   6.032  11.130  0.4997 -0.4369  0.3303
16703TIP3   OH271523   5.620   0.674  15.965  0.0454  0.0740 -0.1228
16703TIP3    H171524   5.673   0.673  16.045  0.6513  0.8659 -0.4989
16703TIP3    H271525   5.684   0.684  15.895 -0.5117 -0.2598 -0.6777
16704TIP3   OH271526   1.935   5.306  12.197 -1.1627 -0.0300  0.3732
16704TIP3    H171527   1.987   5.363  12.141  0.5716  0.3789  2.3198
16704TIP3    H271528   1.845   5.335  12.185 -0.6888  0.7731 -1.3266
16705TIP3   OH271529   5.952   2.284   2.764  0.6715  0.5427 -0.0415
16705TIP3    H171530   5.924   2.322   2.847  0.9680  2.0859 -0.6384
16705TIP3    H271531   5.945   2.355   2.701  0.0214 -0.7325 -1.4434
16706TIP3   OH271532   2.105   4.914   2.590  0.3063 -0.2742  0.1895
16706TIP3    H171533   2.136   4.991   2.543  0.7084 -0.9334 -0.6236
16706TIP3    H271534   2.100   4.845   2.524 -0.3401 -0.8689  0.8498
16707TIP3   OH271535   4.354   4.895   5.436 -0.0050 -0.7795 -0.1762
16707TIP3    H171536   4.275   4.937   5.469  0.9146  0.1632  0.8629
16707TIP3    H271537   4.355   4.809   5.478 -1.6953 -1.7241 -2.0143
16708TIP3   OH271538   5.309   5.778   1.236 -0.2878  0.2757 -0.5027
16708TIP3    H171539   5.287   5.697   1.283  0.6059  1.4047  1.9773
16708TIP3    H271540   5.379   5.753   1.176  0.3345 -0.7028  0.6072
16709TIP3   OH271541   5.466   2.412  11.500 -0.1354  0.1453  0.3943
16709TIP3    H171542   5.438   2.408  11.591 -1.9751  0.7369 -0.1169
16709TIP3    H271543   5.400   2.360  11.453  0.4320  0.3834 -0.6713
16710TIP3   OH271544   4.076   1.369  10.937  0.5911  0.3622  0.0629
16710TIP3    H171545   4.161   1.333  10.913  0.0017  0.0358 -1.6231
16710TIP3    H271546   4.060   1.437  10.872  0.5032  1.8923  1.6475
16711TIP3   OH271547   1.274   5.056   2.193  0.5759 -0.2202  0.0135
16711TIP3    H171548   1.310   5.134   2.151  0.9692  0.4087  1.4623
16711TIP3    H271549   1.346   4.992   2.191  0.6416 -0.1396 -0.1444
16712TIP3   OH271550   3.756   2.224  12.356  0.1174  0.4729  1.0697
16712TIP3    H171551   3.730   2.140  12.318 -2.9015  0.9328  1.9789
16712TIP3    H271552   3.774   2.204  12.448 -1.0234  0.8845  1.3869
16713TIP3   OH271553   1.881   4.224   2.819 -0.3715 -0.7876 -0.6173
16713TIP3    H171554   1.906   4.237   2.911 -1.2314 -1.7429 -0.2424
16713TIP3    H271555   1.907   4.306   2.776  0.3669 -0.4701  0.3992
16714TIP3   OH271556   3.003   6.275   0.298  0.3831 -0.3162  0.1250
16714TIP3    H171557   2.930   6.235   0.250  1.8219  0.2706 -2.6790
16714TIP3    H271558   2.981   6.367   0.303  0.4044 -0.3170  0.2357
16715TIP3   OH271559   6.538   2.950  13.566 -0.2482 -0.4291 -0.3964
16715TIP3    H171560   6.498   2.982  13.485  0.3015 -0.1073 -0.5460
16715TIP3    H271561   6.622   2.913  13.538 -0.5320 -1.2847 -0.1164
16716TIP3   OH271562   0.909   1.668   0.384 -0.1404 -0.1686 -0.0449
16716TIP3    H171563   0.903   1.620   0.301  0.6790  0.2612 -0.3459
16716TIP3    H271564   0.977   1.622   0.434  0.7920  0.7980 -0.4137
16717TIP3   OH271565   1.890   4.907  12.813  0.2769  0.0650 -0.7585
16717TIP3    H171566   1.908   4.814  12.826  0.9307  0.4620  1.3387
16717TIP3    H271567   1.931   4.928  12.729  0.1861 -1.5209 -1.2032
16718TIP3   OH271568   0.997   5.765  13.648 -0.3282  0.2997 -0.1457
16718TIP3    H171569   0.980   5.855  13.677  2.0079  0.6423  0.1997
16718TIP3    H271570   1.019   5.718  13.728 -0.1383 -0.2479 -0.5177
16719TIP3   OH271571   2.846   0.365  10.985 -0.2116 -0.0226 -0.4090
16719TIP3    H171572   2.843   0.341  11.078  0.3287 -1.0389 -0.6507
16719TIP3    H271573   2.852   0.282  10.939 -1.7208  0.4117 -1.4260
16720TIP3   OH271574   0.373   5.351   1.628 -0.2537  0.0495 -0.4892
16720TIP3    H171575   0.416   5.305   1.700 -2.1850 -2.2027 -0.7207
16720TIP3    H271576   0.337   5.430   1.669  1.7172  0.6040  0.2463
16721TIP3   OH271577   0.052   4.541   2.604  1.0836  0.3227 -0.2758
16721TIP3    H171578   0.072   4.521   2.512  0.4260  0.0106 -0.3580
16721TIP3    H271579  -0.028   4.491   2.622  1.2288  0.3564  0.4788
16722TIP3   OH271580   0.269   3.699  12.801 -0.6364  0.0931 -0.0281
16722TIP3    H171581   0.281   3.789  12.830 -0.4994 -0.2565  1.0486
16722TIP3    H271582   0.255   3.649  12.882 -0.4082 -0.8972 -0.5813
16723TIP3   OH271583   3.772   0.798   1.709 -0.0108  0.2133 -0.1639
16723TIP3    H171584   3.856   0.756   1.728  0.7381  1.6203 -0.3290
16723TIP3    H271585   3.709   0.726   1.708  1.2498 -0.8985 -0.4144
16724TIP3   OH271586   5.405   5.090  15.227 -0.5062  0.1463  0.4947
16724TIP3    H171587   5.368   5.035  15.158  0.6777 -0.0947  0.0268
16724TIP3    H271588   5.379   5.179  15.203 -0.7970 -0.0194  0.1890
16725TIP3   OH271589   6.149   4.409   3.606  0.0811 -0.7404  0.0040
16725TIP3    H171590   6.161   4.316   3.586 -0.9121 -0.8579 -0.0667
16725TIP3    H271591   6.073   4.436   3.553 -0.0086 -0.0416  0.4745
16726TIP3   OH271592   0.682   4.776  17.013  0.2209 -0.1992 -0.6854
16726TIP3    H171593   0.603   4.814  16.975 -0.3669 -1.4943 -0.7848
16726TIP3    H271594   0.748   4.783  16.943 -0.0171  0.2073 -0.8696
16727TIP3   OH271595   0.016   5.675  17.010 -0.0910 -0.4192 -0.3031
16727TIP3    H171596   0.096   5.698  16.963 -0.8006 -0.7973 -1.7220
16727TIP3    H271597   0.047   5.631  17.089  1.1243  0.4089 -0.2982
16728TIP3   OH271598   6.144   0.753   1.546 -0.2880  0.6121  0.0909
16728TIP3    H171599   6.220   0.763   1.489 -0.1957  0.0004  0.1022
16728TIP3    H271600   6.159   0.815   1.617  0.5798 -0.0371  0.4947
16729TIP3   OH271601   0.485   3.028   2.957 -0.0077 -0.2928 -0.0502
16729TIP3    H171602   0.578   3.013   2.970 -0.1644 -1.6020 -0.4017
16729TIP3    H271603   0.443   2.945   2.981 -1.1155  0.3828  0.4325
16730TIP3   OH271604   2.419   0.197   5.768 -0.2520 -0.2562  0.3518
16730TIP3    H171605   2.338   0.149   5.751 -0.8908  0.9521 -0.0959
16730TIP3    H271606   2.456   0.213   5.681 -2.1797  3.6449  0.1221
16731TIP3   OH271607   6.522   5.500  12.647  0.3316 -0.0291  0.1810
16731TIP3    H171608   6.452   5.441  12.675 -1.0971  1.8064  0.6062
16731TIP3    H271609   6.570   5.451  12.581 -1.0481 -1.5190  0.2497
16732TIP3   OH271610   4.750   6.336   1.138  0.5823 -0.4008 -0.3225
16732TIP3    H171611   4.766   6.285   1.218  0.5644 -0.5056 -0.3856
16732TIP3    H271612   4.834   6.378   1.118  0.0672  1.2969  0.9205
16733TIP3   OH271613   5.605   5.019   3.051  0.1215  0.0068 -0.0281
16733TIP3    H171614   5.653   5.006   3.132  1.0071 -1.9355 -0.8430
16733TIP3    H271615   5.516   4.991   3.071  0.6742 -1.8464 -0.1292
16734TIP3   OH271616   2.885   1.305  12.109  0.4755 -0.4804 -0.1558
16734TIP3    H171617   2.813   1.245  12.089 -0.9894  0.7523  1.2461
16734TIP3    H271618   2.908   1.344  12.025 -2.0485  0.7618 -0.3282
16735TIP3   OH271619   5.717   1.120   1.793  0.1870 -0.3869  0.4509
16735TIP3    H171620   5.755   1.133   1.880  0.4669 -0.1688  0.2957
16735TIP3    H271621   5.790   1.089   1.740 -0.0111 -0.6230  0.3226
16736TIP3   OH271622   2.041   2.252  16.291 -0.2518 -0.4097  0.6104
16736TIP3    H171623   2.012   2.293  16.210 -0.9055 -1.8585  0.0845
16736TIP3    H271624   2.029   2.319  16.358  0.7593  0.9734 -0.5484
16737TIP3   OH271625   3.429   1.290   5.861  0.5852  0.4756  0.5531
16737TIP3    H171626   3.518   1.302   5.894  0.8023  1.9344 -0.5338
16737TIP3    H271627   3.412   1.367   5.806 -0.0732 -1.4580 -2.0696
16738TIP3   OH271628   3.462   2.376  14.838  0.0116  0.5338  0.0158
16738TIP3    H171629   3.428   2.311  14.899  0.8346  2.2774  2.3751
16738TIP3    H271630   3.439   2.461  14.877  2.5691  1.6948 -0.8919
16739TIP3   OH271631   0.984   4.722  11.842  0.1310 -0.3976 -0.1589
16739TIP3    H171632   1.031   4.771  11.909 -2.1536 -0.7574  1.7849
16739TIP3    H271633   0.934   4.789  11.795  2.8446  0.0508 -2.5458
16740TIP3   OH271634   2.044   6.150  12.330 -0.0896 -0.1544  0.3111
16740TIP3    H171635   1.998   6.136  12.413  0.3789  0.7237  0.7292
16740TIP3    H271636   1.983   6.204  12.279 -0.2133 -0.3674  0.2330
16741TIP3   OH271637   3.941   4.574   4.203 -0.4765  0.2249 -0.5121
16741TIP3    H171638   3.852   4.579   4.170 -1.3406  0.8254  1.7996
16741TIP3    H271639   3.943   4.495   4.256  1.0638 -1.0806 -2.4502
16742TIP3   OH271640   0.350   6.038  12.881 -0.2022 -0.5068 -0.0039
16742TIP3    H171641   0.338   6.128  12.849  0.4506 -0.2762  0.3846
16742TIP3    H271642   0.339   5.983  12.803 -0.3586 -0.0715 -0.2896
16743TIP3   OH271643   1.734   3.160  15.329 -0.4254 -0.0808  0.0408
16743TIP3    H171644   1.654   3.134  15.374 -0.4476  1.1462  0.7429
16743TIP3    H271645   1.721   3.253  15.309  1.1289  0.3277  0.8363
16744TIP3   OH271646   0.602   4.762   2.081 -0.0232 -0.3231  0.0365
16744TIP3    H171647   0.584   4.815   2.158 -3.3014  0.1003 -0.9555
16744TIP3    H271648   0.618   4.674   2.115  1.9082  0.5268  1.4086
16745TIP3   OH271649   0.192   6.234  12.024  0.0819  0.1706  0.3442
16745TIP3    H171650   0.141   6.199  11.951 -0.8171  0.7462  0.6823
16745TIP3    H271651   0.141   6.211  12.102  1.4589 -1.1834  0.8705
16746TIP3   OH271652   0.577   5.825   2.799 -0.9602  0.1847 -0.0316
16746TIP3    H171653   0.569   5.902   2.855 -0.3629  0.0363  0.2614
16746TIP3    H271654   0.606   5.756   2.858  2.8948  0.7772 -1.0929
16747TIP3   OH271655   1.583   4.041  12.996  0.4192  0.2092  0.1476
16747TIP3    H171656   1.585   4.076  13.085  0.2208 -0.0711  0.2635
16747TIP3    H271657   1.655   3.978  12.994 -0.9460 -1.4241  0.8007
16748TIP3   OH271658   0.962   4.562   2.473 -0.3415 -0.7876  0.4579
16748TIP3    H171659   0.890   4.512   2.435  0.3061 -0.6956 -0.9281
16748TIP3    H271660   0.967   4.642   2.420 -0.6102  0.2277  1.9150
16749TIP3   OH271661   6.058   1.912  15.828 -0.1607  0.0890 -0.2506
16749TIP3    H171662   6.045   1.836  15.885 -1.8166  0.5584  0.0170
16749TIP3    H271663   5.972   1.952  15.820  0.6026  1.7129 -0.7246
16750TIP3   OH271664   3.755   0.704  11.115 -0.5624  0.1035  0.0686
16750TIP3    H171665   3.761   0.651  11.036  1.0392 -0.1309  0.3434
16750TIP3    H271666   3.836   0.754  11.117 -0.4618 -0.0884  1.7146
16751TIP3   OH271667   2.583   4.072   3.974 -0.3312  0.0626 -0.5179
16751TIP3    H171668   2.577   4.038   3.885 -0.9951  0.2201 -0.5383
16751TIP3    H271669   2.575   4.167   3.964  0.4814  0.1501 -0.3673
16752TIP3   OH271670   4.381   2.278  13.155 -0.5936  0.5467  0.5253
16752TIP3    H171671   4.369   2.268  13.249  0.9137  1.1334  0.7938
16752TIP3    H271672   4.352   2.194  13.118  0.5503 -0.3603  1.6705
16753TIP3   OH271673   4.654   0.657  15.859  0.1846  0.3656 -0.4044
16753TIP3    H171674   4.678   0.565  15.859  0.8266  0.5294 -0.0015
16753TIP3    H271675   4.584   0.664  15.794  0.1834 -0.3887 -0.4835
16754TIP3   OH271676   5.456   0.285   3.029 -0.0046  0.0631 -0.0438
16754TIP3    H171677   5.391   0.216   3.039  0.7721 -0.7930 -0.7801
16754TIP3    H271678   5.405   0.363   3.010 -0.8873 -0.3389  0.6351
16755TIP3   OH271679   6.021   1.025  13.043 -0.8076 -0.0306  0.0552
16755TIP3    H171680   6.072   1.094  13.000  0.2534  0.4873  2.0767
16755TIP3    H271681   6.074   0.946  13.032 -0.3654  0.1717  0.6803
16756TIP3   OH271682   1.450   3.973   5.325 -0.5164  0.2830  0.5474
16756TIP3    H171683   1.527   3.917   5.308 -0.3803  1.0375 -1.5220
16756TIP3    H271684   1.385   3.913   5.361  0.7346 -0.5554  1.4788
16757TIP3   OH271685   5.255   5.704  13.867 -0.6048  0.1773  0.0847
16757TIP3    H171686   5.294   5.719  13.781  1.9987 -1.2191  0.9608
16757TIP3    H271687   5.205   5.623  13.856  0.1840 -0.3069  0.0105
16758TIP3   OH271688   2.692   2.011  16.637  0.1847 -0.3946  0.1345
16758TIP3    H171689   2.687   2.095  16.682  0.5486 -0.5696  0.5048
16758TIP3    H271690   2.729   1.951  16.702 -1.5518 -1.2147  0.4174
16759TIP3   OH271691   0.823   2.849  13.933 -0.2529 -0.1574 -0.0501
16759TIP3    H171692   0.826   2.770  13.987  1.4474 -2.3497 -3.2254
16759TIP3    H271693   0.899   2.900  13.961  0.3937 -1.0793 -0.1157
16760TIP3   OH271694   3.632   1.727   1.065  0.5684  0.5069 -0.2547
16760TIP3    H171695   3.670   1.701   0.981 -2.0835  0.5695 -1.5174
16760TIP3    H271696   3.581   1.806   1.045  0.5313  0.9569  1.5687
16761TIP3   OH271697   2.905   2.640  15.708  0.0516 -0.3915 -0.2259
16761TIP3    H171698   2.811   2.629  15.694 -0.0799  1.4622 -0.9608
16761TIP3    H271699   2.912   2.709  15.774  0.8813 -2.0106  1.4295
16762TIP3   OH271700   0.679   5.591   2.608 -0.0002  0.0434 -0.1156
16762TIP3    H171701   0.650   5.605   2.518 -0.0265  1.8154  0.1567
16762TIP3    H271702   0.654   5.671   2.654 -0.2043 -0.9398  1.5294
16763TIP3   OH271703   5.449   0.287  14.922 -0.3380  0.4861 -0.8733
16763TIP3    H171704   5.450   0.316  15.014 -2.2664 -1.1273 -0.2918
16763TIP3    H271705   5.488   0.359  14.874 -0.5860  1.9780  1.0808
16764TIP3   OH271706   0.696   3.792  15.364 -0.0581  0.1648  0.2387
16764TIP3    H171707   0.736   3.770  15.448  0.0214  0.7932  0.3670
16764TIP3    H271708   0.669   3.707  15.327  0.5650 -0.1792  0.5625
16765TIP3   OH271709   0.885   1.492  14.638  0.2238 -0.1978 -0.2500
16765TIP3    H171710   0.973   1.530  14.625  0.2774 -0.6707 -1.2671
16765TIP3    H271711   0.890   1.406  14.596 -0.1213 -1.0506  1.4367
16766TIP3   OH271712   2.492   0.540  13.023 -0.6940  0.7129 -0.0273
16766TIP3    H171713   2.456   0.593  12.953 -1.6914  0.9294  0.6429
16766TIP3    H271714   2.580   0.576  13.038 -0.3763  0.4958 -1.3235
16767TIP3   OH271715   4.365   5.069  15.030  0.2490 -0.2405 -0.8418
16767TIP3    H171716   4.418   4.996  15.062  1.0131 -0.1792 -1.9120
16767TIP3    H271717   4.373   5.136  15.097  1.1113 -0.4363 -0.7411
16768TIP3   OH271718   6.146   0.542  16.351  0.3507 -0.7169  0.2601
16768TIP3    H171719   6.220   0.510  16.300  2.0802  0.7167  1.8077
16768TIP3    H271720   6.156   0.501  16.437  0.8076  1.4243  1.2658
16769TIP3   OH271721   3.283   5.592  12.690 -0.0399  0.1416 -0.4127
16769TIP3    H171722   3.338   5.666  12.716  0.6953 -0.1318 -1.1898
16769TIP3    H271723   3.257   5.612  12.600 -0.1357 -0.3816 -0.4971
16770TIP3   OH271724   4.776   4.766   5.979  0.7471  0.2266  0.1461
16770TIP3    H171725   4.825   4.826   5.923  1.5312  0.4970  1.0974
16770TIP3    H271726   4.689   4.803   5.986  0.9795  0.7941  0.0131
16771TIP3   OH271727   0.084   4.619  14.939  0.0419 -0.5450 -0.0902
16771TIP3    H171728   0.039   4.635  15.021 -0.3649 -0.3241 -0.3563
16771TIP3    H271729   0.125   4.533  14.950  0.5879 -0.2021  0.6073
16772TIP3   OH271730   3.413   1.029  12.834  0.1468 -1.1147  0.4128
16772TIP3    H171731   3.326   1.014  12.870 -0.3936  0.6019 -0.1571
16772TIP3    H271732   3.420   0.966  12.762 -0.2824 -1.8183  0.9742
16773TIP3   OH271733   4.912   2.074   3.425 -0.2148  0.3971  0.1741
16773TIP3    H171734   4.852   2.148   3.436 -1.4853 -0.0453 -3.0716
16773TIP3    H271735   4.855   1.997   3.427  0.5291 -0.1851 -0.5717
16774TIP3   OH271736   1.176   0.081   3.698  0.4744  0.2696  0.0971
16774TIP3    H171737   1.091   0.059   3.660  0.6507 -0.3982  0.0806
16774TIP3    H271738   1.234   0.012   3.668  0.8616  0.3366  0.6899
16775TIP3   OH271739   1.689   5.236  16.017  0.8620 -0.0419  0.2234
16775TIP3    H171740   1.703   5.141  16.014 -1.1294 -0.3567 -0.0756
16775TIP3    H271741   1.594   5.246  16.026  0.9399  1.9410 -0.7988
16776TIP3   OH271742   0.395   4.383   4.101  0.2009 -0.2214 -0.2991
16776TIP3    H171743   0.445   4.322   4.154  0.6580  0.9642  0.6624
16776TIP3    H271744   0.337   4.428   4.163  1.2263  1.6729 -0.6656
16777TIP3   OH271745   4.563   2.353   4.654 -0.7862 -0.6673  0.2669
16777TIP3    H171746   4.540   2.441   4.624  2.5574  0.3651  0.5030
16777TIP3    H271747   4.559   2.359   4.749 -1.4111 -1.0308  0.2640
16778TIP3   OH271748   0.154   6.695   1.852  0.4526  0.3100 -0.0810
16778TIP3    H171749   0.103   6.747   1.790 -1.2374 -0.4621  0.6326
16778TIP3    H271750   0.173   6.756   1.924 -1.0076  0.1304  0.4734
16779TIP3   OH271751   1.147   5.863  12.998 -0.1601  0.3015 -0.3849
16779TIP3    H171752   1.149   5.950  13.039 -1.6170 -0.1707  0.7411
16779TIP3    H271753   1.117   5.879  12.909  1.1481  1.1298 -0.6815
16780TIP3   OH271754   1.589   2.077   4.810  0.3017  0.0831  0.8130
16780TIP3    H171755   1.677   2.075   4.772 -0.7900 -3.9770 -1.8652
16780TIP3    H271756   1.546   2.150   4.767  1.8779  1.1380  0.9903
16781TIP3   OH271757   2.442   3.723   5.823  0.3503  0.1802 -0.7312
16781TIP3    H171758   2.473   3.681   5.742  1.1761  1.2207 -0.9617
16781TIP3    H271759   2.477   3.667   5.893  3.2425  1.6081 -0.9693
16782TIP3   OH271760   4.728   6.573   2.165 -0.4192  0.6143 -0.9621
16782TIP3    H171761   4.800   6.551   2.106 -0.8208  0.0126 -1.2336
16782TIP3    H271762   4.716   6.667   2.155  0.5383  0.7707 -0.6802
16783TIP3   OH271763   2.479   1.257  15.014  0.5007 -0.9313 -0.5796
16783TIP3    H171764   2.445   1.168  15.017 -0.1872 -0.6354  0.4654
16783TIP3    H271765   2.401   1.312  15.002  0.5986 -0.2668  1.6523
16784TIP3   OH271766   3.426   3.484  14.540  0.0454  0.5937  1.1857
16784TIP3    H171767   3.444   3.574  14.511  0.4132  0.1646  0.0463
16784TIP3    H271768   3.497   3.464  14.600  0.0184  1.0272  1.3688
16785TIP3   OH271769   0.509   1.349   0.435 -0.5862 -0.3490  0.1930
16785TIP3    H171770   0.558   1.384   0.361 -0.1617 -2.8029 -0.7423
16785TIP3    H271771   0.421   1.333   0.400 -0.2678 -1.9166  0.0499
16786TIP3   OH271772   0.964   2.159  11.628 -0.1340  0.0199 -0.6472
16786TIP3    H171773   1.032   2.100  11.594  1.5853  1.1612  0.7245
16786TIP3    H271774   0.908   2.102  11.681  0.4985 -0.6847 -0.7238
16787TIP3   OH271775   3.179   2.902   6.425  0.2411 -0.0525 -0.0594
16787TIP3    H171776   3.129   2.903   6.344  1.1917  0.6477 -0.6579
16787TIP3    H271777   3.218   2.815   6.429 -0.4597 -0.3607  0.0579
16788TIP3   OH271778   5.887   0.865   6.535  0.0378 -0.0010 -0.7323
16788TIP3    H171779   5.928   0.800   6.478  2.3469 -1.4166  2.3994
16788TIP3    H271780   5.957   0.926   6.558 -0.6367  0.0938  1.2094
16789TIP3   OH271781   0.375   0.083   0.812 -0.2816 -0.5429  0.0188
16789TIP3    H171782   0.306   0.095   0.747 -0.3357 -0.5583  0.0740
16789TIP3    H271783   0.456   0.083   0.760 -0.0978  2.4840  0.2618
16790TIP3   OH271784   6.057   3.749  13.749 -0.3794  0.2777  0.6456
16790TIP3    H171785   6.053   3.655  13.734 -0.6728  0.1158  1.6861
16790TIP3    H271786   6.140   3.777  13.710 -0.5023 -0.3331 -0.0569
16791TIP3   OH271787   0.507   2.511  16.125 -0.4716  0.4791  1.0625
16791TIP3    H171788   0.505   2.417  16.143  0.0693  0.1762 -0.4070
16791TIP3    H271789   0.485   2.552  16.209 -0.1190 -0.9337  1.8552
16792TIP3   OH271790   1.167   5.573  15.253  0.7237 -0.3028  0.0354
16792TIP3    H171791   1.117   5.649  15.284  0.1379 -0.6664 -0.0161
16792TIP3    H271792   1.234   5.560  15.320 -0.0599 -0.6058  0.7715
16793TIP3   OH271793   6.666   3.028   3.065 -0.7832  0.2736 -0.4192
16793TIP3    H171794   6.637   3.069   2.983 -2.0360  1.6273  0.6784
16793TIP3    H271795   6.713   3.098   3.111 -3.3195  0.7054  1.6640
16794TIP3   OH271796   5.414   5.717  12.905 -0.2580 -0.4911 -0.7723
16794TIP3    H171797   5.341   5.682  12.956  0.1860 -2.9216 -1.7241
16794TIP3    H271798   5.435   5.800  12.948 -0.9429 -1.6843  2.0168
16795TIP3   OH271799   3.991   6.159   5.328  0.3592 -0.2514  0.4083
16795TIP3    H171800   3.937   6.179   5.405  0.4532 -1.4084  0.7841
16795TIP3    H271801   4.080   6.152   5.363  0.3500 -1.1416  0.2536
16796TIP3   OH271802   2.664   3.505   0.245 -0.2895 -0.1895  0.3643
16796TIP3    H171803   2.673   3.502   0.150 -2.0923  1.1477  0.1116
16796TIP3    H271804   2.606   3.432   0.265 -0.1640 -0.2804  0.3948
16797TIP3   OH271805   0.495   3.799   2.513 -0.2380  0.1129 -0.5111
16797TIP3    H171806   0.469   3.729   2.453 -0.1625 -0.0286 -0.3784
16797TIP3    H271807   0.571   3.764   2.559 -0.9644 -0.2045  0.4577
16798TIP3   OH271808   1.547   0.101   3.455  0.5368 -0.4316 -0.0698
16798TIP3    H171809   1.488   0.028   3.474  0.6508 -0.6742 -0.6390
16798TIP3    H271810   1.493   0.163   3.405  0.4980 -0.2229  0.2326
16799TIP3   OH271811   4.601   2.586   1.039  0.0031 -0.2158 -0.6393
16799TIP3    H171812   4.669   2.602   0.973 -0.3999  0.2609 -0.9424
16799TIP3    H271813   4.519   2.597   0.992 -0.3095 -2.4417 -0.6726
16800TIP3   OH271814   2.196   3.160  15.010  0.1738  0.0740 -0.4414
16800TIP3    H171815   2.131   3.175  14.941  1.0804 -1.0328 -1.5807
16800TIP3    H271816   2.180   3.070  15.038  2.6726 -1.0531 -2.3910
16801TIP3   OH271817   0.085   4.226   2.693  0.0114  0.2552 -0.1292
16801TIP3    H171818   0.030   4.166   2.642  1.0922 -1.1277  0.2900
16801TIP3    H271819   0.033   4.246   2.771  0.0581 -0.9845  0.2343
16802TIP3   OH271820   4.593   4.449  16.784 -0.2236 -0.3930  0.5517
16802TIP3    H171821   4.497   4.446  16.786 -0.2211 -1.6480 -0.4264
16802TIP3    H271822   4.620   4.358  16.782  1.1024 -0.1111  3.3710
16803TIP3   OH271823   0.527   0.908  13.619 -0.1217 -0.7606  0.2318
16803TIP3    H171824   0.508   0.930  13.710  0.8717 -0.2779  0.3324
16803TIP3    H271825   0.517   0.990  13.571  1.3124 -0.5609  0.2379
16804TIP3   OH271826   5.817   6.434   1.749  0.1224 -0.0445  0.0841
16804TIP3    H171827   5.905   6.434   1.788  1.4874  1.4932 -2.8702
16804TIP3    H271828   5.787   6.524   1.759 -0.4302 -0.1686 -0.4483
16805TIP3   OH271829   0.645   5.570   2.048  0.5636  0.3760  0.0465
16805TIP3    H171830   0.634   5.664   2.034 -0.4300  0.2141 -0.3165
16805TIP3    H271831   0.556   5.536   2.053  0.9185 -0.4871  0.6261
16806TIP3   OH271832   5.808   0.020   2.487 -0.0551 -0.7090  0.0471
16806TIP3    H171833   5.819   0.113   2.511  1.6839 -0.2323 -2.4358
16806TIP3    H271834   5.735   0.020   2.426  0.0150 -0.9616 -0.0342
16807TIP3   OH271835   0.472   2.583   5.258  0.0096 -0.2171 -0.0299
16807TIP3    H171836   0.436   2.559   5.344  1.1769 -0.6262  0.3465
16807TIP3    H271837   0.448   2.675   5.248 -0.5127 -0.2842  0.5327
16808TIP3   OH271838   5.688   1.285   3.445 -0.4258  0.1028 -0.3348
16808TIP3    H171839   5.773   1.255   3.414  0.0141  0.7224  0.2510
16808TIP3    H271840   5.658   1.347   3.379 -0.7764 -0.6853 -0.9242
16809TIP3   OH271841   0.189   0.502  11.584  0.0296  0.0830 -0.1329
16809TIP3    H171842   0.134   0.575  11.612 -0.2359  0.3019 -1.2194
16809TIP3    H271843   0.267   0.509  11.638 -0.8348 -0.0003  1.1491
16810TIP3   OH271844   1.662   5.405   5.109  0.2692  0.4382 -0.2954
16810TIP3    H171845   1.590   5.405   5.046  1.8473  1.9385 -2.1711
16810TIP3    H271846   1.651   5.486   5.158  0.4431  0.4713 -0.3117
16811TIP3   OH271847   6.565   5.063  13.099  0.8357 -0.1144 -0.0012
16811TIP3    H171848   6.599   4.980  13.134 -0.7440 -0.4380  0.8114
16811TIP3    H271849   6.643   5.111  13.072  1.8375 -1.4754  0.4026
16812TIP3   OH271850   2.272   2.760  17.204 -0.4072 -0.0568 -0.4666
16812TIP3    H171851   2.197   2.778  17.147 -0.8195  0.8493  0.3331
16812TIP3    H271852   2.261   2.668  17.229 -0.4564 -0.3383 -1.5028
16813TIP3   OH271853   2.810   0.072  11.027 -0.2773 -0.3865  0.7222
16813TIP3    H171854   2.796   0.066  11.122 -2.1922  0.4404  0.5007
16813TIP3    H271855   2.813  -0.019  10.998 -0.5828 -0.6312  1.4350
16814TIP3   OH271856   0.241   1.516   4.431 -0.1860  0.3996 -0.3495
16814TIP3    H171857   0.318   1.531   4.376  1.1712 -0.4846  1.2608
16814TIP3    H271858   0.256   1.570   4.509 -0.7401 -0.4950  0.3873
16815TIP3   OH271859   6.033   6.031   5.510 -0.1061 -0.1594 -0.4688
16815TIP3    H171860   6.056   6.121   5.532 -2.6799  1.0819 -2.5209
16815TIP3    H271861   6.010   5.991   5.594  1.8360  0.8392  0.5658
16816TIP3   OH271862   2.154   0.290  13.780 -1.0061 -0.1532  0.3232
16816TIP3    H171863   2.170   0.263  13.690  1.6019 -0.6757  0.8909
16816TIP3    H271864   2.060   0.278  13.793 -1.3674 -0.2914 -2.2369
16817TIP3   OH271865   5.681   3.573   3.422  0.4185  0.0401 -0.9305
16817TIP3    H171866   5.666   3.632   3.496  1.4016 -1.3924  0.4534
16817TIP3    H271867   5.595   3.533   3.406  0.3739 -0.2695  0.0163
16818TIP3   OH271868   4.247   4.709  17.088  0.0743 -0.4883  0.2292
16818TIP3    H171869   4.246   4.614  17.086  0.7146 -0.4871 -1.5783
16818TIP3    H271870   4.155   4.734  17.099 -0.3870 -1.3196 -1.4595
16819TIP3   OH271871   2.037   6.206   5.720  0.4403 -0.2247  0.0041
16819TIP3    H171872   2.043   6.269   5.792 -0.5048 -1.4039  1.1393
16819TIP3    H271873   2.037   6.260   5.641 -2.2564  1.3489  1.0188
16820TIP3   OH271874   5.694   4.396   5.448  0.8889  0.6241  0.0684
16820TIP3    H171875   5.601   4.414   5.465  0.3539 -2.8385  1.2742
16820TIP3    H271876   5.706   4.418   5.356 -1.2679  0.6429 -0.2384
16821TIP3   OH271877   6.546   4.894   3.895  0.1831  0.0396  0.5887
16821TIP3    H171878   6.459   4.932   3.910 -0.9311 -2.4656  0.6561
16821TIP3    H271879   6.544   4.811   3.943  2.1765 -0.6305 -0.4556
16822TIP3   OH271880   4.675   1.032   6.339 -0.0266 -0.2882 -0.7119
16822TIP3    H171881   4.608   1.100   6.348 -0.9308 -1.4291  1.5147
16822TIP3    H271882   4.754   1.079   6.312 -0.5975  1.6924  0.9298
16823TIP3   OH271883   3.979   3.509  13.257  0.3163 -0.0757  0.1806
16823TIP3    H171884   3.906   3.534  13.200  0.5412 -1.4327 -0.7384
16823TIP3    H271885   3.941   3.448  13.320  0.2003  0.9532  1.1363
16824TIP3   OH271886   1.346   1.305   6.516  0.1889 -0.5265 -0.1998
16824TIP3    H171887   1.383   1.351   6.592 -2.0534 -0.3110  0.8122
16824TIP3    H271888   1.401   1.331   6.443  2.4357 -0.7650  1.3447
16825TIP3   OH271889   2.666   4.387  15.756 -0.2551  0.0193  0.0367
16825TIP3    H171890   2.638   4.298  15.778  1.4516 -0.3382  0.7823
16825TIP3    H271891   2.751   4.377  15.715  0.9843  1.4602  2.1503
16826TIP3   OH271892   0.110   5.146   5.177  0.5918  0.3746  0.6451
16826TIP3    H171893   0.160   5.119   5.254  1.1403 -0.0820  0.1334
16826TIP3    H271894   0.176   5.170   5.112  0.1421  0.1001  0.0831
16827TIP3   OH271895   1.447   1.723  14.447  0.1168 -0.4332  0.2407
16827TIP3    H171896   1.357   1.747  14.469  0.4571  1.2127 -0.0848
16827TIP3    H271897   1.470   1.654  14.509 -0.7540  0.3982  1.5015
16828TIP3   OH271898   0.092   2.304  10.922  0.2311 -0.1707  0.2335
16828TIP3    H171899   0.026   2.311  10.853  1.5366 -1.7644 -1.2088
16828TIP3    H271900   0.158   2.369  10.898  0.9339 -1.0749 -0.3323
16829TIP3   OH271901   5.712   6.481  14.570  0.7255 -0.3102  0.3664
16829TIP3    H171902   5.755   6.424  14.634 -0.8884 -2.8342 -0.7298
16829TIP3    H271903   5.777   6.493  14.501  0.2746 -2.8148 -0.5292
16830TIP3   OH271904   0.791   1.565  11.370 -0.1287  0.0360 -0.2603
16830TIP3    H171905   0.793   1.477  11.333  0.2706  0.8610 -2.2422
16830TIP3    H271906   0.880   1.597  11.361 -0.3714  0.8154  0.0366
16831TIP3   OH271907   3.895   3.711  13.441  0.1546 -0.1413  0.6901
16831TIP3    H171908   3.972   3.736  13.492  0.4876  0.8044 -0.2512
16831TIP3    H271909   3.927   3.640  13.384  0.7578  1.3139 -0.8173
16832TIP3   OH271910   0.083   6.010  15.134  0.6762 -0.2374  0.4971
16832TIP3    H171911   0.166   5.961  15.130  0.1586 -1.2276  1.8085
16832TIP3    H271912   0.079   6.044  15.223 -0.5737 -0.6197  0.5932
16833TIP3   OH271913   1.567   4.167   3.469 -0.5849 -0.3081 -0.5953
16833TIP3    H171914   1.632   4.223   3.428  0.6731 -0.8811  0.5508
16833TIP3    H271915   1.562   4.090   3.412  0.3775 -0.6307 -0.2660
16834TIP3   OH271916   5.055   4.193  11.705 -0.0172 -0.1761  0.8043
16834TIP3    H171917   5.102   4.263  11.660  0.4498 -0.1139  1.3845
16834TIP3    H271918   4.963   4.208  11.682  0.3537 -1.1186 -1.4540
16835TIP3   OH271919   4.102   4.669   1.136 -0.2336 -0.2257 -0.0873
16835TIP3    H171920   4.142   4.584   1.117  1.4293  0.6915 -0.8989
16835TIP3    H271921   4.177   4.728   1.144 -1.4742  1.7497 -2.5231
16836TIP3   OH271922   4.302   0.174  15.599  0.2736 -0.0616  0.0160
16836TIP3    H171923   4.288   0.112  15.527  0.9177 -0.0357 -0.1344
16836TIP3    H271924   4.270   0.258  15.565 -0.2664 -0.2385  0.0904
16837TIP3   OH271925   4.282   0.851  14.997 -0.3808 -0.0141  0.1492
16837TIP3    H171926   4.336   0.778  14.967  1.5174  1.1369  0.6766
16837TIP3    H271927   4.333   0.929  14.976 -3.2152  1.3293 -2.1748
16838TIP3   OH271928   0.519   6.513  13.212  0.1583 -1.0424 -0.2834
16838TIP3    H171929   0.480   6.475  13.134 -2.6061 -0.6741  0.8852
16838TIP3    H271930   0.483   6.601  13.217  1.7257 -0.4220  0.4221
16839TIP3   OH271931   6.783   1.720  13.303  0.3073  0.8305  0.4210
16839TIP3    H171932   6.850   1.714  13.235 -0.8111 -1.0431 -0.5682
16839TIP3    H271933   6.799   1.643  13.359 -1.2691  0.1221 -0.0876
16840TIP3   OH271934   2.815   3.597  14.897 -0.5351  0.2591 -0.5179
16840TIP3    H171935   2.821   3.666  14.831  0.8658  0.8240  0.1916
16840TIP3    H271936   2.899   3.551  14.891  0.6078  1.8444  2.5480
16841TIP3   OH271937   1.261   5.050   4.091 -0.7848  0.2266 -0.1522
16841TIP3    H171938   1.349   5.081   4.067 -0.0523 -0.9400  0.9670
16841TIP3    H271939   1.257   4.961   4.057 -1.7410  0.4577 -0.6540
16842TIP3   OH271940   5.576   2.908  10.967  0.5228  0.1495 -0.1957
16842TIP3    H171941   5.641   2.839  10.961  1.7550  1.2730 -0.0636
16842TIP3    H271942   5.626   2.989  10.962 -0.8891  1.0433 -0.3385
16843TIP3   OH271943   4.098   6.517   4.122  0.0480  0.8904  0.2751
16843TIP3    H171944   4.091   6.423   4.107  0.8419  0.4851  2.2962
16843TIP3    H271945   4.132   6.553   4.040 -2.0217 -0.3274 -1.1367
16844TIP3   OH271946   3.717   0.521   4.534  0.4435 -0.2940 -0.5251
16844TIP3    H171947   3.754   0.510   4.447  0.3648 -0.1277 -0.5807
16844TIP3    H271948   3.736   0.613   4.556  0.2508 -0.2682 -0.4675
16845TIP3   OH271949   5.357   4.947  11.992  1.0833 -0.1692 -0.2623
16845TIP3    H171950   5.377   4.854  11.981  0.0141 -0.4589  0.1862
16845TIP3    H271951   5.263   4.954  11.977  0.9123  0.6190  1.0670
16846TIP3   OH271952   1.704   3.733   6.568  0.3404  0.4083 -0.1655
16846TIP3    H171953   1.760   3.662   6.536 -1.1570  0.1209 -2.2609
16846TIP3    H271954   1.749   3.813   6.541 -0.6727  0.1724 -2.7370
16847TIP3   OH271955   4.172   4.690  13.809 -0.5929  0.1635 -0.0409
16847TIP3    H171956   4.123   4.613  13.779  0.2525 -0.1737 -0.5775
16847TIP3    H271957   4.259   4.655  13.832 -0.4863  0.8143  0.5412
16848TIP3   OH271958   1.619   1.498   6.467  0.9607  0.4730  0.5525
16848TIP3    H171959   1.688   1.432   6.476 -0.1604 -0.4725  2.4859
16848TIP3    H271960   1.575   1.499   6.552  1.1009  3.9375  0.6528
16849TIP3   OH271961   4.909   6.694   2.839  0.3041  0.1798 -0.1163
16849TIP3    H171962   4.904   6.654   2.926  0.3722  1.0695  0.3039
16849TIP3    H271963   4.820   6.722   2.820  0.7479  2.3755  0.8296
16850TIP3   OH271964   4.289   0.351  17.141 -0.2857 -0.0996  0.2919
16850TIP3    H171965   4.339   0.377  17.063 -0.8044 -0.2627 -0.0955
16850TIP3    H271966   4.309   0.419  17.205 -1.2985  1.0431 -0.5894
16851TIP3   OH271967   2.176   1.722  12.599 -0.2214 -0.4344 -0.0598
16851TIP3    H171968   2.176   1.738  12.505  0.0551  0.7417  0.1368
16851TIP3    H271969   2.257   1.762  12.630 -1.1805  0.7729  0.9425
16852TIP3   OH271970   4.835   3.971  10.616  0.1278  0.1064  0.6390
16852TIP3    H171971   4.795   3.934  10.695  0.5035 -0.5640  0.5286
16852TIP3    H271972   4.764   3.977  10.553 -0.4488  1.8840  1.4511
16853TIP3   OH271973   6.386   1.901  17.142 -0.5438  0.0323 -0.6634
16853TIP3    H171974   6.454   1.834  17.144 -1.3324 -0.7788  1.8155
16853TIP3    H271975   6.309   1.857  17.106 -1.2772 -0.7022  1.6508
16854TIP3   OH271976   5.875   4.415   3.135  0.3249  0.0254  0.3914
16854TIP3    H171977   5.902   4.495   3.090 -0.2914  0.4427  0.7576
16854TIP3    H271978   5.850   4.355   3.064  0.6980  0.1840  0.1224
16855TIP3   OH271979   0.255   1.828   1.167 -0.2075  0.4096 -0.2276
16855TIP3    H171980   0.246   1.737   1.193  0.4402 -0.0830 -1.7132
16855TIP3    H271981   0.165   1.861   1.162 -0.4496 -0.1974  0.0702
16856TIP3   OH271982   3.610   4.212  16.179  0.1042 -0.5527  0.3585
16856TIP3    H171983   3.542   4.243  16.119  0.2229  0.5526  0.7757
16856TIP3    H271984   3.640   4.129  16.141  0.1058  0.0733 -1.0629
16857TIP3   OH271985   0.318   0.099  12.037 -0.6468  0.1249 -0.2355
16857TIP3    H171986   0.272   0.024  12.075 -2.6291  2.8670  3.1414
16857TIP3    H271987   0.385   0.120  12.102  0.4663  0.7484 -1.5759
16858TIP3   OH271988   2.691   4.409  16.313 -0.6063  0.2291  0.5695
16858TIP3    H171989   2.644   4.463  16.249  1.4269 -0.6470 -1.7932
16858TIP3    H271990   2.755   4.469  16.353 -1.2646  0.5703  1.1077
16859TIP3   OH271991   6.647   0.444   4.487  0.0691 -0.2571 -0.0046
16859TIP3    H171992   6.667   0.525   4.533  1.0259 -0.1833 -0.5480
16859TIP3    H271993   6.716   0.383   4.514  1.5808  0.2539 -2.5562
16860TIP3   OH271994   6.371   2.080   5.327  0.3759 -0.4626  0.6896
16860TIP3    H171995   6.347   2.155   5.273  3.9901 -0.5508 -1.1946
16860TIP3    H271996   6.298   2.019   5.318 -1.5958  1.8840  0.4541
16861TIP3   OH271997   3.530   2.871   6.575  0.3034 -0.2537 -0.4358
16861TIP3    H171998   3.471   2.828   6.637  2.1356 -0.7705  0.9993
16861TIP3    H271999   3.479   2.943   6.538 -1.3631 -0.9930  0.4191
16862TIP3   OH272000   2.087   3.040  12.703  0.1831 -0.2480 -0.6376
16862TIP3    H172001   2.036   2.962  12.685  0.2240 -0.4326  0.0704
16862TIP3    H272002   2.175   3.019  12.671  0.4558 -0.8814  0.5255
16863TIP3   OH272003   1.647   5.099   4.268 -0.6447  0.6202  0.2241
16863TIP3    H172004   1.680   5.165   4.330  3.2801 -1.2061  0.2278
16863TIP3    H272005   1.617   5.150   4.193  2.2489  2.4597  0.2464
16864TIP3   OH272006   2.095   5.186  11.719 -0.6728  0.2066  0.2222
16864TIP3    H172007   2.180   5.220  11.748 -0.1010 -0.0376 -1.1027
16864TIP3    H272008   2.110   5.161  11.628 -1.6757 -1.6034  0.5375
16865TIP3   OH272009   5.107   4.338  15.005  0.0070 -0.2881 -0.9237
16865TIP3    H172010   5.104   4.433  15.014 -2.8551 -0.3881 -0.2886
16865TIP3    H272011   5.193   4.313  15.037  0.5017  2.0245 -0.3942
16866TIP3   OH272012   6.345   3.752  16.186  0.2825  0.1128  0.0228
16866TIP3    H172013   6.355   3.847  16.177 -0.3679  0.1671 -0.1734
16866TIP3    H272014   6.303   3.741  16.271 -0.2075  0.0363 -0.2306
16867TIP3   OH272015   5.862   3.296   6.045 -0.1167 -0.0345  0.0209
16867TIP3    H172016   5.928   3.349   6.090  0.6788 -0.4066 -0.6851
16867TIP3    H272017   5.816   3.251   6.115 -0.4653  1.1968  0.5961
16868TIP3   OH272018   5.738   1.651   1.566  0.1652  0.0849  0.6344
16868TIP3    H172019   5.724   1.575   1.622  0.5566 -0.1798  0.3794
16868TIP3    H272020   5.828   1.678   1.583  0.7176 -0.7902 -0.8006
16869TIP3   OH272021   3.672   3.495  14.735 -0.6092 -0.4282 -0.1031
16869TIP3    H172022   3.733   3.522  14.803 -1.9280  3.2237 -0.2576
16869TIP3    H272023   3.711   3.526  14.654 -1.4905 -0.2765 -0.4699
16870TIP3   OH272024   6.496   0.104   3.176 -0.4924 -0.3994 -0.0140
16870TIP3    H172025   6.564   0.131   3.238 -0.3761 -0.5963 -0.0565
16870TIP3    H272026   6.510   0.160   3.100 -1.4257  0.7261  0.6197
16871TIP3   OH272027   6.618   4.293  14.458  0.1434  0.1695  0.4492
16871TIP3    H172028   6.660   4.287  14.373  0.8681 -0.6067  0.8516
16871TIP3    H272029   6.528   4.264  14.442  0.2589  0.0962 -0.0673
16872TIP3   OH272030   5.659   4.000   3.145 -0.4359 -0.3524 -0.0082
16872TIP3    H172031   5.615   3.961   3.069  0.4677 -0.1522 -0.6527
16872TIP3    H272032   5.751   3.976   3.133 -0.0938  0.7857  0.3340
16873TIP3   OH272033   2.112   5.626   2.286 -0.1456 -0.3353  0.1468
16873TIP3    H172034   2.201   5.658   2.268  0.5403 -1.3412  1.6385
16873TIP3    H272035   2.081   5.682   2.357  0.1783 -1.4567  1.1859
16874TIP3   OH272036   1.301   3.155  16.178 -0.2719  0.0555  0.4272
16874TIP3    H172037   1.347   3.161  16.261  0.3115 -0.8394  0.1719
16874TIP3    H272038   1.321   3.067  16.145 -0.3720  0.4528 -0.7301
16875TIP3   OH272039   2.962   0.503  12.012  0.0907  0.1454 -0.5209
16875TIP3    H172040   2.976   0.410  11.990 -0.2464 -0.0409  0.0440
16875TIP3    H272041   2.945   0.545  11.928  1.2700 -0.1180 -0.8966
16876TIP3   OH272042   1.593   5.269   4.065  0.3012  0.2246 -0.0424
16876TIP3    H172043   1.615   5.360   4.088 -0.6525  0.7832 -1.2688
16876TIP3    H272044   1.531   5.277   3.992  1.3582 -1.4470 -1.1574
16877TIP3   OH272045   6.650   0.753  16.735 -0.3355  0.2313  0.2609
16877TIP3    H172046   6.716   0.797  16.789 -0.3320 -1.0757  1.3611
16877TIP3    H272047   6.568   0.798  16.755 -0.1062  0.6196  0.3360
16878TIP3   OH272048   4.160   1.541   4.503 -0.7162  0.8238 -0.2784
16878TIP3    H172049   4.083   1.596   4.486 -0.8122  1.2830  1.5385
16878TIP3    H272050   4.123   1.455   4.525 -0.7484  1.1234  0.8948
16879TIP3   OH272051   5.615   4.948   6.420 -0.3009 -0.0277  0.1886
16879TIP3    H172052   5.547   5.004   6.383 -0.1549  0.0977  0.1061
16879TIP3    H272053   5.580   4.859   6.414 -0.6625  0.0870  0.6045
16880TIP3   OH272054   5.672   5.769  13.288  0.0377 -0.4734  0.7394
16880TIP3    H172055   5.753   5.747  13.333 -0.6180  0.3614  2.3679
16880TIP3    H272056   5.604   5.756  13.353 -1.3115 -2.5723 -1.0536
16881TIP3   OH272057   4.804   2.738  15.558  0.5983 -0.3854  0.1364
16881TIP3    H172058   4.775   2.828  15.577  2.0191  0.5251 -1.7958
16881TIP3    H272059   4.723   2.690  15.542 -0.2421  0.3257  2.0285
16882TIP3   OH272060   6.583   1.172   5.263 -0.0552 -0.5963 -0.1284
16882TIP3    H172061   6.675   1.186   5.240 -0.2678 -1.6492 -1.6535
16882TIP3    H272062   6.550   1.111   5.197 -1.7839 -0.4537  0.5718
16883TIP3   OH272063   4.218   4.365  12.584  0.6017 -0.2819 -0.8181
16883TIP3    H172064   4.172   4.385  12.665  1.6104 -1.1646 -0.0073
16883TIP3    H272065   4.149   4.346  12.521 -0.1455 -3.8219  0.9677
16884TIP3   OH272066   0.106   1.492   5.721 -0.9301 -0.9166 -0.0979
16884TIP3    H172067   0.100   1.424   5.654  0.4404 -0.4217 -0.7293
16884TIP3    H272068   0.185   1.471   5.770  0.1997  0.9007 -1.0818
16885TIP3   OH272069   4.543   2.083  11.475 -0.5637  0.0487  0.0834
16885TIP3    H172070   4.566   2.007  11.529 -1.9218 -0.1646  0.3725
16885TIP3    H272071   4.545   2.051  11.385 -0.4478 -0.1496  0.1572
16886TIP3   OH272072   3.504   2.158  11.970 -0.2912 -0.3508  0.3412
16886TIP3    H172073   3.512   2.243  12.013 -0.3332 -0.4140  0.4748
16886TIP3    H272074   3.506   2.178  11.876  0.1560 -0.2475  0.3736
16887TIP3   OH272075   4.138   0.445   0.923  0.0475 -0.3257  0.3894
16887TIP3    H172076   4.063   0.394   0.955  1.5965 -3.7211 -1.1642
16887TIP3    H272077   4.213   0.407   0.968  1.0295  1.9978  0.7454
16888TIP3   OH272078   4.116   6.568   1.254 -0.3977 -0.1354 -0.2745
16888TIP3    H172079   4.178   6.522   1.310  1.5274  1.6161 -0.9035
16888TIP3    H272080   4.166   6.640   1.217 -2.7308  1.1123 -1.0994
16889TIP3   OH272081   2.946   4.450   4.981 -0.3520 -0.1453 -0.8682
16889TIP3    H172082   2.920   4.462   5.072  0.2277 -0.6470 -0.6365
16889TIP3    H272083   2.868   4.475   4.931 -0.8947 -0.5031 -0.2191
16890TIP3   OH272084   3.884   3.608  11.844  0.5109  0.6561 -0.1499
16890TIP3    H172085   3.883   3.671  11.772  0.2212 -0.2019 -0.9018
16890TIP3    H272086   3.970   3.566  11.837  0.2540  0.1598 -0.3628
16891TIP3   OH272087   2.583   3.968  13.146  0.2012  0.4843 -0.2381
16891TIP3    H172088   2.554   3.878  13.132 -0.9358  0.6501  0.9764
16891TIP3    H272089   2.534   3.997  13.223  2.0708  1.4574  0.6203
16892TIP3   OH272090   3.314   2.699  11.977  0.1498 -0.3882  0.1191
16892TIP3    H172091   3.349   2.762  12.041  0.9122 -1.3569  0.6648
16892TIP3    H272092   3.219   2.713  11.979  0.2683  0.3829  0.6159
16893TIP3   OH272093   2.402   4.161   0.801  0.1080  0.1826  0.7901
16893TIP3    H172094   2.475   4.137   0.745 -0.1066 -1.2768  1.1196
16893TIP3    H272095   2.436   4.230   0.857  1.0781 -0.1325  0.5908
16894TIP3   OH272096   3.982   5.597   1.655  0.5201 -0.3740  0.4739
16894TIP3    H172097   3.941   5.614   1.739 -0.0666  2.0547 -0.2640
16894TIP3    H272098   3.960   5.506   1.635  0.6889 -0.9890  2.9275
16895TIP3   OH272099   3.162   1.717  15.474  0.0111 -1.0091  0.5084
16895TIP3    H172100   3.118   1.675  15.400  0.0637 -1.3172  0.6525
16895TIP3    H272101   3.090   1.740  15.534 -0.2712  1.3408 -0.6795
16896TIP3   OH272102   4.184   2.892  13.430 -0.3512  0.5322 -0.0162
16896TIP3    H172103   4.219   2.914  13.344  0.1766 -0.2246 -0.0052
16896TIP3    H272104   4.135   2.811  13.416  3.4468 -2.1189  1.1907
16897TIP3   OH272105   6.078   1.820  13.301  0.1382  0.7878  0.0182
16897TIP3    H172106   6.041   1.893  13.351 -1.0722  0.5389 -0.4868
16897TIP3    H272107   6.068   1.744  13.358 -2.0957  0.3276 -0.9093
16898TIP3   OH272108   3.800   2.329  13.283 -0.1715 -0.1687  0.2704
16898TIP3    H172109   3.821   2.386  13.357  1.0402  0.6919 -0.7143
16898TIP3    H272110   3.798   2.387  13.208  1.6931 -1.5087 -0.8454
16899TIP3   OH272111   6.534   6.329  17.068 -0.1416 -0.1420  0.0939
16899TIP3    H172112   6.510   6.406  17.017  2.8692  0.1730 -0.9556
16899TIP3    H272113   6.518   6.255  17.009 -1.2248 -0.1787  0.4268
16900TIP3   OH272114   3.790   3.515  16.496  0.3473 -0.5978  0.1419
16900TIP3    H172115   3.850   3.582  16.465  1.7249 -1.2355  1.3862
16900TIP3    H272116   3.704   3.558  16.497  1.0641  0.8591  0.0448
16901TIP3   OH272117   6.039   2.563   6.520  0.1850 -0.0322 -0.2826
16901TIP3    H172118   5.994   2.481   6.539  0.9032 -0.1667  0.9290
16901TIP3    H272119   6.119   2.537   6.475  0.2195  0.0298 -0.2590
16902TIP3   OH272120   3.225   4.168  13.063  0.0396  0.0373 -0.2863
16902TIP3    H172121   3.232   4.083  13.018  0.1528 -0.7000  1.0859
16902TIP3    H272122   3.132   4.190  13.057  0.1061  0.1083 -1.1548
16903TIP3   OH272123   3.164   2.078   4.321  0.3663  0.2589  0.1055
16903TIP3    H172124   3.116   2.013   4.269  0.0547  0.7577 -0.2410
16903TIP3    H272125   3.242   2.097   4.268  0.8882 -0.4581  0.6082
16904TIP3   OH272126   6.753   6.303   5.975 -0.5750  0.1046 -0.8331
16904TIP3    H172127   6.772   6.209   5.963 -2.5854 -0.1601 -2.0652
16904TIP3    H272128   6.663   6.313   5.945 -0.5568  2.3508 -0.1705
16905TIP3   OH272129   1.143   3.914  13.692  0.3270 -0.0275 -0.5752
16905TIP3    H172130   1.198   3.906  13.770  0.5084  0.7208 -0.6167
16905TIP3    H272131   1.123   4.008  13.687 -1.3263 -0.3503 -0.3067
16906TIP3   OH272132   3.299   3.708  15.780  0.3322  0.2852  0.3925
16906TIP3    H172133   3.203   3.707  15.773  0.2525  2.3999  0.6889
16906TIP3    H272134   3.330   3.684  15.692 -0.4640 -0.7758  0.3956
16907TIP3   OH272135   3.960   1.534  10.744 -0.4670  0.0034  0.8658
16907TIP3    H172136   3.950   1.552  10.650  0.2839 -1.3429  0.5082
16907TIP3    H272137   3.975   1.620  10.784  0.4657  0.4498 -0.4172
16908TIP3   OH272138   0.988   0.550   0.073 -0.0213  0.0716 -0.4163
16908TIP3    H172139   0.993   0.455   0.066  0.9619 -0.1181  2.3512
16908TIP3    H272140   0.924   0.566   0.142  0.2775  1.4121 -0.4326
16909TIP3   OH272141   2.878   2.146   5.097  0.1582 -0.4722  0.6638
16909TIP3    H172142   2.833   2.066   5.123 -0.7184 -0.1192  0.2485
16909TIP3    H272143   2.917   2.179   5.177 -1.3187 -0.1477  1.2607
16910TIP3   OH272144   5.009   5.113   1.621  0.7106 -0.0458  0.1161
16910TIP3    H172145   5.101   5.088   1.613  0.1975 -1.8377 -0.4735
16910TIP3    H272146   4.991   5.109   1.715  0.7755 -1.5312  0.0871
16911TIP3   OH272147   5.558   6.618  12.225 -0.3521 -0.4052  0.1849
16911TIP3    H172148   5.512   6.596  12.306 -0.4347 -0.3975  0.1408
16911TIP3    H272149   5.559   6.714  12.224 -0.7928 -0.4039 -0.0745
16912TIP3   OH272150   3.702   5.111  11.873 -0.3473 -0.1979 -0.5929
16912TIP3    H172151   3.691   5.094  11.780  1.6809  2.3700 -1.3661
16912TIP3    H272152   3.698   5.207  11.881 -1.0263 -0.3936  2.0398
16913TIP3   OH272153   1.677   0.929  15.467 -0.3888  0.4335 -0.2847
16913TIP3    H172154   1.740   0.876  15.516 -1.9732 -1.1362  0.0813
16913TIP3    H272155   1.656   1.001  15.525 -3.0598 -1.9760  1.8344
16914TIP3   OH272156   4.985   3.723   1.276  0.2342  0.0656 -0.0255
16914TIP3    H172157   4.910   3.664   1.265  0.4254  0.0016 -1.0370
16914TIP3    H272158   5.046   3.697   1.208  1.9032 -0.9586  1.8035
16915TIP3   OH272159   3.927   3.170  15.125 -0.3703  0.8944  0.2007
16915TIP3    H172160   4.010   3.187  15.082 -0.5247  0.5333 -0.2403
16915TIP3    H272161   3.902   3.082  15.097 -1.3143  1.3242 -0.3419
16916TIP3   OH272162   4.054   4.923   1.466  0.2124  0.1971 -0.2888
16916TIP3    H172163   4.080   4.970   1.386 -2.3678  0.7453 -0.8646
16916TIP3    H272164   4.004   4.848   1.434  0.5945 -0.5358  0.7894
16917TIP3   OH272165   5.154   6.189  12.744  0.2092  0.3889  0.0521
16917TIP3    H172166   5.116   6.210  12.658  0.4059  1.3343  0.1854
16917TIP3    H272167   5.237   6.145  12.723  0.4816  1.0339 -0.2528
16918TIP3   OH272168   2.853   5.872  12.962  0.3288  0.0761  0.5147
16918TIP3    H172169   2.835   5.884  12.869  0.1978 -0.6939  0.4380
16918TIP3    H272170   2.856   5.778  12.974  1.3227  0.1755  1.1107
16919TIP3   OH272171   1.292   6.595   2.595 -0.0099  0.3937  0.1370
16919TIP3    H172172   1.281   6.662   2.528  0.7417 -0.2502 -0.6325
16919TIP3    H272173   1.226   6.617   2.661  0.9288  2.5292  0.4176
16920TIP3   OH272174   5.737   0.737   6.176 -0.0998 -0.4002 -0.2386
16920TIP3    H172175   5.764   0.828   6.165  0.7618 -0.6792 -0.5488
16920TIP3    H272176   5.676   0.720   6.104  0.5397 -0.3604 -0.7997
16921TIP3   OH272177   6.657   4.337  14.867 -0.6919  0.4916  0.1167
16921TIP3    H172178   6.752   4.344  14.882 -0.7534  0.0447  0.7227
16921TIP3    H272179   6.649   4.265  14.803 -0.6738  0.0098  0.6526
16922TIP3   OH272180   2.356   1.059   5.158 -0.7058 -0.6460 -0.3243
16922TIP3    H172181   2.397   1.086   5.075 -0.3428 -1.1790 -0.3252
16922TIP3    H272182   2.278   1.113   5.165  0.2068  0.6604 -0.1296
16923TIP3   OH272183   4.413   4.296   3.407 -0.0798 -0.6074  0.3640
16923TIP3    H172184   4.346   4.304   3.475 -0.2744 -0.6244  0.1752
16923TIP3    H272185   4.438   4.386   3.387 -1.1033 -0.5316 -0.6104
16924TIP3   OH272186   5.902   5.820   0.041 -0.3727 -0.5806  0.5191
16924TIP3    H172187   5.874   5.775   0.121 -3.4069  0.3508  0.0382
16924TIP3    H272188   5.825   5.820  -0.015  0.4202  2.5321 -0.6833
16925TIP3   OH272189   3.459   4.394   4.930  0.3365  0.2170  0.4947
16925TIP3    H172190   3.366   4.407   4.952  0.3660 -1.4966  1.6752
16925TIP3    H272191   3.504   4.392   5.014  1.4795  1.1111 -0.0788
16926TIP3   OH272192   3.915   6.622  14.167  0.2416  0.3556 -0.5947
16926TIP3    H172193   3.823   6.593  14.171  0.4797 -0.2730  1.0124
16926TIP3    H272194   3.965   6.543  14.186  1.1895  0.4106 -2.8042
16927TIP3   OH272195   3.517   5.551  11.890 -0.6553  0.0630 -0.3857
16927TIP3    H172196   3.444   5.494  11.916 -1.3578  0.5018 -1.3520
16927TIP3    H272197   3.477   5.638  11.885  0.4258  0.6695  1.1692
16928TIP3   OH272198   5.037   1.816   1.384  0.5407  0.0404  0.1011
16928TIP3    H172199   5.077   1.902   1.379 -1.1952  0.7696 -2.5759
16928TIP3    H272200   4.952   1.831   1.425  0.1022 -0.3254 -0.6498
16929TIP3   OH272201   0.749   0.395  11.138 -0.0226 -0.4679  0.3322
16929TIP3    H172202   0.816   0.455  11.172  2.9089 -2.8997 -0.8950
16929TIP3    H272203   0.695   0.373  11.214  0.0933  2.1335  1.1971
16930TIP3   OH272204   5.346   2.151   1.932 -0.2665  0.3974 -0.3287
16930TIP3    H172205   5.356   2.237   1.893 -0.2049 -0.2375 -1.7380
16930TIP3    H272206   5.309   2.097   1.862 -0.6625 -0.6264  0.6501
16931TIP3   OH272207   6.111   3.223   4.976  0.5217 -0.3708 -0.6154
16931TIP3    H172208   6.117   3.213   4.881 -2.1706 -1.3513 -0.7170
16931TIP3    H272209   6.057   3.300   4.989  0.8299 -0.2720  0.1402
16932TIP3   OH272210   3.963   1.199   3.152  0.5469 -0.2439  0.3385
16932TIP3    H172211   3.947   1.293   3.141 -0.4286 -0.1591  2.2769
16932TIP3    H272212   3.899   1.157   3.095 -0.7681  0.2575  1.4014
16933TIP3   OH272213   5.961   4.009   3.051 -0.0238 -0.4355 -0.0920
16933TIP3    H172214   5.931   3.918   3.056 -1.2465  0.0144  1.0403
16933TIP3    H272215   6.019   4.019   3.126 -0.8882  0.0697  0.5153
16934TIP3   OH272216   6.401   1.218  15.791  0.1154 -0.2829  0.2815
16934TIP3    H172217   6.380   1.238  15.882  0.3326  0.2579  0.2196
16934TIP3    H272218   6.317   1.192  15.752 -0.2702  0.9484  0.2656
16935TIP3   OH272219   1.953   5.193   0.657 -0.2334 -0.0701  0.2378
16935TIP3    H172220   2.004   5.222   0.733  1.8754 -1.8310 -0.4753
16935TIP3    H272221   1.912   5.111   0.685 -1.3251  0.4546  0.2217
16936TIP3   OH272222   2.395   1.211   1.262  0.2956  0.6566 -0.1662
16936TIP3    H172223   2.464   1.273   1.286  0.0509  0.6914  0.4594
16936TIP3    H272224   2.423   1.128   1.300  0.1033  0.6184 -0.1067
16937TIP3   OH272225   5.388   6.046   1.857  0.0970 -0.0413  0.2133
16937TIP3    H172226   5.402   6.109   1.786 -0.7221 -0.2235 -0.1111
16937TIP3    H272227   5.339   6.094   1.923 -1.3439 -0.6053 -0.4378
16938TIP3   OH272228   0.503   1.083   2.991 -0.0548 -0.2188  0.2372
16938TIP3    H172229   0.530   1.172   3.015 -2.0557  0.5144 -0.0682
16938TIP3    H272230   0.548   1.026   3.053  0.4141  1.1026  1.1362
16939TIP3   OH272231   1.804   6.277  15.142 -0.2935  0.1001  0.8271
16939TIP3    H172232   1.817   6.189  15.177  0.7780  0.8890  2.4634
16939TIP3    H272233   1.875   6.329  15.179  0.1434  1.2625 -1.5559
16940TIP3   OH272234   1.162   5.412  11.373 -0.0561  0.4483 -0.7251
16940TIP3    H172235   1.237   5.468  11.352 -0.9887  1.4304 -1.5269
16940TIP3    H272236   1.117   5.457  11.444  0.2529 -0.2796 -0.0590
16941TIP3   OH272237   5.255   3.011   3.787 -0.5502 -0.0447  0.3984
16941TIP3    H172238   5.231   2.996   3.696 -0.1500 -0.3671  0.3415
16941TIP3    H272239   5.234   3.103   3.804 -1.6016 -0.2645  0.2903
16942TIP3   OH272240   1.516   3.350  16.468  0.2379  0.3041 -0.1225
16942TIP3    H172241   1.463   3.425  16.495  1.8598  1.0192  1.1667
16942TIP3    H272242   1.565   3.326  16.546  1.5173 -0.5968 -1.1838
16943TIP3   OH272243   1.253   3.943  12.145  0.0722  0.1812  0.7772
16943TIP3    H172244   1.330   3.887  12.154  0.2737  0.2232 -0.4943
16943TIP3    H272245   1.244   3.986  12.229  1.8812  0.7295  0.7091
16944TIP3   OH272246   1.680   1.336  11.771  0.8498 -0.4643  0.3457
16944TIP3    H172247   1.732   1.399  11.820  0.3104  0.6238 -0.4700
16944TIP3    H272248   1.682   1.368  11.681  1.9535 -2.5146 -0.3956
16945TIP3   OH272249   2.314   5.524  12.099 -0.0518  0.1318  0.0338
16945TIP3    H172250   2.343   5.593  12.039  1.2299 -1.4152 -1.1890
16945TIP3    H272251   2.384   5.518  12.164  0.2317 -0.5432 -0.3263
16946TIP3   OH272252   1.119   4.214   6.431  0.2882  0.0656 -0.0563
16946TIP3    H172253   1.137   4.132   6.384  0.4170 -0.8594  1.5657
16946TIP3    H272254   1.126   4.190   6.524 -0.7370  1.6716  0.4508
16947TIP3   OH272255   0.075   0.421   1.928 -0.2014 -0.5746  0.3230
16947TIP3    H172256   0.059   0.336   1.887 -1.5835 -0.4081  0.4852
16947TIP3    H272257   0.013   0.424   2.001 -1.0626  1.0872 -0.4386
16948TIP3   OH272258   1.391   2.362   1.976  0.1746 -0.3369 -0.4171
16948TIP3    H172259   1.421   2.451   1.957  0.3490  0.7024  4.0729
16948TIP3    H272260   1.462   2.324   2.028 -1.4634 -1.8056  0.7744
16949TIP3   OH272261   0.099   2.014  13.372 -0.3952 -0.1292 -0.1221
16949TIP3    H172262   0.058   2.013  13.459  1.6194 -2.9329  0.8764
16949TIP3    H272263   0.158   2.089  13.375 -0.0232 -0.4482  1.1151
16950TIP3   OH272264   6.338   3.782   1.124 -0.3385 -0.3059  0.0788
16950TIP3    H172265   6.299   3.701   1.092 -0.5707 -0.3282  0.4262
16950TIP3    H272266   6.329   3.778   1.219  0.5928 -0.3573  0.1747
16951TIP3   OH272267   0.500   0.142   5.068 -0.6542 -0.3797  0.5097
16951TIP3    H172268   0.555   0.217   5.092 -1.0738 -0.2510  1.0981
16951TIP3    H272269   0.555   0.088   5.012  0.1223 -0.3312  1.2190
16952TIP3   OH272270   1.896   5.305   2.015  0.2233 -0.0155 -0.9677
16952TIP3    H172271   1.922   5.320   1.924 -1.9587 -1.2426 -1.8354
16952TIP3    H272272   1.969   5.338   2.067  2.3590 -1.0744 -3.2208
16953TIP3   OH272273   6.773   1.995   0.751  0.7706 -0.7973 -0.5639
16953TIP3    H172274   6.847   1.992   0.690  1.7367 -1.0715  0.6145
16953TIP3    H272275   6.792   1.928   0.816 -0.0962 -0.2933  0.2234
16954TIP3   OH272276   4.088   3.939   0.997  0.2575 -0.0374 -0.1436
16954TIP3    H172277   4.088   4.026   0.958 -1.7059 -0.4285 -1.0637
16954TIP3    H272278   4.091   3.954   1.091 -1.6624  1.0584 -0.2456
16955TIP3   OH272279   4.223   2.476  13.066  0.0302  0.3288  0.0930
16955TIP3    H172280   4.272   2.405  13.108  0.1920 -0.7328 -1.7792
16955TIP3    H272281   4.272   2.555  13.086  1.8529 -0.5624 -0.6939
16956TIP3   OH272282   2.361   3.937   1.491  0.1518 -0.4329 -0.2484
16956TIP3    H172283   2.330   4.018   1.450 -2.8317 -0.7860  1.1652
16956TIP3    H272284   2.417   3.967   1.563 -0.4211  0.3837 -0.1269
16957TIP3   OH272285   3.753   1.260  17.235 -0.7366  0.2659 -0.5315
16957TIP3    H172286   3.742   1.261  17.140  0.3612  1.8983 -0.6451
16957TIP3    H272287   3.847   1.248  17.248 -0.9616 -0.5726  0.3625
16958TIP3   OH272288   0.983   5.777   0.340 -0.6251 -0.2972  0.1407
16958TIP3    H172289   1.011   5.694   0.381 -1.8486 -1.3702 -1.1481
16958TIP3    H272290   0.897   5.794   0.378 -1.4056 -0.8692 -1.3501
16959TIP3   OH272291   4.883   0.595  15.442  0.2379  0.0119 -0.1848
16959TIP3    H172292   4.893   0.557  15.530  2.3512 -0.0258 -0.4258
16959TIP3    H272293   4.949   0.551  15.390  1.5207  2.7277 -0.9154
16960TIP3   OH272294   4.660   4.340  14.524 -0.7309  0.1640  0.2184
16960TIP3    H172295   4.695   4.348  14.613 -2.3450 -1.3699  1.0144
16960TIP3    H272296   4.724   4.285  14.479  0.1363  1.0150  0.3912
16961TIP3   OH272297   4.829   5.440   0.517 -0.8109 -0.5353  0.3260
16961TIP3    H172298   4.744   5.484   0.530 -0.7809 -0.8461  1.5732
16961TIP3    H272299   4.878   5.500   0.461 -1.2555  0.4215  0.9508
16962TIP3   OH272300   1.841   2.074   3.683 -0.2988 -0.1911 -0.6439
16962TIP3    H172301   1.755   2.079   3.641 -0.0007  0.1012 -1.2260
16962TIP3    H272302   1.848   2.156   3.732  0.3795  0.6265 -2.0425
16963TIP3   OH272303   6.428   2.409   0.738  0.2559 -0.5802  0.3420
16963TIP3    H172304   6.423   2.366   0.652 -1.8479  0.5686 -0.1409
16963TIP3    H272305   6.516   2.446   0.741 -0.1168  0.6201 -1.9575
16964TIP3   OH272306   1.217   1.928   3.059 -0.3430  0.1407 -0.2377
16964TIP3    H172307   1.196   1.879   2.980 -1.5449  0.9508 -0.4339
16964TIP3    H272308   1.131   1.953   3.095  0.1249 -1.1154  1.8920
16965TIP3   OH272309   3.672   4.992   0.968  0.2499 -0.0221  0.0442
16965TIP3    H172310   3.595   4.954   1.010 -1.4109  0.1914 -2.7060
16965TIP3    H272311   3.742   4.928   0.984 -0.7179 -0.7187  1.6443
16966TIP3   OH272312   1.964   2.592  11.690  0.6681  0.2267  0.0823
16966TIP3    H172313   1.954   2.644  11.770 -0.8758  0.9151 -0.5497
16966TIP3    H272314   1.888   2.534  11.689 -0.4135  1.6154 -1.9054
16967TIP3   OH272315   1.385   3.465  14.397  0.6320  0.0942 -0.0797
16967TIP3    H172316   1.291   3.452  14.386  0.1981  0.9157  2.2020
16967TIP3    H272317   1.406   3.420  14.480  2.4702 -1.0561 -1.1245
16968TIP3   OH272318   0.112   5.434  16.076 -0.7442  0.4557 -1.0085
16968TIP3    H172319   0.061   5.402  16.001  1.4556 -2.9538 -1.1490
16968TIP3    H272320   0.163   5.507  16.040 -2.1827  1.0270 -1.9597
16969TIP3   OH272321   2.330   2.904   4.550  0.2346 -0.4403 -0.0253
16969TIP3    H172322   2.411   2.881   4.504  1.7356  0.5949  1.9943
16969TIP3    H272323   2.350   2.987   4.593 -2.0542  0.0282  0.2159
16970TIP3   OH272324   1.600   4.499  12.119  0.2734  0.1372  0.2639
16970TIP3    H172325   1.571   4.587  12.143  2.4339  0.3013  2.5076
16970TIP3    H272326   1.665   4.513  12.050 -1.3913  0.0746 -1.3613
16971TIP3   OH272327   4.431   6.332   5.774 -0.1242 -0.6441  0.7327
16971TIP3    H172328   4.459   6.302   5.688 -2.6424 -0.7730 -0.0903
16971TIP3    H272329   4.418   6.251   5.824  1.3993 -0.5677  1.2797
16972TIP3   OH272330   6.102   4.677  16.292  0.1768 -0.8877 -0.2691
16972TIP3    H172331   6.037   4.746  16.283  0.2225 -0.6675  0.9968
16972TIP3    H272332   6.172   4.701  16.231 -0.9764 -1.2056 -1.7439
16973TIP3   OH272333   2.550   4.159   0.517 -0.1811 -0.0102 -0.0466
16973TIP3    H172334   2.514   4.202   0.439  0.2267  0.7957  0.2040
16973TIP3    H272335   2.492   4.084   0.532 -2.3744  1.8501  0.9666
16974TIP3   OH272336   3.940   0.156   4.169 -0.2018  0.2363  0.0077
16974TIP3    H172337   3.858   0.162   4.120 -0.5799 -0.1434  0.5932
16974TIP3    H272338   3.913   0.159   4.261  0.5165  1.1100  0.1954
16975TIP3   OH272339   6.015   5.710  13.203 -0.8242  0.3778 -0.0169
16975TIP3    H172340   6.034   5.804  13.200  2.7148 -0.2509  0.1434
16975TIP3    H272341   6.054   5.681  13.286  0.3867 -1.6419 -1.2510
16976TIP3   OH272342   1.859   1.554  14.708 -0.3029 -0.1771  0.1809
16976TIP3    H172343   1.944   1.597  14.696 -1.3149  1.5907 -1.1670
16976TIP3    H272344   1.808   1.616  14.760 -1.0511 -0.8022  0.2062
16977TIP3   OH272345   0.176   1.048  12.773 -0.2188 -0.4671 -0.0354
16977TIP3    H172346   0.102   1.031  12.715 -0.6691  0.9042  0.1245
16977TIP3    H272347   0.236   1.103  12.722 -0.1772 -0.0376  0.4673
16978TIP3   OH272348   2.776   0.274   5.607  0.3970 -0.2391  0.2342
16978TIP3    H172349   2.825   0.315   5.536 -0.1079 -1.1553 -0.6612
16978TIP3    H272350   2.835   0.206   5.640  1.1153  0.9779  1.5191
16979TIP3   OH272351   6.217   6.284  12.865 -0.8399 -0.2894 -0.2817
16979TIP3    H172352   6.195   6.245  12.780 -1.6204  0.2776 -0.3449
16979TIP3    H272353   6.195   6.377  12.855  1.0544  0.1775 -0.1487
16980TIP3   OH272354   3.754   3.271   4.919  0.4195  0.0274 -0.9858
16980TIP3    H172355   3.678   3.219   4.946 -1.2945  2.0415 -1.8490
16980TIP3    H272356   3.812   3.270   4.995 -1.2278 -0.1438  0.2911
16981TIP3   OH272357   1.404   3.520  16.090  0.1204 -0.0279 -0.0915
16981TIP3    H172358   1.360   3.531  16.005 -0.4327  0.6309  0.2732
16981TIP3    H272359   1.399   3.607  16.131 -1.6606 -0.8726  1.5773
16982TIP3   OH272360   2.592   3.090   1.697 -0.2868 -0.2172  0.3061
16982TIP3    H172361   2.662   3.034   1.729  0.2335  0.2803  0.0540
16982TIP3    H272362   2.621   3.118   1.610 -0.0743  1.2283  0.8231
16983TIP3   OH272363   2.496   2.138  13.674  0.3433 -0.2622  0.4557
16983TIP3    H172364   2.403   2.161  13.677  0.5113  0.7013 -1.0997
16983TIP3    H272365   2.538   2.200  13.734  0.0175 -0.6287  1.0766
16984TIP3   OH272366   3.083   1.431   2.717 -0.1338  0.5046  0.3748
16984TIP3    H172367   3.085   1.474   2.802  0.8356  0.9683  0.1199
16984TIP3    H272368   3.160   1.464   2.671  0.5773 -1.4183  0.1296
16985TIP3   OH272369   4.266   2.879  13.862  0.1071  0.0454  0.0212
16985TIP3    H172370   4.185   2.927  13.843  0.2496  0.1311 -0.3850
16985TIP3    H272371   4.288   2.904  13.951 -1.0709 -1.0684  0.6464
16986TIP3   OH272372   3.372   5.987   3.724  0.1870 -0.1102  0.4177
16986TIP3    H172373   3.442   5.921   3.720  0.2115 -0.0734  0.2358
16986TIP3    H272374   3.331   5.983   3.638  0.6994  0.6690  0.1274
16987TIP3   OH272375   1.677   2.510  13.359  0.0888 -0.4242  0.1511
16987TIP3    H172376   1.630   2.499  13.277  0.9233  0.9849 -0.5556
16987TIP3    H272377   1.645   2.593  13.394 -0.2205 -0.9887  1.2316
16988TIP3   OH272378   3.515   6.715   1.360  0.6041  0.4243  0.6570
16988TIP3    H172379   3.556   6.630   1.377 -0.0061  0.7028  3.9632
16988TIP3    H272380   3.428   6.693   1.327 -0.7538 -0.3825  4.4849
16989TIP3   OH272381   5.095   6.533   0.310 -0.4315  0.2054 -0.0129
16989TIP3    H172382   5.009   6.572   0.329  0.0226  0.8282  0.8016
16989TIP3    H272383   5.126   6.501   0.395  0.0932 -0.1265 -0.3276
16990TIP3   OH272384   4.708   5.072   1.611  0.1427 -0.2005  0.0714
16990TIP3    H172385   4.804   5.069   1.607  0.1560 -0.9950  0.6470
16990TIP3    H272386   4.680   5.064   1.520  0.6147 -1.3035  0.0076
16991TIP3   OH272387   5.328   0.190  16.875  0.5358  0.1852 -0.5888
16991TIP3    H172388   5.277   0.109  16.873 -0.3095  0.6428  1.1272
16991TIP3    H272389   5.396   0.173  16.940  1.7707  0.0615 -1.8885
16992TIP3   OH272390   3.584   5.919   5.167  0.2597  0.1621  0.6427
16992TIP3    H172391   3.595   5.890   5.258 -0.8784 -1.2899  0.3301
16992TIP3    H272392   3.501   5.880   5.139  0.3021  1.0890 -0.8380
16993TIP3   OH272393   4.382   3.829  11.128  0.4303  0.1232 -0.5166
16993TIP3    H172394   4.447   3.853  11.062 -0.2574  0.2041 -1.1693
16993TIP3    H272395   4.372   3.734  11.118  0.8064  0.0351 -0.0811
16994TIP3   OH272396   1.969   6.400   1.642 -0.5776  0.1372 -0.3987
16994TIP3    H172397   2.031   6.471   1.659 -0.3286 -0.1139 -0.2405
16994TIP3    H272398   1.884   6.443   1.638 -0.5850  0.2770  1.0437
16995TIP3   OH272399   5.243   5.918   6.610  0.3461 -0.2529  0.6366
16995TIP3    H172400   5.170   5.919   6.547  0.1824  1.0748  0.8422
16995TIP3    H272401   5.298   5.846   6.581  0.5376  0.6480 -1.3383
16996TIP3   OH272402   0.620   3.330   0.743  0.2373 -0.3504 -0.2579
16996TIP3    H172403   0.638   3.249   0.790  1.9545  0.2437  0.1592
16996TIP3    H272404   0.615   3.304   0.651 -2.1171 -1.3555  0.1242
16997TIP3   OH272405   4.829   5.393  14.414 -0.0364  0.4710 -0.0861
16997TIP3    H172406   4.742   5.404  14.376  0.4105 -0.1614 -1.3022
16997TIP3    H272407   4.842   5.471  14.468 -0.2801  1.8303 -1.9769
16998TIP3   OH272408   3.630   2.542  11.808 -0.9928  0.0447  0.5090
16998TIP3    H172409   3.710   2.492  11.798 -1.0622 -0.1306  0.8238
16998TIP3    H272410   3.659   2.629  11.836 -0.8701  0.1973 -0.0834
16999TIP3   OH272411   2.333   6.383   0.787 -0.5803  0.0609 -0.6410
16999TIP3    H172412   2.266   6.336   0.738 -4.1134  1.0872  2.9963
16999TIP3    H272413   2.370   6.318   0.847  0.2295  0.0273 -1.1590
17000TIP3   OH272414   6.241   5.940  12.467  0.4731  0.1211  0.0012
17000TIP3    H172415   6.180   5.921  12.396 -0.7358  2.0421  0.4857
17000TIP3    H272416   6.213   5.884  12.539 -1.9831  2.3459  0.8609
17001TIP3   OH272417   0.077   0.658   4.927  0.2057 -0.1223 -0.2415
17001TIP3    H172418   0.101   0.573   4.891  2.0298  0.9609 -1.7058
17001TIP3    H272419   0.157   0.710   4.920 -0.6262  1.4409  1.4814
17002TIP3   OH272420   5.332   0.066   6.035 -0.3986 -0.4452 -0.0978
17002TIP3    H172421   5.255   0.101   6.079  1.7166  1.2048  2.4325
17002TIP3    H272422   5.388   0.034   6.106  1.4030 -1.3155 -1.8419
17003TIP3   OH272423   4.989   0.996  15.295  0.6571 -0.1991  0.5372
17003TIP3    H172424   4.961   1.057  15.227 -0.5648 -0.9887  0.3172
17003TIP3    H272425   5.007   0.914  15.248 -1.4176 -1.1222  1.3024
17004TIP3   OH272426   1.890   4.347  16.145 -0.0149  0.3837 -0.3492
17004TIP3    H172427   1.928   4.371  16.229  0.0675 -0.1948 -0.2158
17004TIP3    H272428   1.943   4.274  16.115 -1.1083 -0.5406 -0.0850
17005TIP3   OH272429   1.582   1.021  15.021  0.0435  0.3393 -0.4706
17005TIP3    H172430   1.532   1.088  15.067  1.8654  1.0623  0.5405
17005TIP3    H272431   1.623   0.970  15.091  0.7017 -0.2432 -1.2644
17006TIP3   OH272432   1.217   6.201  15.453  0.5786 -0.1638  0.0389
17006TIP3    H172433   1.260   6.286  15.463  0.2609  0.1546 -1.2108
17006TIP3    H272434   1.143   6.218  15.394  0.2688 -1.2283  0.1053
17007TIP3   OH272435   0.630   3.570   0.119 -0.1875 -0.4964 -0.3520
17007TIP3    H172436   0.706   3.536   0.072  0.0655  0.2499 -0.4802
17007TIP3    H272437   0.578   3.614   0.052  0.8397  1.7559  0.2713
17008TIP3   OH272438   6.068   6.345  11.737  0.2231 -0.5336 -0.0272
17008TIP3    H172439   5.986   6.391  11.754  1.2415  1.6132 -0.6335
17008TIP3    H272440   6.136   6.409  11.759  1.6854 -1.4657 -1.7010
17009TIP3   OH272441   4.928   5.232   3.628  0.6935  0.0171  0.8790
17009TIP3    H172442   4.847   5.281   3.615  0.6574 -0.2789 -0.0761
17009TIP3    H272443   4.996   5.300   3.635  0.6257  0.2228 -0.3109
17010TIP3   OH272444   0.138   3.142   0.768 -0.2242  0.6094  0.3213
17010TIP3    H172445   0.188   3.176   0.842 -0.7683  0.1111  0.9315
17010TIP3    H272446   0.047   3.149   0.796 -0.3525 -1.1814  0.4102
17011TIP3   OH272447   3.009   6.572  12.881 -0.5854 -0.0687  0.3490
17011TIP3    H172448   2.999   6.554  12.787  0.0800  3.0431 -0.3821
17011TIP3    H272449   3.097   6.540  12.902 -0.1086  0.6826 -0.4829
17012TIP3   OH272450   5.616   3.185  11.327  0.3385  0.0086 -0.1286
17012TIP3    H172451   5.536   3.138  11.304  0.9612 -1.7298  1.1071
17012TIP3    H272452   5.686   3.132  11.289  0.9400  1.2901 -0.8346
17013TIP3   OH272453   4.212   3.604  15.971 -0.1693 -0.3755 -0.1066
17013TIP3    H172454   4.164   3.534  15.927  0.4038 -2.0670  1.8880
17013TIP3    H272455   4.221   3.574  16.062 -0.5539  2.6316  0.9715
17014TIP3   OH272456   0.141   1.405   4.817 -0.4354  0.2615 -0.0723
17014TIP3    H172457   0.076   1.432   4.882  0.1537  1.0871  0.1878
17014TIP3    H272458   0.184   1.487   4.792 -2.7629  0.4327 -3.8089
17015TIP3   OH272459   6.484   0.444  13.823 -0.2425 -0.4949 -0.8356
17015TIP3    H172460   6.431   0.481  13.753  0.0336  0.8782 -0.3425
17015TIP3    H272461   6.553   0.395  13.778 -0.2981  0.0460 -1.5149
17016TIP3   OH272462   0.095   5.775   3.345  0.3018 -0.1421  0.2869
17016TIP3    H172463   0.034   5.793   3.273  2.7087  0.7251 -1.5771
17016TIP3    H272464   0.129   5.861   3.370  1.2674 -0.6844  0.8645
17017TIP3   OH272465   4.993   4.404  16.607  0.3668 -0.2313 -0.1552
17017TIP3    H172466   4.944   4.465  16.553 -0.6681 -0.4214  0.5493
17017TIP3    H272467   5.082   4.406  16.571 -0.1763  0.0317 -1.5164
17018TIP3   OH272468   6.344   5.250   2.902 -0.5273  0.1396  0.7653
17018TIP3    H172469   6.274   5.243   2.838 -0.6021 -0.0338  0.8666
17018TIP3    H272470   6.346   5.165   2.945  0.2482 -0.1163  0.2432
17019TIP3   OH272471   5.367   5.138   0.197 -0.4687  0.4802  0.0640
17019TIP3    H172472   5.360   5.059   0.251  0.9136  0.0547 -0.3733
17019TIP3    H272473   5.303   5.125   0.127  0.6163 -0.8257 -0.7098
17020TIP3   OH272474   2.880   1.042   6.525  0.7191  0.6797  0.6395
17020TIP3    H172475   2.859   1.135   6.534  1.9324  0.7850  2.6273
17020TIP3    H272476   2.815   0.998   6.579  0.7241  0.4235  0.4384
17021TIP3   OH272477   5.097   4.995   0.542 -1.1242  0.5918  0.6332
17021TIP3    H172478   5.046   4.970   0.465  0.0206  2.2698 -0.6936
17021TIP3    H272479   5.056   5.075   0.574 -0.9684  0.4677  1.1524
17022TIP3   OH272480   6.557   3.440   4.775 -0.0291  0.2397 -0.5819
17022TIP3    H172481   6.588   3.523   4.738  0.0030  0.5545  0.1426
17022TIP3    H272482   6.465   3.455   4.795  0.0708  0.2278 -0.0987
17023TIP3   OH272483   3.073   2.891  13.688  0.0985  0.2442  0.0795
17023TIP3    H172484   3.101   2.830  13.756 -2.1981 -0.4687  0.4401
17023TIP3    H272485   3.070   2.837  13.608 -1.1911  0.0504  0.2483
17024TIP3   OH272486   5.723   0.235   6.271 -0.2567 -0.1795  0.0849
17024TIP3    H172487   5.657   0.268   6.210 -1.1467 -1.4208  0.3615
17024TIP3    H272488   5.764   0.314   6.307 -2.4965  0.6470  0.9108
17025TIP3   OH272489   1.346   1.100   6.310  0.0761  0.2436 -0.2745
17025TIP3    H172490   1.322   1.161   6.380  1.3029  2.0472 -1.3899
17025TIP3    H272491   1.441   1.093   6.316 -0.1195 -2.4335  0.5076
17026TIP3   OH272492   0.113   1.278   1.584  0.0674 -0.1059  0.3301
17026TIP3    H172493   0.062   1.358   1.569  2.6268  1.1865 -1.8007
17026TIP3    H272494   0.181   1.304   1.646  0.8771 -0.6321 -0.3278
17027TIP3   OH272495   1.530   2.448  13.119  0.1949  0.7474  0.0975
17027TIP3    H172496   1.480   2.520  13.081 -0.2628 -0.4252 -1.5846
17027TIP3    H272497   1.465   2.382  13.142  0.6291  0.7567  1.3753
17028TIP3   OH272498   1.529   4.486   4.505 -0.4131 -0.1634 -0.1445
17028TIP3    H172499   1.603   4.425   4.498  0.6705  0.8167  2.2301
17028TIP3    H272500   1.522   4.505   4.599 -2.9331  0.6989 -0.4640
17029TIP3   OH272501   1.474   4.558  14.556 -0.2734 -0.2293 -0.3667
17029TIP3    H172502   1.515   4.501  14.491  1.1413 -0.9617  1.1502
17029TIP3    H272503   1.540   4.625  14.573 -0.3865 -0.4132  0.7967
17030TIP3   OH272504   1.216   3.793   1.351 -0.1805 -0.1331 -0.8712
17030TIP3    H172505   1.176   3.719   1.305  0.9910 -1.6685  0.5393
17030TIP3    H272506   1.146   3.829   1.405 -0.1879 -1.6329  0.1473
17031TIP3   OH272507   0.859   0.023   3.089  0.6923  0.2237  0.1309
17031TIP3    H172508   0.920   0.095   3.108  0.9028 -0.1691  0.9808
17031TIP3    H272509   0.781   0.067   3.055  1.3379  0.7516 -0.6789
17032TIP3   OH272510   4.903   3.632  14.757  0.5289 -0.2286  0.1306
17032TIP3    H172511   4.953   3.634  14.675  0.8314 -1.3587  0.2830
17032TIP3    H272512   4.936   3.706  14.807  0.3881  0.4344 -0.7442
17033TIP3   OH272513   4.568   3.619   3.564 -0.4369  0.3307 -0.4202
17033TIP3    H172514   4.549   3.628   3.657 -0.9429  0.4766 -0.5378
17033TIP3    H272515   4.652   3.573   3.561  0.0919  1.2623  0.1227
17034TIP3   OH272516   0.950   0.065   0.498 -0.4491 -0.0663  0.1825
17034TIP3    H172517   1.006   0.075   0.574 -1.7254 -3.8713  1.7495
17034TIP3    H272518   0.890   0.139   0.503  1.5485  1.5448  0.9848
17035TIP3   OH272519   5.025   4.960  11.403 -0.2659 -0.7415 -0.0776
17035TIP3    H172520   5.003   4.994  11.490 -1.1150 -2.8742  0.5570
17035TIP3    H272521   5.056   5.037  11.355  0.6924  0.3962  2.2539
17036TIP3   OH272522   5.719   2.499   5.379 -0.4699  0.1317  0.1981
17036TIP3    H172523   5.625   2.484   5.390 -0.5422  0.9664  0.7608
17036TIP3    H272524   5.733   2.496   5.285 -0.8538 -1.2126  0.1726
17037TIP3   OH272525   2.757   6.407  16.962 -0.1568 -0.1685  0.3296
17037TIP3    H172526   2.776   6.316  16.936  1.4122 -0.1572  1.3955
17037TIP3    H272527   2.760   6.456  16.880 -0.0506 -0.9122 -0.1220
17038TIP3   OH272528   2.710   0.438   1.362  0.1256 -0.0428  0.2640
17038TIP3    H172529   2.679   0.352   1.333  0.1429 -0.2811  0.9499
17038TIP3    H272530   2.641   0.499   1.335 -0.6682 -0.4925  1.2525
17039TIP3   OH272531   2.902   4.230   2.045  0.4549 -0.2548  0.0837
17039TIP3    H172532   2.902   4.296   1.975  1.6855  0.0201  0.3289
17039TIP3    H272533   2.857   4.155   2.006 -2.2490  1.1897  0.2805
17040TIP3   OH272534   4.129   2.756  11.954 -0.3626 -0.1679  0.3341
17040TIP3    H172535   4.115   2.805  12.035 -0.9633  0.5802 -0.2210
17040TIP3    H272536   4.152   2.822  11.889 -0.1360 -0.7410 -0.1691
17041TIP3   OH272537   0.854   0.325   4.828  0.3502  0.3259 -0.2150
17041TIP3    H172538   0.841   0.355   4.739  1.6136 -0.3425 -0.6409
17041TIP3    H272539   0.928   0.376   4.861 -0.0602  0.5184  0.4269
17042TIP3   OH272540   0.227   3.867   4.363 -0.2382  0.0918 -0.4378
17042TIP3    H172541   0.275   3.924   4.304  0.4534 -0.5988 -0.5411
17042TIP3    H272542   0.198   3.793   4.308  1.6204 -1.2692  0.3577
17043TIP3   OH272543   1.429   2.560  12.473 -0.3653  0.5638 -0.5609
17043TIP3    H172544   1.343   2.586  12.441 -0.2175  0.5909 -0.9435
17043TIP3    H272545   1.490   2.616  12.424 -0.2099  1.6278  0.8045
17044TIP3   OH272546   3.877   4.929  13.050  0.4930  0.3069 -0.6110
17044TIP3    H172547   3.965   4.900  13.026  0.3109  0.2937 -1.2725
17044TIP3    H272548   3.861   4.888  13.135  2.3011  2.7469  0.9837
17045TIP3   OH272549   0.999   5.265  16.720 -0.4115 -0.1939  0.2954
17045TIP3    H172550   0.997   5.341  16.662  0.7933  0.2901  0.8695
17045TIP3    H272551   1.062   5.206  16.680  0.9121  0.4176  1.4122
17046TIP3   OH272552   0.123   6.112  14.727 -0.0827 -0.7205 -0.3340
17046TIP3    H172553   0.068   6.182  14.690  1.4986 -0.7618 -2.8803
17046TIP3    H272554   0.061   6.052  14.768 -1.5861  1.4531  0.6903
17047TIP3   OH272555   4.441   0.615  12.266  0.6285 -0.1086  0.3540
17047TIP3    H172556   4.349   0.595  12.284  0.8595 -1.3124  0.2804
17047TIP3    H272557   4.442   0.708  12.243 -0.4611  0.0992  1.1047
17048TIP3   OH272558   5.413   2.186  12.897  0.8254 -0.3370  0.3187
17048TIP3    H172559   5.394   2.160  12.807 -0.3510 -1.5817  0.9260
17048TIP3    H272560   5.418   2.282  12.893 -0.3213 -0.3117 -0.8620
17049TIP3   OH272561   2.960   4.234  13.057  0.0105  0.6839 -0.1660
17049TIP3    H172562   2.930   4.319  13.026 -1.5068  0.3894  0.4519
17049TIP3    H272563   2.880   4.187  13.080  0.9644  0.0272  1.9725
17050TIP3   OH272564   1.500   6.332  16.217  0.0277 -0.2120 -0.2113
17050TIP3    H172565   1.546   6.269  16.161  0.9327  0.6753 -0.4752
17050TIP3    H272566   1.548   6.328  16.300  0.5171  0.6541 -0.4568
17051TIP3   OH272567   5.522   4.730   0.139 -0.0229  0.2775 -0.4353
17051TIP3    H172568   5.524   4.822   0.165 -0.6599  0.2908 -0.4302
17051TIP3    H272569   5.614   4.703   0.139 -0.0891 -0.1826  3.3879
17052TIP3   OH272570   6.778   1.403  11.492  1.0456  0.6259  0.5324
17052TIP3    H172571   6.741   1.474  11.545 -1.2955  0.9005 -1.4224
17052TIP3    H272572   6.705   1.370  11.441  2.6943 -1.4344 -0.5705
17053TIP3   OH272573   1.818   3.649   3.434  0.2972  0.0379 -0.2073
17053TIP3    H172574   1.852   3.720   3.380 -0.4443  0.2418 -0.4184
17053TIP3    H272575   1.839   3.674   3.524  1.6193 -0.3460 -0.3925
17054TIP3   OH272576   3.660   4.440  12.618  0.3055 -0.7968 -0.4369
17054TIP3    H172577   3.650   4.530  12.649 -1.7477 -0.7458 -1.1728
17054TIP3    H272578   3.706   4.449  12.534 -1.2928 -0.2911 -1.2787
17055TIP3   OH272579   6.633   5.187  11.458  0.4137 -0.5736  0.3884
17055TIP3    H172580   6.597   5.255  11.402  0.6863 -1.8163 -1.3718
17055TIP3    H272581   6.566   5.172  11.525 -1.0898 -0.8382 -1.1319
17056TIP3   OH272582   6.735   2.545  14.249 -0.1691 -0.3554  0.9105
17056TIP3    H172583   6.760   2.587  14.331 -0.2588 -0.8978  1.2194
17056TIP3    H272584   6.697   2.615  14.197 -0.4849 -0.0873  1.4954
17057TIP3   OH272585   4.769   3.777  13.463  0.2947  0.1875  0.8127
17057TIP3    H172586   4.812   3.833  13.399  0.4914  0.9808  1.6178
17057TIP3    H272587   4.685   3.820  13.479  0.6165  0.4858  1.7373
17058TIP3   OH272588   4.294   5.310  11.001  0.0025  0.1561 -0.3701
17058TIP3    H172589   4.297   5.305  10.905 -0.1885 -3.0517 -0.2354
17058TIP3    H272590   4.202   5.328  11.021 -0.1646 -0.3077 -0.7297
17059TIP3   OH272591   5.374   5.308  15.922  0.8558 -0.5639 -0.1676
17059TIP3    H172592   5.289   5.351  15.935  0.9169 -0.0822 -1.2731
17059TIP3    H272593   5.354   5.215  15.914  0.3609 -0.3865 -1.0308
17060TIP3   OH272594   4.563   5.874  12.930 -0.1978 -0.6135 -0.4050
17060TIP3    H172595   4.505   5.889  13.005 -0.0303 -0.0511 -0.3831
17060TIP3    H272596   4.618   5.953  12.926 -2.0336  0.6196 -2.7816
17061TIP3   OH272597   0.259   4.851   5.529  0.2835 -0.7769  0.5153
17061TIP3    H172598   0.230   4.882   5.614  0.8156 -0.4032  0.5639
17061TIP3    H272599   0.323   4.782   5.549  1.0513 -0.0895  0.4224
17062TIP3   OH272600   1.681   1.478   5.568 -0.8743  0.3377 -0.0874
17062TIP3    H172601   1.667   1.573   5.576  0.5692  0.6920 -1.6952
17062TIP3    H272602   1.775   1.466   5.581 -1.2138 -1.0340  1.3129
17063TIP3   OH272603   3.932   3.262   3.636 -0.2747  0.6361  0.1860
17063TIP3    H172604   3.866   3.271   3.704  1.7605  0.8639  2.1876
17063TIP3    H272605   3.923   3.172   3.605  0.5636 -0.3497  2.6850
17064TIP3   OH272606   2.855   4.523   1.443  0.1326  0.2227  0.0267
17064TIP3    H172607   2.860   4.594   1.508  0.9104 -0.1470  0.3763
17064TIP3    H272608   2.763   4.496   1.444 -0.2766  1.5728 -0.4838
17065TIP3   OH272609   3.793   3.785   0.898  0.2456 -0.1047  0.5211
17065TIP3    H172610   3.840   3.822   0.822  1.1849 -1.3232  0.5011
17065TIP3    H272611   3.848   3.714   0.928 -1.0820 -0.8690  1.1818
17066TIP3   OH272612   6.633   6.256  14.113 -0.2463 -1.0156  0.0090
17066TIP3    H172613   6.567   6.231  14.178  0.1622  0.4844  1.0203
17066TIP3    H272614   6.698   6.306  14.163 -0.0214  0.3087 -1.6040
17067TIP3   OH272615   1.649   0.732   3.830 -0.4805  0.5549 -0.5006
17067TIP3    H172616   1.565   0.774   3.853 -0.2969  0.3345  0.5808
17067TIP3    H272617   1.678   0.780   3.753 -1.8779  0.2782 -1.2181
17068TIP3   OH272618   5.199   5.518   5.678 -0.5486 -0.0707  0.2639
17068TIP3    H172619   5.119   5.471   5.653 -1.7885  0.8636  2.3088
17068TIP3    H272620   5.228   5.474   5.758 -0.4035  1.1540  0.8893
17069TIP3   OH272621   2.872   0.083  12.260  0.2104  0.2477  0.0599
17069TIP3    H172622   2.817   0.140  12.208 -1.3666 -0.6131  0.7583
17069TIP3    H272623   2.812   0.039  12.320  1.8817  0.7700  2.2027
17070TIP3   OH272624   0.018   6.732  11.033 -0.0694  0.1282 -0.2994
17070TIP3    H172625   0.059   6.651  11.065 -0.7477  0.3671  1.2014
17070TIP3    H272626  -0.067   6.734  11.076 -0.5447  1.0331 -1.2764
17071TIP3   OH272627   3.180   5.268   1.834  0.4919  0.0059 -0.2922
17071TIP3    H172628   3.098   5.317   1.829  0.5544  0.0929 -0.4469
17071TIP3    H272629   3.174   5.222   1.918  0.7073  0.7634  0.1412
17072TIP3   OH272630   4.094   4.171   4.692 -0.1643 -0.2955 -0.4232
17072TIP3    H172631   4.165   4.116   4.727  0.0801 -0.4342 -1.1382
17072TIP3    H272632   4.075   4.134   4.606 -1.1986 -0.3351 -0.1862
17073TIP3   OH272633   0.835   4.618   4.952 -0.5395 -0.0954 -0.5681
17073TIP3    H172634   0.857   4.579   5.036 -1.3609  0.1376 -0.2395
17073TIP3    H272635   0.761   4.567   4.920 -0.7357  0.3162 -0.7812
17074TIP3   OH272636   4.478   4.917   1.742 -0.3522 -0.1755  0.2602
17074TIP3    H172637   4.550   4.882   1.795  0.0279 -0.9154 -0.7242
17074TIP3    H272638   4.522   4.968   1.674 -0.8193  0.5201  0.4884
17075TIP3   OH272639   4.350   3.943  11.793  0.2478  0.2812 -0.0375
17075TIP3    H172640   4.398   3.864  11.819 -0.0497 -0.5003 -1.8202
17075TIP3    H272641   4.268   3.937  11.842  0.0988 -0.6788 -0.3886
17076TIP3   OH272642   3.247   0.509   5.188  0.4935  0.2955 -0.2471
17076TIP3    H172643   3.174   0.541   5.136  0.0838  0.8054  0.6270
17076TIP3    H272644   3.310   0.581   5.188 -0.5742  1.2850  2.0058
17077TIP3   OH272645   6.246   1.765  11.442 -0.2966 -0.6610 -0.1269
17077TIP3    H172646   6.171   1.709  11.463 -0.8098 -0.0594 -0.3738
17077TIP3    H272647   6.258   1.819  11.520 -1.1640  0.4129 -0.7382
17078TIP3   OH272648   5.394   4.800   4.277 -0.0981 -0.1421 -0.0681
17078TIP3    H172649   5.402   4.819   4.184 -0.8815 -0.2543 -0.1616
17078TIP3    H272650   5.402   4.705   4.283  0.4198 -0.0967  0.0351
17079TIP3   OH272651   6.026   2.070  12.845  0.2319 -0.1958  0.0199
17079TIP3    H172652   5.930   2.074  12.841  0.1747 -0.8611  0.7285
17079TIP3    H272653   6.053   2.059  12.753 -0.3564  0.1347 -0.1966
17080TIP3   OH272654   5.180   4.538   6.003  0.3346 -0.5395  0.1953
17080TIP3    H172655   5.191   4.572   6.092 -0.6978  0.0337  0.1134
17080TIP3    H272656   5.141   4.610   5.954 -0.0499 -1.1876 -0.4715
17081TIP3   OH272657   4.618   3.924   0.592  0.2583  0.1114  0.3466
17081TIP3    H172658   4.545   3.862   0.591 -1.3030  1.9213 -3.4190
17081TIP3    H272659   4.696   3.868   0.582 -0.8813 -1.4955  0.1917
17082TIP3   OH272660   6.680   4.602   4.970  0.7581 -0.7183  0.1459
17082TIP3    H172661   6.591   4.579   4.999  0.9924 -0.5391  1.0249
17082TIP3    H272662   6.688   4.561   4.884 -0.2102 -0.6589  0.0174
17083TIP3   OH272663   0.083   6.015  16.612  0.4708  0.0345 -0.4387
17083TIP3    H172664   0.160   6.054  16.572  0.4008  0.3333 -0.2823
17083TIP3    H272665   0.071   5.932  16.566  1.1966 -0.2626 -0.1070
17084TIP3   OH272666   1.006   4.249  15.733 -0.3592 -0.0474 -0.0626
17084TIP3    H172667   1.096   4.219  15.741 -0.3430 -0.3062 -1.1485
17084TIP3    H272668   0.972   4.203  15.656 -1.1464  0.6953 -0.1693
17085TIP3   OH272669   6.590   3.667  11.227 -0.4295  0.4131  0.1678
17085TIP3    H172670   6.528   3.670  11.154 -0.4726 -2.5850  0.0524
17085TIP3    H272671   6.670   3.629  11.190  0.1863  0.6435  1.2402
17086TIP3   OH272672   0.153   5.196  11.247  0.3604 -0.5355 -0.5766
17086TIP3    H172673   0.091   5.255  11.289  0.5039 -0.2347 -0.7830
17086TIP3    H272674   0.173   5.238  11.163  1.0841 -0.4661 -0.3744
17087TIP3   OH272675   0.807   2.903  16.234  0.0288  0.3982  0.2254
17087TIP3    H172676   0.880   2.841  16.229  0.0851  0.6459 -2.9031
17087TIP3    H272677   0.739   2.856  16.283  1.2589 -0.9009  0.7154
17088TIP3   OH272678   2.972   1.017   0.739  0.1684 -0.1085 -0.3653
17088TIP3    H172679   2.979   1.075   0.664 -1.3542  0.0038 -0.4509
17088TIP3    H272680   3.021   0.939   0.715  1.3692  0.7205 -0.6608
17089TIP3   OH272681   4.792   0.592   4.951 -0.2046  0.3634 -0.1175
17089TIP3    H172682   4.875   0.561   4.988  0.0220  0.9582 -0.1232
17089TIP3    H272683   4.737   0.514   4.946 -0.0685  0.1805  1.0366
17090TIP3   OH272684   6.282   1.849  14.024 -0.2911 -0.4442  0.1642
17090TIP3    H172685   6.221   1.902  13.972 -0.0579  1.5317  1.8364
17090TIP3    H272686   6.362   1.848  13.973 -0.7441 -0.3656 -0.5575
17091TIP3   OH272687   4.541   0.757   1.975 -0.7159 -0.6614 -0.2608
17091TIP3    H172688   4.633   0.758   2.001 -1.0504 -2.7155  1.1037
17091TIP3    H272689   4.497   0.813   2.040 -0.0408  3.0227 -2.7898
17092TIP3   OH272690   3.138   2.223  14.468  0.0558 -0.2031 -0.1701
17092TIP3    H172691   3.100   2.147  14.511 -0.2606 -0.1896 -0.4237
17092TIP3    H272692   3.075   2.293  14.483  0.5270  0.1085  0.3919
17093TIP3   OH272693   0.196   0.124   0.144 -0.1068  0.3131 -0.1826
17093TIP3    H172694   0.268   0.068   0.113 -1.1934 -0.7686 -0.7796
17093TIP3    H272695   0.234   0.173   0.217  1.1563 -0.4684 -0.2920
17094TIP3   OH272696   3.594   0.710   2.465  0.2157 -0.0888 -0.3931
17094TIP3    H172697   3.519   0.702   2.523 -0.2883  0.2682 -0.9846
17094TIP3    H272698   3.647   0.780   2.503  0.4802 -0.6552  0.2783
17095TIP3   OH272699   2.860   0.678   0.824 -0.4158  0.3818  0.5705
17095TIP3    H172700   2.784   0.661   0.768  0.2347  0.7227 -0.4167
17095TIP3    H272701   2.853   0.771   0.846  0.7794  0.9163 -1.1527
17096TIP3   OH272702   1.056   0.983  15.800  0.0668 -0.0425  0.0357
17096TIP3    H172703   1.105   1.008  15.722 -0.7472 -0.2120 -0.5262
17096TIP3    H272704   0.995   0.916  15.771 -1.1395  0.8189  0.5451
17097TIP3   OH272705   5.993   0.780  16.337 -0.4819  0.2878  0.4628
17097TIP3    H172706   5.902   0.755  16.321 -0.0306 -0.4807 -0.9481
17097TIP3    H272707   6.043   0.698  16.326  0.3738  0.6669  1.3716
17098TIP3   OH272708   5.786   1.102  16.840  0.1465  0.1069 -0.0955
17098TIP3    H172709   5.790   1.195  16.864  2.0067  0.3059 -1.0226
17098TIP3    H272710   5.735   1.101  16.759  0.6370  0.4102 -0.4159
17099TIP3   OH272711   3.314   1.156   0.426  0.4099  1.0201 -0.3372
17099TIP3    H172712   3.302   1.140   0.333  1.0505  2.8301 -0.7466
17099TIP3    H272713   3.362   1.080   0.457  0.5472  0.5993 -1.5611
17100TIP3   OH272714   4.750   0.353  16.141 -0.5548  0.3406 -0.0210
17100TIP3    H172715   4.734   0.400  16.223  0.6446 -1.5569  1.3816
17100TIP3    H272716   4.708   0.267  16.155 -1.2917  0.3973 -1.8430
17101TIP3   OH272717   2.672   1.801   5.796 -0.0556  0.1460  0.0507
17101TIP3    H172718   2.755   1.815   5.840 -0.3530  0.2865  0.5727
17101TIP3    H272719   2.607   1.837   5.856 -0.5662 -0.7079  0.0162
17102TIP3   OH272720   2.955   4.772   0.145  0.1629  0.4310  0.1570
17102TIP3    H172721   2.890   4.748   0.078 -0.3670  0.9402  0.4822
17102TIP3    H272722   2.988   4.857   0.116  4.0006 -1.7859 -2.4575
17103TIP3   OH272723   5.208   5.668   4.929 -0.4781  0.0358 -0.4456
17103TIP3    H172724   5.213   5.723   4.851 -0.5711  0.4247 -0.1740
17103TIP3    H272725   5.257   5.715   4.995 -0.6806 -0.1393 -0.1699
17104TIP3   OH272726   5.899   2.800   5.941  0.3516  0.3053  0.2885
17104TIP3    H172727   5.872   2.889   5.920  0.5868  0.0693 -1.0599
17104TIP3    H272728   5.960   2.810   6.014 -0.9995  1.0835  1.3347
17105TIP3   OH272729   5.115   6.098   1.568  0.2481  0.1672  0.3428
17105TIP3    H172730   5.041   6.102   1.507  1.3198  1.9732 -0.9233
17105TIP3    H272731   5.115   6.009   1.601 -1.5956 -0.2711 -0.7822
17106TIP3   OH272732   1.243   1.875   1.762 -0.3090 -0.3988  0.0435
17106TIP3    H172733   1.285   1.961   1.768  0.4781 -0.7965  0.2704
17106TIP3    H272734   1.316   1.814   1.753 -0.8994 -0.9799 -0.8154
17107TIP3   OH272735   1.639   1.073   3.361  0.3219  0.3642  0.0748
17107TIP3    H172736   1.563   1.023   3.389 -0.2280  1.4216  0.4981
17107TIP3    H272737   1.690   1.087   3.441 -0.7437  2.5215  0.4233
17108TIP3   OH272738   6.773   4.961  14.687  0.2121  0.4378  0.2089
17108TIP3    H172739   6.682   4.965  14.715 -0.4710  0.2916 -1.9067
17108TIP3    H272740   6.791   4.868  14.675  0.8715  0.4135  1.3111
17109TIP3   OH272741   3.886   2.907  14.534  0.1758 -0.0853  0.3201
17109TIP3    H172742   3.959   2.865  14.580 -1.3044 -1.4271  1.5200
17109TIP3    H272743   3.842   2.959  14.602  1.0916  2.2453 -0.8222
17110TIP3   OH272744   3.556   0.564   1.809  0.4232 -0.0284  0.2444
17110TIP3    H172745   3.570   0.611   1.891 -0.1915  1.3211 -0.4167
17110TIP3    H272746   3.469   0.591   1.780  0.5149 -0.7299 -0.6991
17111TIP3   OH272747   0.391   2.718   2.452 -0.3649  0.3204  0.1237
17111TIP3    H172748   0.450   2.754   2.518 -0.6296  0.1812  0.4424
17111TIP3    H272749   0.436   2.731   2.369 -0.5154  1.4878  0.2222
17112TIP3   OH272750   0.498   5.587  11.616 -0.1254 -0.6302 -0.8737
17112TIP3    H172751   0.541   5.509  11.581  0.3695 -1.2147  0.9928
17112TIP3    H272752   0.431   5.553  11.675  0.1788  0.3541  0.0518
17113TIP3   OH272753   6.263   4.570  13.775 -0.3185 -0.0417  0.4116
17113TIP3    H172754   6.260   4.553  13.681 -0.8850  1.0604  0.2293
17113TIP3    H272755   6.215   4.497  13.815  0.9187 -1.1387 -0.0583
17114TIP3   OH272756   5.293   2.188  16.241  0.2617 -0.0710 -0.2594
17114TIP3    H172757   5.264   2.257  16.300  2.2209  1.1047 -0.6301
17114TIP3    H272758   5.258   2.213  16.155 -0.4385 -0.4527 -0.1003
17115TIP3   OH272759   3.592   3.933   5.756 -0.1750 -0.5148 -0.3521
17115TIP3    H172760   3.516   3.967   5.709 -0.0270  1.5074  0.7645
17115TIP3    H272761   3.619   4.006   5.812  1.0614 -2.0513  1.1158
17116TIP3   OH272762   1.894   4.408  11.977  0.5191  0.3686 -0.4178
17116TIP3    H172763   1.919   4.474  11.913  0.4617  0.3067 -0.5049
17116TIP3    H272764   1.932   4.438  12.059  0.5434  0.4792 -0.4693
17117TIP3   OH272765   3.325   6.065  12.472 -0.1623 -0.2455 -0.0813
17117TIP3    H172766   3.323   6.033  12.382 -0.2663  0.8183 -0.4568
17117TIP3    H272767   3.253   6.128  12.477  0.9455  1.0142  0.2509
17118TIP3   OH272768   0.720   2.607   2.768  0.1573 -0.6632  0.1441
17118TIP3    H172769   0.643   2.550   2.776 -0.4242  0.1191  0.1326
17118TIP3    H272770   0.781   2.574   2.833 -0.6347 -0.5711  0.9426
17119TIP3   OH272771   1.162   5.886  17.189 -0.2987  0.2260 -0.1672
17119TIP3    H172772   1.240   5.834  17.172  0.2166  1.2580 -1.0476
17119TIP3    H272773   1.091   5.822  17.198  0.5332 -0.6808  0.0115
17120TIP3   OH272774   4.485   5.059  15.917  0.6119  0.2186  0.1607
17120TIP3    H172775   4.464   4.980  15.868  0.2603  2.0147 -2.6993
17120TIP3    H272776   4.575   5.046  15.946  0.0833 -1.8054  0.9884
17121TIP3   OH272777   1.679   6.186  16.820  0.6915  0.1055 -0.4202
17121TIP3    H172778   1.685   6.281  16.827 -0.5611  0.1009  0.9628
17121TIP3    H272779   1.590   6.166  16.848  0.8438 -1.4519 -1.0257
17122TIP3   OH272780   4.952   1.122   0.775  0.2178  0.7833 -0.1574
17122TIP3    H172781   4.985   1.120   0.865  0.4807  0.4333 -0.2601
17122TIP3    H272782   4.860   1.147   0.784  0.6939  2.5673  0.0817
17123TIP3   OH272783   1.990   1.481  11.710 -0.2705  0.1643 -0.0005
17123TIP3    H172784   2.023   1.564  11.676 -2.0783  0.3354 -1.3820
17123TIP3    H272785   1.918   1.505  11.768  0.0664 -0.3580  0.6372
17124TIP3   OH272786   1.614   0.409  17.027 -0.3286 -0.2382  1.2944
17124TIP3    H172787   1.592   0.495  16.993  1.4081 -0.5045 -0.6778
17124TIP3    H272788   1.554   0.349  16.982  0.6296 -0.3779  0.1780
17125TIP3   OH272789   1.833   2.832  16.635  0.3826 -0.2505  0.0826
17125TIP3    H172790   1.860   2.804  16.548 -0.1672 -1.1915  0.2152
17125TIP3    H272791   1.860   2.924  16.640  0.0663 -0.0780 -1.2250
17126TIP3   OH272792   5.498   2.710  11.491  0.3910 -0.0703 -0.0824
17126TIP3    H172793   5.495   2.617  11.512 -0.5364 -0.4716 -1.9023
17126TIP3    H272794   5.579   2.721  11.440  0.7763  0.2292  0.5847
17127TIP3   OH272795   0.312   0.751   2.118  0.0823  0.0590 -0.1419
17127TIP3    H172796   0.380   0.798   2.070  0.8582  0.2540  1.1150
17127TIP3    H272797   0.300   0.801   2.198 -1.4517 -0.0671 -0.2856
17128TIP3   OH272798   6.308   4.918  13.128 -0.6819  0.3169 -0.5465
17128TIP3    H172799   6.273   4.958  13.208 -0.9871 -1.3164  0.1569
17128TIP3    H272800   6.380   4.976  13.103 -2.1396  2.2350 -0.5028
17129TIP3   OH272801   0.357   5.307  10.615 -0.0774 -0.0911  0.2566
17129TIP3    H172802   0.291   5.270  10.673  0.7082  0.1756  1.3429
17129TIP3    H272803   0.332   5.399  10.604 -1.2583 -0.5747 -1.3377
17130TIP3   OH272804   3.976   2.358   1.251 -0.6862 -0.4216 -0.9513
17130TIP3    H172805   3.964   2.315   1.166 -0.7682  0.5424 -1.4306
17130TIP3    H272806   4.034   2.432   1.233 -0.0494 -0.6779 -0.0147
17131TIP3   OH272807   3.146   4.398  13.509 -0.2998  0.1970 -0.4417
17131TIP3    H172808   3.077   4.355  13.457 -0.4402  1.0339 -0.9548
17131TIP3    H272809   3.142   4.490  13.482 -0.1178  0.5673  0.7863
17132TIP3   OH272810   1.222   0.603   3.597  0.7490 -0.5653  0.1744
17132TIP3    H172811   1.250   0.521   3.638  0.2013 -1.1534 -0.6203
17132TIP3    H272812   1.241   0.592   3.504 -2.1097 -0.9968 -0.3912
17133TIP3   OH272813   0.299   6.315  12.809  0.0328 -0.2223  0.4046
17133TIP3    H172814   0.288   6.410  12.805  1.2409 -0.1072 -0.1836
17133TIP3    H272815   0.362   6.295  12.740  1.1148 -1.2508  1.6644
17134TIP3   OH272816   3.943   0.116  16.270 -0.4469  0.1007 -0.3445
17134TIP3    H172817   3.982   0.195  16.232  0.5680  0.1291  0.7500
17134TIP3    H272818   3.921   0.140  16.359 -1.7749 -0.3187 -0.5563
17135TIP3   OH272819   2.025   1.965  14.590 -0.7529 -0.6440 -0.2383
17135TIP3    H172820   1.950   2.020  14.613 -0.2154  0.1398 -0.3173
17135TIP3    H272821   2.085   2.025  14.545  0.6741 -0.8296  1.3366
17136TIP3   OH272822   4.620   3.566   4.003 -0.5708 -0.3989 -0.3093
17136TIP3    H172823   4.577   3.559   4.089  1.0726 -2.7521  0.3551
17136TIP3    H272824   4.702   3.612   4.022 -0.9698  0.5953 -0.9364
17137TIP3   OH272825   3.932   5.956  15.286 -0.2085 -0.4397 -0.3603
17137TIP3    H172826   3.979   6.034  15.257  0.6339 -0.8033  0.0227
17137TIP3    H272827   3.979   5.926  15.363 -0.6474 -1.2149 -0.3824
17138TIP3   OH272828   3.206   0.773   0.968  0.4309 -0.1455 -0.2116
17138TIP3    H172829   3.171   0.771   0.879  0.4763  0.2491 -0.2360
17138TIP3    H272830   3.134   0.741   1.023  0.2562  0.0333 -0.3382
17139TIP3   OH272831   0.600   5.065  14.236  0.0642  0.2972 -0.3354
17139TIP3    H172832   0.505   5.070  14.224 -0.3347 -1.4992  1.6282
17139TIP3    H272833   0.637   5.111  14.161 -2.3629  1.3036 -0.9582
17140TIP3   OH272834   1.587   5.670  14.798 -0.0341  0.0326 -0.0849
17140TIP3    H172835   1.664   5.689  14.851 -0.5613 -0.0791  0.7450
17140TIP3    H272836   1.612   5.595  14.744  0.4069 -0.0699  0.2631
17141TIP3   OH272837   6.609   1.760   2.729  0.1227 -0.1031  0.2020
17141TIP3    H172838   6.651   1.845   2.725  1.1193 -0.6588 -1.7558
17141TIP3    H272839   6.540   1.770   2.795  0.5350  2.0547  0.3337
17142TIP3   OH272840   6.019   6.281   5.612  0.4642  0.0152 -0.7163
17142TIP3    H172841   6.051   6.366   5.582  0.2682  0.0622 -0.7897
17142TIP3    H272842   5.926   6.295   5.630  0.0039 -0.6626 -2.5327
17143TIP3   OH272843   3.032   1.947   5.433  0.3423  0.4415  0.0005
17143TIP3    H172844   3.106   1.915   5.484 -0.2394  0.0287  0.5898
17143TIP3    H272845   3.031   2.041   5.448 -0.7306  0.1459  1.9699
17144TIP3   OH272846   5.576   4.259  16.068  0.2961  0.1240 -0.0596
17144TIP3    H172847   5.510   4.307  16.017 -0.1718 -1.7352 -1.2665
17144TIP3    H272848   5.604   4.321  16.136 -0.5916  1.9354 -1.3043
17145TIP3   OH272849   4.976   3.127   0.274  1.0303 -0.0692  0.0836
17145TIP3    H172850   4.987   3.204   0.219  1.6340 -0.2527 -0.0583
17145TIP3    H272851   5.060   3.118   0.319  0.2931  0.5257  1.6164
17146TIP3   OH272852   2.327   2.773   0.453 -0.7055  0.5958 -0.4283
17146TIP3    H172853   2.352   2.707   0.389 -0.6543 -0.9466  1.1365
17146TIP3    H272854   2.407   2.788   0.504 -1.3788 -0.0522  0.8559
17147TIP3   OH272855   4.231   0.671   1.245 -0.4926  0.1953  0.5453
17147TIP3    H172856   4.252   0.680   1.152  0.4687  1.1377  0.8537
17147TIP3    H272857   4.259   0.582   1.267 -3.6590 -1.2551 -0.8151
17148TIP3   OH272858   0.975   6.122   6.562  0.5902  0.3207 -0.1503
17148TIP3    H172859   0.900   6.180   6.577  0.6809  0.2991  0.3872
17148TIP3    H272860   0.938   6.048   6.515  0.4873  0.8478 -0.9190
17149TIP3   OH272861   5.246   0.399   1.724  0.3431 -0.2485  0.3349
17149TIP3    H172862   5.296   0.426   1.801  0.4432 -0.3305  0.2995
17149TIP3    H272863   5.190   0.327   1.756 -2.1205  1.9440  1.1484
17150TIP3   OH272864   0.997   6.735  11.571  0.6537  0.5917 -0.5091
17150TIP3    H172865   0.903   6.751  11.583  0.5381 -0.1977 -0.3472
17150TIP3    H272866   1.031   6.818  11.538  0.2358  1.5002  1.2768
17151TIP3   OH272867   1.005   0.938   2.817 -0.3699 -0.5727 -0.2789
17151TIP3    H172868   1.006   1.001   2.745  0.1446 -0.2881 -0.0223
17151TIP3    H272869   0.919   0.950   2.857 -0.0627  0.3677  0.1197
17152TIP3   OH272870   0.792   3.804  15.901  0.0038 -0.2391 -0.7331
17152TIP3    H172871   0.883   3.782  15.881 -0.5485 -1.6550 -1.7817
17152TIP3    H272872   0.766   3.865  15.833  0.1508  0.0975 -0.4843
17153TIP3   OH272873   3.734   3.025   4.493  0.6964 -0.4118 -0.2382
17153TIP3    H172874   3.685   2.988   4.567 -0.2902  0.4258 -0.4595
17153TIP3    H272875   3.799   2.958   4.472 -0.9683 -1.9767 -0.5496
17154TIP3   OH272876   1.321   5.118  11.485  0.0716  0.0120  0.1272
17154TIP3    H172877   1.397   5.178  11.482  0.2506 -0.2566 -1.6247
17154TIP3    H272878   1.268   5.144  11.409 -0.2151 -1.5703 -0.2270
17155TIP3   OH272879   1.284   0.183  16.614  0.3400  0.3426 -0.3885
17155TIP3    H172880   1.340   0.144  16.547  0.6625  1.2106 -0.6380
17155TIP3    H272881   1.196   0.180  16.575  0.1637 -1.2326  0.1042
17156TIP3   OH272882   0.343   5.456  13.596  0.2861 -0.2458 -0.3549
17156TIP3    H172883   0.344   5.551  13.605  1.9118 -0.3244  0.5283
17156TIP3    H272884   0.294   5.439  13.515 -2.6336  1.1780  1.0727
17157TIP3   OH272885   2.060   4.679  11.065 -0.3680 -0.1723 -0.6433
17157TIP3    H172886   2.096   4.759  11.026  1.2007 -0.5023  0.0775
17157TIP3    H272887   2.117   4.661  11.140 -1.1162 -1.5908 -0.3929
17158TIP3   OH272888   2.342   5.761  11.845  0.1921  0.0770  0.1359
17158TIP3    H172889   2.414   5.717  11.799  1.5470  1.6082  0.7095
17158TIP3    H272890   2.351   5.853  11.820 -1.8174  0.2415 -0.0579
17159TIP3   OH272891   3.003   1.261   4.581 -0.0663 -0.2186  0.3868
17159TIP3    H172892   2.915   1.231   4.600  0.1953 -1.0692  0.2613
17159TIP3    H272893   3.053   1.243   4.661 -0.5699  2.5290  1.3661
17160TIP3   OH272894   5.331   5.137  14.190 -0.2931 -0.0268 -0.0168
17160TIP3    H172895   5.391   5.063  14.192 -0.3385 -0.0712 -0.3442
17160TIP3    H272896   5.387   5.214  14.184 -0.1406  0.1054  2.4518
17161TIP3   OH272897   6.286   4.533   0.512 -0.2871 -0.2627 -0.3361
17161TIP3    H172898   6.259   4.462   0.571  0.1512 -0.9622 -0.9619
17161TIP3    H272899   6.377   4.513   0.492 -0.1773  0.4630 -0.5524
17162TIP3   OH272900   4.051   5.484  12.323 -0.4992  0.8613 -0.5013
17162TIP3    H172901   4.055   5.449  12.234  0.3962 -2.7853  0.8684
17162TIP3    H272902   3.962   5.466  12.352  0.1407 -1.0125  0.4239
17163TIP3   OH272903   0.347   5.963  15.168 -0.2975 -0.3485  0.8710
17163TIP3    H172904   0.433   5.960  15.127 -1.3277 -2.6970 -1.3025
17163TIP3    H272905   0.340   5.880  15.215 -1.1333  0.0961  1.5376
17164TIP3   OH272906   4.898   1.406   1.297 -0.4033  0.6298  0.2732
17164TIP3    H172907   4.872   1.320   1.330  0.6521  0.3273  0.3444
17164TIP3    H272908   4.851   1.468   1.352  1.0633  0.1243  2.1275
17165TIP3   OH272909   2.231   4.158  15.944  0.2611 -0.5947  0.1442
17165TIP3    H172910   2.265   4.227  15.887 -1.7176  1.0734  0.9057
17165TIP3    H272911   2.148   4.132  15.903  0.3676 -1.6397  0.5630
17166TIP3   OH272912   6.154   5.811   2.794  0.1604  0.3472  0.3540
17166TIP3    H172913   6.247   5.789   2.783  0.3494  1.0771  0.4531
17166TIP3    H272914   6.121   5.823   2.706  0.0174 -0.4584  0.2893
17167TIP3   OH272915   2.449   4.745  12.871  0.2721  0.0246 -0.5935
17167TIP3    H172916   2.519   4.688  12.903 -0.2993 -0.9584 -1.0780
17167TIP3    H272917   2.465   4.752  12.777  0.0994  0.3355 -0.5985
17168TIP3   OH272918   6.036   1.256   0.101 -0.0945 -0.0455  0.1882
17168TIP3    H172919   6.015   1.181   0.155 -1.3032 -0.2519 -0.5623
17168TIP3    H272920   6.107   1.300   0.148  0.6413 -1.6586  0.6143
17169TIP3   OH272921   6.072   5.639   2.269  0.1703 -0.7069 -0.5098
17169TIP3    H172922   6.017   5.663   2.344 -1.3146  0.2109 -1.8646
17169TIP3    H272923   6.120   5.561   2.298  0.2196  0.0987  1.6632
17170TIP3   OH272924   6.273   1.531   2.388 -0.5504  0.6476  0.4533
17170TIP3    H172925   6.341   1.498   2.447 -0.5173 -0.3976 -0.1531
17170TIP3    H272926   6.227   1.597   2.438 -0.4433 -0.1420  1.6058
17171TIP3   OH272927   5.177   6.420  15.851  0.5204  0.6134  0.0808
17171TIP3    H172928   5.085   6.416  15.825  0.4851  0.9043  0.1476
17171TIP3    H272929   5.204   6.329  15.859 -0.2785  0.5092  1.8546
17172TIP3   OH272930   1.871   3.537  15.043  0.4794  0.4974  0.0622
17172TIP3    H172931   1.880   3.580  14.958  0.7672 -0.6595 -0.5048
17172TIP3    H272932   1.962   3.518  15.069  0.3678  0.4760  0.4367
17173TIP3   OH272933   4.949   4.950  16.660  0.2541 -0.2977 -0.1781
17173TIP3    H172934   4.895   4.878  16.694 -1.3741  1.5713  1.2973
17173TIP3    H272935   5.014   4.907  16.606 -0.8806 -2.8799  0.4270
17174TIP3   OH272936   2.607   6.091  12.983 -0.3693  0.2537  0.1856
17174TIP3    H172937   2.649   6.174  13.004 -0.3642  0.4150 -0.4739
17174TIP3    H272938   2.678   6.036  12.950 -1.0512  1.2721 -3.1294
17175TIP3   OH272939   4.772   5.583   2.640 -0.0896 -0.4047 -0.2150
17175TIP3    H172940   4.730   5.540   2.566  1.4875 -0.8482 -0.8787
17175TIP3    H272941   4.824   5.514   2.681  1.3225  0.5044 -0.4344
17176TIP3   OH272942   1.109   1.441  15.234 -0.3568 -0.8556  0.1983
17176TIP3    H172943   1.105   1.537  15.226 -0.7815 -0.8372  0.6562
17176TIP3    H272944   1.113   1.410  15.143 -0.0413 -0.3977  0.0539
17177TIP3   OH272945   4.853   3.128  13.422 -0.2259 -0.3842 -0.5863
17177TIP3    H172946   4.814   3.201  13.374 -2.1715 -0.0340  1.4227
17177TIP3    H272947   4.879   3.166  13.506  0.3416 -1.6177 -0.2016
17178TIP3   OH272948   0.217   5.234  14.559 -0.0010  0.1416  0.3915
17178TIP3    H172949   0.128   5.268  14.559 -0.5631 -1.2767  0.4453
17178TIP3    H272950   0.233   5.206  14.649 -0.2645 -1.4615 -0.0292
17179TIP3   OH272951   1.415   6.540  12.476 -0.1110  0.5455 -0.1242
17179TIP3    H172952   1.470   6.512  12.549  1.5661  3.0615 -0.3554
17179TIP3    H272953   1.364   6.614  12.510 -0.5529  0.6574 -1.0070
17180TIP3   OH272954   6.333   5.979   2.189 -0.0750 -0.0647  0.1964
17180TIP3    H172955   6.359   5.910   2.250  0.8633 -1.2929 -1.5602
17180TIP3    H272956   6.244   5.957   2.165  0.4817 -1.1038 -0.9421
17181TIP3   OH272957   1.538   3.147  12.583 -0.5007  0.3256  0.1950
17181TIP3    H172958   1.578   3.196  12.511  0.8990  0.0994  0.7917
17181TIP3    H272959   1.537   3.208  12.656  1.2721 -0.5116  0.9494
17182TIP3   OH272960   4.280   3.111   0.320  0.1035  0.8145  0.1079
17182TIP3    H172961   4.264   3.045   0.252  0.0124  1.8616 -0.8883
17182TIP3    H272962   4.219   3.087   0.390 -1.3892  1.0443 -1.0891
17183TIP3   OH272963   1.864   5.863   0.241 -0.8294  0.5277 -0.3010
17183TIP3    H172964   1.949   5.867   0.286 -0.7876  0.8279 -0.4046
17183TIP3    H272965   1.820   5.787   0.279 -0.2302 -0.0463 -0.7386
17184TIP3   OH272966   1.883   2.262   6.246  0.0384  1.1246 -0.4112
17184TIP3    H172967   1.817   2.297   6.187 -0.4990  0.2630 -0.3301
17184TIP3    H272968   1.907   2.178   6.209 -0.4084  0.5100  0.6710
17185TIP3   OH272969   2.294   5.162   4.847  0.0578  0.0871 -0.3211
17185TIP3    H172970   2.241   5.241   4.846 -0.0928 -0.0084 -0.0253
17185TIP3    H272971   2.384   5.194   4.836  0.3656  0.6375  3.2276
17186TIP3   OH272972   1.648   1.750   3.837  0.4887  0.3568 -0.2847
17186TIP3    H172973   1.666   1.793   3.921 -2.3110 -3.7694  2.6695
17186TIP3    H272974   1.722   1.690   3.825  0.5298  0.4181 -0.3335
17187TIP3   OH272975   5.654   0.860  16.661  0.3182 -0.6147 -0.3123
17187TIP3    H172976   5.561   0.850  16.683  0.3156 -0.5485 -0.2938
17187TIP3    H272977   5.660   0.947  16.621  0.5681 -0.1327  0.7605
17188TIP3   OH272978   3.255   5.445  11.889 -0.3178  0.9056 -0.4051
17188TIP3    H172979   3.252   5.392  11.809  0.3227 -0.3060  0.3502
17188TIP3    H272980   3.163   5.467  11.906 -0.6844 -0.6538 -0.2980
17189TIP3   OH272981   5.450   0.254   0.471  0.2923 -0.3354  0.7955
17189TIP3    H172982   5.486   0.271   0.557  1.4509 -0.2726  0.3023
17189TIP3    H272983   5.360   0.287   0.475  0.9203  1.3051  1.3978
17190TIP3   OH272984   6.632   3.740  11.877 -0.1367 -0.1303  0.2786
17190TIP3    H172985   6.606   3.662  11.829 -1.8392  0.1512  0.7168
17190TIP3    H272986   6.645   3.710  11.967  1.8048 -0.4070 -0.0699
17191TIP3   OH272987   1.075   3.807   0.915 -0.6040  0.0554 -0.2628
17191TIP3    H172988   1.130   3.876   0.953 -0.5209 -0.7269  1.0809
17191TIP3    H272989   0.988   3.846   0.909 -0.3591  0.5884 -0.3831
17192TIP3   OH272990   1.680   3.954  16.485  0.3307 -0.1915 -0.6453
17192TIP3    H172991   1.682   3.863  16.455  0.3701  0.1480 -1.6952
17192TIP3    H272992   1.611   3.956  16.551  0.3071 -0.9780 -0.6424
17193TIP3   OH272993   1.014   6.347  11.780 -0.0344  0.0680 -0.1130
17193TIP3    H172994   0.997   6.436  11.812 -1.0591 -0.8132  1.8988
17193TIP3    H272995   0.941   6.295  11.813  0.5563 -1.5264 -1.2608
17194TIP3   OH272996   4.622   6.557   0.414  0.2580 -0.0630  0.3327
17194TIP3    H172997   4.544   6.611   0.427  0.6013  0.1446  1.5678
17194TIP3    H272998   4.593   6.468   0.434  0.0603 -0.1428 -0.2948
17195TIP3   OH272999   4.352   0.972   5.952  0.3431 -0.0674 -0.2581
17195TIP3    H173000   4.281   1.036   5.950 -0.0091 -0.4638 -0.7375
17195TIP3    H273001   4.377   0.966   6.044 -0.2118  0.1227 -0.0943
17196TIP3   OH273002   4.571   1.474  12.874 -0.4175  0.3110 -0.3879
17196TIP3    H173003   4.637   1.520  12.823  0.9926 -0.3065  0.8755
17196TIP3    H273004   4.556   1.393  12.826  0.3486  0.0755 -0.2279
17197TIP3   OH273005   0.949   1.076  11.540  0.3669  0.1691  0.1535
17197TIP3    H173006   1.042   1.061  11.554  0.1633 -1.5401 -0.1160
17197TIP3    H273007   0.925   1.015  11.470 -0.5362  2.0538 -1.2359
17198TIP3   OH273008   2.754   0.596   4.025 -0.4972  0.2609  0.3512
17198TIP3    H173009   2.680   0.627   4.077 -1.0966 -3.2494  1.7237
17198TIP3    H273010   2.811   0.551   4.088 -0.1502 -2.1631 -1.6162
17199TIP3   OH273011   2.890   4.613   5.987 -0.0968  0.2654 -0.2073
17199TIP3    H173012   2.848   4.598   6.072 -0.7666  1.9300 -0.2294
17199TIP3    H273013   2.861   4.700   5.961  1.1497  0.2957 -1.5463
17200TIP3   OH273014   6.135   1.783   2.881 -0.0101 -0.3574 -0.6962
17200TIP3    H173015   6.070   1.747   2.821 -0.8038  2.4088 -1.6015
17200TIP3    H273016   6.094   1.775   2.967 -0.8381 -0.1733 -1.0665
17201TIP3   OH273017   4.598   1.724   0.434 -0.5450 -0.0487  0.6284
17201TIP3    H173018   4.647   1.688   0.508 -1.5880  0.5962  1.6549
17201TIP3    H273019   4.552   1.800   0.470 -1.2822  0.1199 -0.6185
17202TIP3   OH273020   6.166   1.338   0.805  0.6691 -0.0666  0.0946
17202TIP3    H173021   6.160   1.417   0.858 -0.7690 -0.1946  0.1429
17202TIP3    H273022   6.214   1.276   0.859 -1.2745 -0.3818  1.5235
17203TIP3   OH273023   3.150   3.036  12.117 -0.0468  0.2525 -0.0442
17203TIP3    H173024   3.171   2.943  12.107  1.0235  0.5036 -0.2353
17203TIP3    H273025   3.055   3.039  12.126 -0.1515 -0.8087 -0.7087
17204TIP3   OH273026   1.930   6.399  13.785 -0.0757  0.1982 -0.2629
17204TIP3    H173027   1.933   6.337  13.712  1.7216  0.6265 -0.5764
17204TIP3    H273028   1.859   6.459  13.762 -0.1950 -0.2779 -1.1629
17205TIP3   OH273029   4.317   0.100  13.677  0.1391  0.0404 -0.3627
17205TIP3    H173030   4.363   0.082  13.595  1.0577 -0.7652  0.3319
17205TIP3    H273031   4.324   0.195  13.688  1.3469 -0.0421 -0.4161
17206TIP3   OH273032   5.497   5.718   5.081 -0.0399  0.0806 -0.2603
17206TIP3    H173033   5.563   5.652   5.058 -1.5548 -1.3070 -0.7416
17206TIP3    H273034   5.541   5.802   5.068  1.9501 -0.8253  0.4134
17207TIP3   OH273035   6.508   4.695  13.831  0.2513 -0.4601  0.5459
17207TIP3    H173036   6.427   4.656  13.798  0.0824  0.1117  0.2760
17207TIP3    H273037   6.578   4.640  13.794 -0.0431 -1.5384  1.5677
17208TIP3   OH273038   6.405   6.488   3.977 -0.4039 -0.2012  0.4348
17208TIP3    H173039   6.472   6.502   3.910 -1.9237 -0.4641 -1.1668
17208TIP3    H273040   6.376   6.576   4.001  0.3588 -0.0953  0.9917
17209TIP3   OH273041   1.288   4.993   2.754 -0.3459  0.2392  0.3738
17209TIP3    H173042   1.348   5.056   2.715 -0.6720 -0.7874 -1.8451
17209TIP3    H273043   1.212   4.991   2.695 -1.0934 -0.9284  1.3384
17210TIP3   OH273044   6.115   5.027  16.482 -0.4160  0.2909 -0.3503
17210TIP3    H173045   6.058   5.049  16.556  0.8005  0.1444  0.6626
17210TIP3    H273046   6.170   4.956  16.516 -0.4099 -0.3454 -1.6792
17211TIP3   OH273047   1.817   0.626   5.950  0.2140  0.1114 -0.2748
17211TIP3    H173048   1.905   0.629   5.986 -0.1136  0.6912  0.4905
17211TIP3    H273049   1.806   0.536   5.919  1.0533  0.0316 -0.3257
17212TIP3   OH273050   6.178   2.126   2.375  0.1467 -0.3375 -0.0891
17212TIP3    H173051   6.270   2.117   2.350 -0.1822  0.7642 -1.7765
17212TIP3    H273052   6.178   2.191   2.445  0.4409  1.3927 -1.6542
17213TIP3   OH273053   2.078   3.137   0.152 -0.0456  0.2518  0.3794
17213TIP3    H173054   2.138   3.141   0.077  1.6836  0.3369  1.7433
17213TIP3    H273055   1.991   3.133   0.112  0.8064  0.9217 -1.6343
17214TIP3   OH273056   0.981   3.588   3.597  0.0844 -0.0703 -0.1146
17214TIP3    H173057   1.038   3.648   3.645  0.2310  0.9973 -1.5771
17214TIP3    H273058   1.014   3.501   3.620  0.0973  0.4059  1.7500
17215TIP3   OH273059   1.930   2.773  16.399  0.5154  0.0604 -0.1423
17215TIP3    H173060   1.987   2.848  16.383  1.7275 -1.1053 -1.4269
17215TIP3    H273061   1.911   2.738  16.312 -0.3976 -0.8713  0.4136
17216TIP3   OH273062   4.434   6.675  14.533 -0.0767 -0.3087 -0.6973
17216TIP3    H173063   4.519   6.680  14.576  0.1394 -3.2353 -0.6958
17216TIP3    H273064   4.454   6.684  14.440  0.1243  0.0515 -0.6189
17217TIP3   OH273065   6.174   6.414   4.186  0.1431 -0.1910 -0.2364
17217TIP3    H173066   6.153   6.468   4.110 -0.9739 -1.5995 -0.9600
17217TIP3    H273067   6.251   6.455   4.225 -0.1226  1.3530 -1.3129
17218TIP3   OH273068   2.659   3.465   0.642  0.1165 -0.4639  0.2449
17218TIP3    H173069   2.615   3.550   0.648 -0.0563 -0.5122 -0.3334
17218TIP3    H273070   2.615   3.420   0.571  1.2842 -0.4001 -0.5381
17219TIP3   OH273071   0.707   3.955   2.294 -0.5841 -0.0921  0.3375
17219TIP3    H173072   0.794   3.941   2.331 -0.3015  3.2375  0.9976
17219TIP3    H273073   0.654   3.985   2.367 -1.5149  0.8204 -0.6976
17220TIP3   OH273074   5.848   0.335  13.860 -0.6554 -0.2438  0.4172
17220TIP3    H173075   5.779   0.331  13.926  0.3741 -0.5146  1.4972
17220TIP3    H273076   5.908   0.264  13.883  0.4632  0.5585  0.0661
17221TIP3   OH273077   6.543   5.263   2.202  0.2079  0.0891 -0.3230
17221TIP3    H173078   6.634   5.232   2.207 -0.2336 -1.5662 -2.1426
17221TIP3    H273079   6.491   5.183   2.197 -1.2968  1.0521 -0.3894
17222TIP3   OH273080   2.425   3.779  15.208 -0.1497  0.4269 -0.2492
17222TIP3    H173081   2.387   3.709  15.154 -0.2125  0.6038 -0.4340
17222TIP3    H273082   2.506   3.802  15.164 -0.2966  0.7056 -0.3751
17223TIP3   OH273083   2.512   1.171   4.961 -0.2587  0.6988  0.0774
17223TIP3    H173084   2.595   1.218   4.967 -0.7131  1.5158  0.0200
17223TIP3    H273085   2.483   1.184   4.871  1.1938 -2.4377 -0.9432
17224TIP3   OH273086   2.463   2.743  10.701  0.1251  0.4113  0.0302
17224TIP3    H173087   2.448   2.837  10.707 -0.8959  0.1991  0.8232
17224TIP3    H273088   2.486   2.728  10.610 -0.8381  1.2668 -0.3593
17225TIP3   OH273089   1.161   5.325   0.573 -0.5520  0.3534  0.2570
17225TIP3    H173090   1.085   5.338   0.630  0.6542  1.3244  1.6751
17225TIP3    H273091   1.203   5.246   0.609  0.1711  0.9273  0.6795
17226TIP3   OH273092   3.551   4.809  15.062 -0.2506  0.4118 -0.0925
17226TIP3    H173093   3.565   4.729  15.011 -2.4495  1.5290 -2.5177
17226TIP3    H273094   3.460   4.803  15.092 -0.1691  1.6229  0.4202
17227TIP3   OH273095   2.549   5.594  12.287  0.7483  0.1455  0.3417
17227TIP3    H173096   2.509   5.677  12.313 -0.8634 -0.3382 -0.4896
17227TIP3    H273097   2.584   5.558  12.369 -2.4799 -0.4144  1.5789
17228TIP3   OH273098   2.996   0.180   1.980  0.0188 -0.1126  0.4751
17228TIP3    H173099   2.946   0.189   1.899  1.3271  1.4041 -0.1848
17228TIP3    H273100   2.964   0.251   2.035  2.1949  1.5503 -0.3649
17229TIP3   OH273101   4.913   4.742  14.318  0.2677  0.3309  0.9039
17229TIP3    H173102   4.997   4.783  14.340  0.9934 -1.0892  0.8437
17229TIP3    H273103   4.936   4.675  14.253 -1.2170  1.4061 -0.7823
17230TIP3   OH273104   4.798   0.330  12.559  0.0727  0.4423 -0.3192
17230TIP3    H173105   4.754   0.300  12.480  0.3491 -0.0865 -0.2707
17230TIP3    H273106   4.890   0.340  12.533  0.1026  0.5992 -0.1549
17231TIP3   OH273107   3.754   3.792  12.593 -0.8344  0.0120  0.3690
17231TIP3    H173108   3.668   3.832  12.583 -1.0730 -0.3900  0.7889
17231TIP3    H273109   3.744   3.704  12.555 -0.3467  0.3004 -0.4421
17232TIP3   OH273110   0.925   6.171   2.535 -0.0263 -0.5746 -0.0151
17232TIP3    H173111   0.830   6.183   2.538 -0.0371 -0.9054  1.6983
17232TIP3    H273112   0.960   6.256   2.508 -0.7651 -0.2089  0.1732
17233TIP3   OH273113   1.165   1.351  12.735 -0.4647 -0.3363  0.7576
17233TIP3    H173114   1.236   1.334  12.673 -0.2139 -0.3579  1.0512
17233TIP3    H273115   1.207   1.350  12.821 -0.4589  1.7641  0.7933
17234TIP3   OH273116   3.587   2.296   5.440 -0.0813 -0.0547 -0.7539
17234TIP3    H173117   3.492   2.286   5.427  0.3822 -3.3273 -2.1620
17234TIP3    H273118   3.597   2.304   5.534 -1.8228  0.9903 -0.6278
17235TIP3   OH273119   2.905   2.290  14.805  0.4142 -0.5382  0.1301
17235TIP3    H173120   2.904   2.194  14.814  1.5160 -0.5852 -0.1396
17235TIP3    H273121   2.901   2.305  14.711  0.1438 -0.3123  0.1779
17236TIP3   OH273122   3.024   1.785  15.683 -0.0065 -0.3022  0.1527
17236TIP3    H173123   2.960   1.836  15.732  0.3168 -0.3698  0.6511
17236TIP3    H273124   3.010   1.695  15.711 -0.3721 -0.4522 -0.4999
17237TIP3   OH273125   1.898   6.467   4.905 -0.2330  0.0327 -0.4470
17237TIP3    H173126   1.868   6.402   4.969  1.7672 -0.2707  0.2307
17237TIP3    H273127   1.934   6.415   4.833  0.4301  0.3644 -0.3630
17238TIP3   OH273128   3.732   2.979   2.461  0.2925 -0.0138 -0.2147
17238TIP3    H173129   3.824   3.007   2.452  0.7207 -1.2950  0.1893
17238TIP3    H273130   3.730   2.926   2.540 -0.6704 -0.5439 -0.5814
17239TIP3   OH273131   3.240   4.148   1.687  0.2967  0.2390  0.5262
17239TIP3    H173132   3.201   4.200   1.758  0.7120  2.0698 -0.5643
17239TIP3    H273133   3.311   4.202   1.653  0.3403 -0.7716 -1.0671
17240TIP3   OH273134   6.008   0.913   1.905  0.0074  0.0829  0.8391
17240TIP3    H173135   6.077   0.876   1.850 -2.5990  1.4147 -3.5789
17240TIP3    H273136   6.017   1.008   1.894 -1.4142  0.3236  1.6321
17241TIP3   OH273137   1.080   6.236   1.582  0.2460  0.0839  0.4106
17241TIP3    H173138   1.103   6.258   1.672  0.2393 -0.3691  0.5267
17241TIP3    H273139   0.988   6.211   1.586 -0.4839  2.5321 -0.1696
17242TIP3   OH273140   6.651   0.332   0.865 -0.3231  0.0163  0.0118
17242TIP3    H173141   6.689   0.306   0.781  0.1619 -0.6935  0.4497
17242TIP3    H273142   6.720   0.383   0.908 -0.1161 -0.6943  0.5177
17243TIP3   OH273143   2.721   5.571   1.766 -0.4861 -0.3369 -0.5320
17243TIP3    H173144   2.722   5.661   1.796  2.6965 -1.2454  2.4599
17243TIP3    H273145   2.656   5.527   1.821  0.8473 -0.6658  0.8213
17244TIP3   OH273146   0.917   1.407   1.959  0.6355 -0.2746  0.1017
17244TIP3    H173147   0.988   1.378   1.902 -0.6846 -2.3664 -0.5284
17244TIP3    H273148   0.868   1.470   1.906  0.0770 -1.3676 -0.7244
17245TIP3   OH273149   4.276   0.016   1.210  0.0094  0.5235 -0.2530
17245TIP3    H173150   4.288   0.019   1.115 -0.2215  0.4369 -0.2844
17245TIP3    H273151   4.356  -0.025   1.243 -0.6383 -1.0103 -0.5574
17246TIP3   OH273152   4.662   2.667   3.889  0.5696 -0.5718 -0.9174
17246TIP3    H173153   4.667   2.574   3.908 -0.3604 -0.7630 -1.5809
17246TIP3    H273154   4.745   2.702   3.921  0.8609 -1.5951 -0.5217
17247TIP3   OH273155   4.499   3.541  13.654 -0.0988  0.1080  0.2992
17247TIP3    H173156   4.432   3.570  13.716 -1.3843 -1.3892 -0.3580
17247TIP3    H273157   4.464   3.565  13.569  0.5952  0.0557 -0.0025
17248TIP3   OH273158   3.271   2.492   1.039 -0.2380  0.0169 -0.4249
17248TIP3    H173159   3.331   2.476   0.966 -0.3275  3.9848 -1.5334
17248TIP3    H273160   3.184   2.480   1.000 -0.2518  0.5242 -0.5593
17249TIP3   OH273161   3.690   3.626   4.662  0.2517  0.0154 -0.5275
17249TIP3    H173162   3.604   3.668   4.661 -0.4349 -1.3724 -0.6847
17249TIP3    H273163   3.718   3.627   4.570 -0.3192 -0.9650 -0.7227
17250TIP3   OH273164   2.246   4.842   3.222  0.0328 -0.4982 -0.4218
17250TIP3    H173165   2.328   4.876   3.185  1.0916 -1.3356  1.0983
17250TIP3    H273166   2.197   4.920   3.248  1.1780 -0.0338  0.3748
17251TIP3   OH273167   4.409   4.595   1.259 -0.3247  0.4385 -0.3964
17251TIP3    H173168   4.468   4.644   1.201  0.6382 -0.4162 -0.1524
17251TIP3    H273169   4.441   4.505   1.254  0.3096  0.4807  2.1282
17252TIP3   OH273170   3.827   2.885  16.460  0.1905 -0.2226  0.0341
17252TIP3    H173171   3.765   2.881  16.387 -1.1918 -0.4810  1.2060
17252TIP3    H273172   3.829   2.796  16.494 -1.6276  0.5500  2.3022
17253TIP3   OH273173   5.041   6.004   3.958 -0.2126  0.0951 -0.2129
17253TIP3    H173174   5.125   6.037   3.991 -0.5855 -1.2496  2.1581
17253TIP3    H273175   5.043   5.911   3.977 -1.7444 -0.1647 -1.2671
17254TIP3   OH273176   5.539   5.789   4.819  0.7688  0.2950 -0.7657
17254TIP3    H173177   5.568   5.727   4.886  0.5351  1.2281  0.2045
17254TIP3    H273178   5.566   5.749   4.736  0.1446 -1.3615 -0.1835
17255TIP3   OH273179   3.299   5.193   5.199 -0.2400 -0.0520  0.9401
17255TIP3    H173180   3.387   5.229   5.205 -0.1622 -0.2275  0.8807
17255TIP3    H273181   3.247   5.243   5.262 -0.3369  0.7499  0.2341
17256TIP3   OH273182   2.441   6.267  14.568  0.2346  0.3683  0.2369
17256TIP3    H173183   2.462   6.336  14.632  1.3942  0.4896 -0.2470
17256TIP3    H273184   2.489   6.190  14.599  1.1969  0.5606 -0.7375
17257TIP3   OH273185   6.182   5.656  11.591 -0.1721  0.1194 -0.4670
17257TIP3    H173186   6.105   5.605  11.565 -0.0210 -1.4657  2.0266
17257TIP3    H273187   6.147   5.740  11.621 -0.9560 -0.6544  0.8104
17258TIP3   OH273188   6.138   2.764   2.719 -0.1949  0.6072 -0.2205
17258TIP3    H173189   6.111   2.778   2.628 -1.4962  0.4310  0.1259
17258TIP3    H273190   6.138   2.852   2.758 -1.0783  0.5189 -0.0099
17259TIP3   OH273191   6.436   1.128   3.750  0.2297 -0.2582  0.2090
17259TIP3    H173192   6.507   1.098   3.806  1.4875  0.6645 -0.8825
17259TIP3    H273193   6.377   1.174   3.810  0.7906 -0.6083  1.0369
17260TIP3   OH273194   3.503   0.934   4.822  0.1115  0.4550 -0.2267
17260TIP3    H173195   3.472   0.861   4.768  0.3727  0.3066 -0.1770
17260TIP3    H273196   3.473   1.012   4.776  2.4615  0.3993 -1.9391
17261TIP3   OH273197   5.627   1.644   5.013 -0.0855 -0.2033  0.1778
17261TIP3    H173198   5.578   1.681   4.940 -1.0775  0.3515  1.1055
17261TIP3    H273199   5.710   1.614   4.975  0.2179  1.8517 -0.8164
17262TIP3   OH273200   0.784   2.659   3.364 -0.4242 -0.2178  0.2988
17262TIP3    H173201   0.705   2.624   3.405 -0.1818 -0.4817  0.5370
17262TIP3    H273202   0.853   2.596   3.385 -0.6098 -1.1862 -1.8206
17263TIP3   OH273203   5.228   6.368   1.457  0.1994 -0.7399 -0.1203
17263TIP3    H173204   5.197   6.300   1.397 -0.2964 -0.1158 -0.5670
17263TIP3    H273205   5.307   6.330   1.496 -0.2581 -1.7187 -0.1099
17264TIP3   OH273206   2.134   2.159  17.086 -0.3761 -0.7254  0.1682
17264TIP3    H173207   2.210   2.149  17.029  0.0348  1.0447  0.3587
17264TIP3    H273208   2.076   2.219  17.038 -2.0869 -2.7933 -0.3842
17265TIP3   OH273209   3.998   3.614  14.200 -0.0655 -0.5189  0.5400
17265TIP3    H173210   4.043   3.666  14.266  1.9926 -2.0393  0.3810
17265TIP3    H273211   3.953   3.545  14.249 -0.3678 -0.3341  0.5236
17266TIP3   OH273212   2.324   1.149  12.496 -0.2432 -0.4341  0.0737
17266TIP3    H173213   2.305   1.069  12.545  2.2982 -0.0439  1.8035
17266TIP3    H273214   2.408   1.130  12.453  0.5939  1.4325  0.8376
17267TIP3   OH273215   2.743   5.144   0.825  0.3924 -0.5201  0.3399
17267TIP3    H173216   2.802   5.153   0.750  0.0404 -0.2481  0.0932
17267TIP3    H273217   2.764   5.218   0.881 -1.3571  0.9535 -0.8946
17268TIP3   OH273218   6.302   5.480   5.294 -0.3232 -0.1116 -0.2171
17268TIP3    H173219   6.267   5.410   5.349  1.5180 -1.2679 -0.4729
17268TIP3    H273220   6.250   5.476   5.214 -0.7861 -0.6341  0.1063
17269TIP3   OH273221   5.733   4.258   5.991 -0.1403  0.0831 -0.0843
17269TIP3    H173222   5.652   4.302   6.017  0.0899  0.1156  0.6004
17269TIP3    H273223   5.704   4.179   5.945 -0.5649  0.1155  0.1238
17270TIP3   OH273224   4.354   3.592  14.455 -0.3075  0.2888  0.1663
17270TIP3    H173225   4.416   3.590  14.527 -0.0639  1.8773  0.0178
17270TIP3    H273226   4.271   3.615  14.495 -0.3161  0.4662  0.0490
17271TIP3   OH273227   3.931   1.055  15.725  0.0172 -0.6960  0.4335
17271TIP3    H173228   3.923   0.963  15.699  0.3555 -0.9666  1.3055
17271TIP3    H273229   4.004   1.058  15.786  0.6486  0.3150 -0.3445
17272TIP3   OH273230   1.790   6.530   4.350  0.1733  0.5632 -0.0466
17272TIP3    H173231   1.749   6.461   4.402  0.4556 -0.0797 -0.6785
17272TIP3    H273232   1.854   6.569   4.409  1.2767 -0.9058 -0.2733
17273TIP3   OH273233   5.157   5.984   5.704  0.0485 -0.4514 -0.1482
17273TIP3    H173234   5.234   6.039   5.712 -0.9139  0.5256  3.6459
17273TIP3    H273235   5.092   6.039   5.661 -0.5156  1.0646  2.5148
17274TIP3   OH273236   1.484   4.959  14.006  0.0520  0.6145 -0.1691
17274TIP3    H173237   1.517   4.898  13.940 -0.7018  1.1348 -1.0402
17274TIP3    H273238   1.393   4.931  14.020  0.2863  0.3365  0.8522
17275TIP3   OH273239   5.087   2.773  12.052  0.6858 -0.4681 -1.0255
17275TIP3    H173240   5.000   2.780  12.013  1.0456  1.3597 -1.5390
17275TIP3    H273241   5.075   2.801  12.143  0.1646 -3.1712 -0.2201
17276TIP3   OH273242   2.950   6.267  11.289 -0.3295  0.3013  0.2821
17276TIP3    H173243   3.034   6.244  11.248 -1.2018 -1.5029 -0.5610
17276TIP3    H273244   2.909   6.327  11.227 -0.9878 -1.2491 -0.8300
17277TIP3   OH273245   2.248   0.660  13.237 -0.1544 -0.1098  0.4853
17277TIP3    H173246   2.266   0.749  13.268  2.3532 -0.4582  0.1092
17277TIP3    H273247   2.254   0.606  13.316  1.8811 -0.4021  0.1580
17278TIP3   OH273248   1.988   4.478   2.347  0.1121 -0.2731  0.6258
17278TIP3    H173249   1.907   4.469   2.297  0.2846 -1.3933  0.5448
17278TIP3    H273250   2.037   4.399   2.328  1.0134  0.1716  1.0731
17279TIP3   OH273251   6.373   6.672   0.243 -0.5179  0.1641  0.2900
17279TIP3    H173252   6.432   6.638   0.310  1.1617  0.7154 -0.9035
17279TIP3    H273253   6.364   6.600   0.180 -0.2565  0.4750 -0.1004
17280TIP3   OH273254   6.610   2.276  12.500 -0.0515  0.2208  0.2249
17280TIP3    H173255   6.518   2.295  12.483  0.0640  0.9223  0.4039
17280TIP3    H273256   6.620   2.285  12.595  0.1260 -0.1795  0.2443
17281TIP3   OH273257   0.177   6.390   5.125  0.0997 -0.4462 -0.4118
17281TIP3    H173258   0.137   6.410   5.210  3.0188  1.5725  0.5823
17281TIP3    H273259   0.138   6.454   5.065 -1.3522 -1.3352 -0.4406
17282TIP3   OH273260   0.401   1.931  13.613  0.1543 -0.2341  0.3335
17282TIP3    H173261   0.402   2.000  13.679  2.8803 -2.1892  2.5068
17282TIP3    H273262   0.481   1.946  13.562  0.7523 -1.7029  0.8088
17283TIP3   OH273263   4.574   6.333   4.113  0.0053  0.0307  0.3319
17283TIP3    H173264   4.507   6.283   4.159  1.6551 -2.0580  0.5611
17283TIP3    H273265   4.589   6.284   4.032  2.9402 -0.9350  1.3889
17284TIP3   OH273266   1.126   0.157   0.693 -0.0311 -0.3513 -0.0714
17284TIP3    H173267   1.218   0.142   0.673  0.2326  0.8239  0.2578
17284TIP3    H273268   1.124   0.242   0.736 -1.1253 -0.9020  0.9849
17285TIP3   OH273269   0.014   6.699  13.850 -0.6885 -0.0064  0.5452
17285TIP3    H173270  -0.069   6.698  13.803 -0.0917 -0.2238 -0.5096
17285TIP3    H273271   0.025   6.609  13.882  0.4685 -0.6717 -1.6730
17286TIP3   OH273272   6.560   3.472  15.135 -0.7249  0.2976 -0.2899
17286TIP3    H173273   6.557   3.562  15.102 -0.4556  1.0118  1.5706
17286TIP3    H273274   6.508   3.474  15.216  0.8940 -0.7508  0.8093
17287TIP3   OH273275   5.944   4.424  11.847  0.3602 -0.0466  0.2202
17287TIP3    H173276   5.943   4.476  11.927  0.0981 -1.4720  1.1587
17287TIP3    H273277   6.027   4.376  11.850  0.5468  0.2252 -0.5741
17288TIP3   OH273278   4.586   6.716   1.236 -0.2219  0.1616 -0.7235
17288TIP3    H173279   4.606   6.637   1.186 -0.6541 -0.3690 -0.0741
17288TIP3    H273280   4.584   6.786   1.171 -0.4303 -0.4619 -1.3934
17289TIP3   OH273281   0.744   4.452   1.427 -0.2316  0.0436  0.4311
17289TIP3    H173282   0.753   4.533   1.477  0.4248 -0.1264  0.5876
17289TIP3    H273283   0.807   4.460   1.355  1.4787 -1.2907  1.7273
17290TIP3   OH273284   5.748   0.837  10.771 -0.2357  0.3167 -0.4038
17290TIP3    H173285   5.833   0.794  10.766  0.7719  2.3776 -1.6161
17290TIP3    H273286   5.714   0.832  10.682 -1.1957 -0.0920 -0.0200
17291TIP3   OH273287   5.546   0.708  11.432 -0.1588 -0.0824  0.1364
17291TIP3    H173288   5.601   0.755  11.370 -0.5123 -0.6573 -0.6259
17291TIP3    H273289   5.519   0.629  11.385 -0.7652 -0.3233  0.8760
17292TIP3   OH273290   4.038   5.763   4.394  0.4221 -0.6267 -0.1072
17292TIP3    H173291   4.100   5.689   4.389  0.3754 -0.7667  1.1263
17292TIP3    H273292   3.963   5.728   4.442  1.2753  0.7907  2.3510
17293TIP3   OH273293   1.005   4.469  14.740 -0.2112  0.1723 -0.0771
17293TIP3    H173294   1.074   4.419  14.785 -0.3457  0.7127  0.7335
17293TIP3    H273295   1.033   4.470  14.648  1.0589  0.6982  0.3018
17294TIP3   OH273296   6.450   5.584   5.825  0.9788 -0.1862 -0.3352
17294TIP3    H173297   6.448   5.532   5.905 -3.2607  0.9226  0.4225
17294TIP3    H273298   6.488   5.526   5.759  1.6732 -2.1873  1.7674
17295TIP3   OH273299   6.270   0.203   3.993  0.0752 -0.0491  0.0009
17295TIP3    H173300   6.248   0.267   4.061  0.6190  1.3450 -1.1095
17295TIP3    H273301   6.324   0.252   3.931  0.0865 -1.4685 -1.1267
17296TIP3   OH273302   0.232   4.862   0.240 -0.4798  0.6932 -0.0070
17296TIP3    H173303   0.228   4.835   0.148  0.0794 -0.4199  0.2883
17296TIP3    H273304   0.179   4.797   0.286 -0.6570  1.1780  0.4812
17297TIP3   OH273305   1.268   0.668   2.479  0.5484 -0.4482 -0.2968
17297TIP3    H173306   1.187   0.619   2.467  0.3429 -0.0222 -0.6423
17297TIP3    H273307   1.262   0.705   2.567 -1.3614  2.7810 -1.7030
17298TIP3   OH273308   5.946   5.112  14.933  0.1253  0.5842 -0.1622
17298TIP3    H173309   5.913   5.052  15.001  0.3183  0.8015  0.1263
17298TIP3    H273310   5.926   5.068  14.851 -0.5153  0.5260  0.0250
17299TIP3   OH273311   1.190   2.689  14.293  0.0986  0.2803  0.7388
17299TIP3    H173312   1.221   2.633  14.365 -1.7323 -1.3336  0.3212
17299TIP3    H273313   1.145   2.761  14.336  2.1104  1.2521  1.2752
17300TIP3   OH273314   4.526   5.090   0.911 -0.9020  0.6706  0.1193
17300TIP3    H173315   4.524   5.010   0.962  0.4237  0.8147  0.4115
17300TIP3    H273316   4.605   5.136   0.940  0.1535  0.5214 -2.3730
17301TIP3   OH273317   0.811   4.672   0.001 -0.2057 -0.5590 -0.1834
17301TIP3    H173318   0.862   4.600  -0.037 -1.4778 -1.8686  0.5291
17301TIP3    H273319   0.833   4.748  -0.053 -0.5753 -1.9772 -2.3898
17302TIP3   OH273320   4.247   6.447  13.166 -0.0294  0.1748  0.1666
17302TIP3    H173321   4.204   6.517  13.117  3.0447  1.8640 -0.2438
17302TIP3    H273322   4.250   6.478  13.256 -3.2559 -1.7492  1.0027
17303TIP3   OH273323   6.553   5.482   0.188  0.1602 -0.0732  0.0735
17303TIP3    H173324   6.483   5.472   0.123 -0.0849 -0.3643  0.3729
17303TIP3    H273325   6.608   5.552   0.155  0.1128 -0.3155 -0.5147
17304TIP3   OH273326   3.784   1.951   4.684 -0.6019  0.1795 -0.4567
17304TIP3    H173327   3.780   1.881   4.619  1.9907  1.4636 -2.0798
17304TIP3    H273328   3.745   1.913   4.763 -3.0913 -1.6652 -2.4872
17305TIP3   OH273329   2.956   2.671  15.209 -0.2540 -0.5805  0.2054
17305TIP3    H173330   2.901   2.731  15.158  0.2276  0.2048  0.6025
17305TIP3    H273331   2.901   2.593  15.222  0.7647 -2.1623 -4.3146
17306TIP3   OH273332   5.137   2.788  16.557 -0.2139 -0.2188 -0.3436
17306TIP3    H173333   5.061   2.739  16.525 -3.0778  0.7870  4.3407
17306TIP3    H273334   5.147   2.759  16.648  3.9608  1.0066 -0.3341
17307TIP3   OH273335   4.750   1.461  10.272 -0.1646  0.3246  0.1640
17307TIP3    H173336   4.712   1.394  10.214 -1.0247  0.2771  0.7698
17307TIP3    H273337   4.693   1.460  10.349  1.5959 -0.3664  1.4891
17308TIP3   OH273338   5.071   4.156   4.708 -0.2626 -0.4596  0.1514
17308TIP3    H173339   5.113   4.174   4.624  1.6123  0.2094  1.1994
17308TIP3    H273340   5.091   4.234   4.761  1.5913 -2.3854  2.3590
17309TIP3   OH273341   6.240   0.324   3.277  0.5013 -0.1436  0.0597
17309TIP3    H173342   6.168   0.377   3.312  0.8169  0.2172  0.1608
17309TIP3    H273343   6.310   0.386   3.260  0.5379 -0.3847 -0.7318
17310TIP3   OH273344   3.624   4.217  11.257  0.0343  0.5121 -0.6028
17310TIP3    H173345   3.603   4.128  11.231 -2.6224  0.1882  2.3249
17310TIP3    H273346   3.602   4.271  11.181  0.5670 -1.1898 -1.9837
17311TIP3   OH273347   4.264   3.532   6.184 -0.2602 -0.4968 -0.1181
17311TIP3    H173348   4.358   3.546   6.194 -0.0714 -2.5953  1.3280
17311TIP3    H273349   4.224   3.609   6.223  0.8765  1.5736 -2.9413
17312TIP3   OH273350   2.452   6.762  14.506  0.2434 -0.2117  0.4336
17312TIP3    H173351   2.399   6.750  14.428 -1.5929 -0.1744  1.6428
17312TIP3    H273352   2.492   6.677  14.522 -1.4661 -0.9415  0.9239
17313TIP3   OH273353   5.012   3.057  12.813 -0.6256 -0.4571  0.5923
17313TIP3    H173354   4.918   3.039  12.812 -1.0174  1.1914  3.2113
17313TIP3    H273355   5.042   3.023  12.898  1.4135 -2.1111 -0.7433
17314TIP3   OH273356   4.220   1.901  16.499  0.2356  0.2014  0.5910
17314TIP3    H173357   4.266   1.933  16.576  0.4282 -0.0571  0.5829
17314TIP3    H273358   4.134   1.944  16.502  0.1764  0.0494  1.0442
17315TIP3   OH273359   0.850   6.710   1.087 -0.2690  0.2092 -0.0491
17315TIP3    H173360   0.828   6.793   1.128  1.6941  1.2546 -1.0532
17315TIP3    H273361   0.944   6.701   1.098 -0.3949 -1.7239 -0.2716
17316TIP3   OH273362   2.869   5.700  15.804 -0.0789 -0.3345 -0.9151
17316TIP3    H173363   2.950   5.745  15.827 -0.5951  0.0559  0.1671
17316TIP3    H273364   2.826   5.758  15.742 -0.5890  0.5221  0.2301
17317TIP3   OH273365   3.250   3.285   5.083 -0.3746 -0.3220  0.0524
17317TIP3    H173366   3.224   3.194   5.095 -2.3379  0.0672 -1.0897
17317TIP3    H273367   3.231   3.327   5.167 -0.6807 -0.6787  0.1612
17318TIP3   OH273368   0.852   4.021  15.050 -0.6316  0.3924 -0.3561
17318TIP3    H173369   0.863   4.090  15.115 -2.0513  0.2995 -0.0031
17318TIP3    H273370   0.766   4.038  15.011  0.3579  0.6911 -2.5082
17319TIP3   OH273371   3.484   5.229   0.579  0.0353 -0.3036  0.1737
17319TIP3    H173372   3.499   5.208   0.487 -0.4348 -3.4921  0.7506
17319TIP3    H273373   3.565   5.203   0.623  0.3872  1.5195  0.6488
17320TIP3   OH273374   5.371   6.785  13.496  0.4092  0.2347  0.8815
17320TIP3    H173375   5.462   6.756  13.498 -0.0037 -1.1261  0.2776
17320TIP3    H273376   5.351   6.806  13.588  2.1576  3.2806  0.6368
17321TIP3   OH273377   6.235   2.245   1.891 -0.0813 -0.8816  0.7978
17321TIP3    H173378   6.164   2.306   1.909 -0.2202 -0.3925 -1.2698
17321TIP3    H273379   6.301   2.298   1.846  0.6025 -1.8305  0.6796
17322TIP3   OH273380   2.140   2.907  15.058 -0.2349 -0.0211 -0.2735
17322TIP3    H173381   2.214   2.857  15.024 -0.1435  0.1809 -0.3705
17322TIP3    H273382   2.074   2.841  15.078  0.2342 -0.2658  0.4972
17323TIP3   OH273383   3.238   3.946   0.340 -0.0106 -0.3128 -0.1160
17323TIP3    H173384   3.255   3.914   0.252  1.0813 -1.4881  0.5062
17323TIP3    H273385   3.266   3.875   0.398 -0.9421  0.3401  1.1764
17324TIP3   OH273386   1.755   0.167  11.550  0.1974 -0.2073  0.5909
17324TIP3    H173387   1.680   0.107  11.553 -1.3958  1.7690  0.8053
17324TIP3    H273388   1.827   0.116  11.588  0.3291 -3.9329 -4.1629
17325TIP3   OH273389   4.460   6.291  13.253  0.3077 -0.5504  0.6316
17325TIP3    H173390   4.404   6.289  13.331 -1.5785 -0.3141 -0.6715
17325TIP3    H273391   4.412   6.346  13.191  1.9680 -0.4269 -0.5609
17326TIP3   OH273392   3.763   6.231   2.420 -0.0178  0.0165 -0.7080
17326TIP3    H173393   3.814   6.158   2.384 -0.6555 -0.4931 -0.5895
17326TIP3    H273394   3.685   6.235   2.364 -0.4682 -0.0492 -0.0835
17327TIP3   OH273395   0.424   4.719   1.854  0.2314  0.2773  0.0219
17327TIP3    H173396   0.483   4.657   1.810 -1.5365 -0.5736 -1.2054
17327TIP3    H273397   0.478   4.758   1.922  1.6288 -2.0728  0.3424
17328TIP3   OH273398   2.564   0.017  15.760 -0.1708  0.1859 -0.7879
17328TIP3    H173399   2.642  -0.020  15.801 -0.2648 -0.8990 -1.5587
17328TIP3    H273400   2.523   0.070  15.829 -0.5595 -1.9375  0.6650
17329TIP3   OH273401   1.439   3.172   1.722 -0.0076  0.5564 -0.2165
17329TIP3    H173402   1.436   3.091   1.671 -2.0910  3.1308 -4.4538
17329TIP3    H273403   1.348   3.198   1.731  0.5489  1.8027  2.2879
17330TIP3   OH273404   0.128   1.674   1.399  0.2292 -0.2790 -0.1394
17330TIP3    H173405   0.062   1.621   1.442 -0.6532 -0.2603 -1.4276
17330TIP3    H273406   0.079   1.746   1.359  1.4345  1.6221  1.7362
17331TIP3   OH273407   0.772   4.270  10.535 -0.2197 -0.0265 -0.1983
17331TIP3    H173408   0.820   4.351  10.515 -0.5097  0.9396  2.7764
17331TIP3    H273409   0.791   4.212  10.461  3.6057  1.1863 -0.2822
17332TIP3   OH273410   0.913   1.774  10.678  0.7894  0.2663 -0.1312
17332TIP3    H173411   0.820   1.753  10.688  1.0555 -0.9970 -0.1901
17332TIP3    H273412   0.915   1.868  10.660 -0.5099  0.2038 -0.6314
17333TIP3   OH273413   0.063   6.216   0.382 -0.3498 -0.4978 -0.1693
17333TIP3    H173414   0.136   6.274   0.400 -0.8603 -0.5598  2.1649
17333TIP3    H273415   0.096   6.156   0.314  1.1289  0.6226 -0.4521
17334TIP3   OH273416   0.764   2.160   3.349  0.7708 -0.8884 -0.1413
17334TIP3    H173417   0.691   2.193   3.402  1.8447 -1.1281  1.5289
17334TIP3    H273418   0.839   2.213   3.376  1.3214 -0.9199 -1.5483
17335TIP3   OH273419   4.604   5.031  16.560  0.9834  0.0191  0.3318
17335TIP3    H173420   4.639   5.069  16.640  0.8897 -1.2842  1.0085
17335TIP3    H273421   4.582   4.941  16.584 -1.5008  0.3740 -0.4287
17336TIP3   OH273422   1.308   3.041  15.421 -0.4077 -0.6903 -0.1639
17336TIP3    H173423   1.250   2.970  15.394 -0.9792  0.0671 -0.9886
17336TIP3    H273424   1.264   3.082  15.495 -0.3510 -0.8498 -0.0425
17337TIP3   OH273425   0.870   4.708   2.222  0.3146  0.1703 -0.1771
17337TIP3    H173426   0.881   4.732   2.130  0.9812  0.1492 -0.1117
17337TIP3    H273427   0.855   4.613   2.221 -3.1402  0.6804 -0.4895
17338TIP3   OH273428   4.195   2.909   0.162 -0.1074 -0.5570 -0.6854
17338TIP3    H173429   4.269   2.867   0.207  0.6585 -1.2549 -2.5724
17338TIP3    H273430   4.124   2.846   0.172  0.8776 -2.1007 -2.9869
17339TIP3   OH273431   3.649   3.571  12.159 -0.6311  0.3977  0.1086
17339TIP3    H173432   3.574   3.601  12.109  1.4813  3.4327 -1.4057
17339TIP3    H273433   3.668   3.644  12.219  1.7685  0.1780 -0.3486
17340TIP3   OH273434   6.474   5.819  15.490 -0.3298 -0.1215 -0.2290
17340TIP3    H173435   6.417   5.764  15.544 -0.7668  0.0284 -0.5239
17340TIP3    H273436   6.552   5.767  15.475 -1.0464 -0.9579 -1.1130
17341TIP3   OH273437   1.992   0.753  12.009  0.0335  0.2466 -0.1404
17341TIP3    H173438   1.943   0.687  11.959 -0.5126  2.1476 -2.1641
17341TIP3    H273439   2.059   0.702  12.055 -0.5815 -1.7612 -1.3868
17342TIP3   OH273440   5.791   2.745  11.339 -0.3249 -0.0242  0.3440
17342TIP3    H173441   5.822   2.723  11.251  0.1688  1.1625  0.2154
17342TIP3    H273442   5.821   2.673  11.394 -0.6313 -0.7716 -0.4619
17343TIP3   OH273443   0.240   3.262  12.912  0.1053  0.2067 -0.1038
17343TIP3    H173444   0.298   3.196  12.950 -0.2966 -0.9025 -1.3839
17343TIP3    H273445   0.278   3.281  12.827 -0.8190  0.2577 -0.5122
17344TIP3   OH273446   0.599   4.006  14.880  0.1375  0.1059 -0.0123
17344TIP3    H173447   0.518   4.012  14.829  0.8557  0.2638 -1.1463
17344TIP3    H273448   0.574   3.957  14.958 -0.7237 -1.1586 -1.0549
17345TIP3   OH273449   0.979   5.813   0.930  0.8291  0.9718  0.2879
17345TIP3    H173450   0.912   5.858   0.982 -1.2061 -0.3997 -1.0506
17345TIP3    H273451   0.981   5.724   0.966  1.8156  0.9645  0.2152
17346TIP3   OH273452   4.276   0.829  15.255  0.7166 -0.3412  0.4960
17346TIP3    H173453   4.327   0.902  15.291 -0.2111  0.7081 -0.3035
17346TIP3    H273454   4.267   0.849  15.162  0.6172 -1.5828  0.2253
17347TIP3   OH273455   6.599   1.272  11.707  0.0760  0.6341  0.0837
17347TIP3    H173456   6.673   1.214  11.692 -0.9348 -1.3405  2.5278
17347TIP3    H273457   6.628   1.331  11.777 -0.2233  0.7101  0.1437
17348TIP3   OH273458   1.434   0.534   5.391  0.1803 -0.1360 -0.3241
17348TIP3    H173459   1.526   0.523   5.415  0.0883 -0.2107 -0.0061
17348TIP3    H273460   1.394   0.573   5.469 -0.2072 -0.7804 -0.2038
17349TIP3   OH273461   1.053   0.244   2.860 -0.1228 -0.2515 -0.5480
17349TIP3    H173462   0.991   0.224   2.791 -0.6457  0.8032 -0.3852
17349TIP3    H273463   1.064   0.339   2.857 -1.0607 -0.0509  1.5876
17350TIP3   OH273464   4.119   6.736  13.342 -0.1802 -0.4746 -0.4560
17350TIP3    H173465   4.180   6.790  13.292  0.4942 -0.6591  0.1632
17350TIP3    H273466   4.069   6.800  13.393  0.7971 -0.4367  0.4762
17351TIP3   OH273467   5.076   1.515   3.749 -0.7213  0.2826  0.0967
17351TIP3    H173468   4.980   1.510   3.747 -0.6553 -1.4297 -0.0636
17351TIP3    H273469   5.097   1.549   3.836 -1.4874  0.8117  0.0738
17352TIP3   OH273470   1.176   5.106   0.154 -0.0121 -0.2974 -0.4642
17352TIP3    H173471   1.141   5.095   0.065  1.7435 -0.5392 -1.1529
17352TIP3    H273472   1.111   5.160   0.199 -1.1319 -0.5273 -1.7733
17353TIP3   OH273473   1.343   0.197   1.779 -0.5070  0.1003  0.8241
17353TIP3    H173474   1.342   0.284   1.741  0.9560 -0.3241 -0.2062
17353TIP3    H273475   1.367   0.139   1.707  0.1845 -0.9565  1.8876
17354TIP3   OH273476   4.387   2.373  12.281 -0.4057 -0.0482 -0.1222
17354TIP3    H173477   4.359   2.458  12.313  0.0424 -0.1875  0.6471
17354TIP3    H273478   4.318   2.346  12.221 -0.3314  1.0533 -0.7168
17355TIP3   OH273479   3.100   2.653   5.278  0.4625 -0.0784 -0.2999
17355TIP3    H173480   3.158   2.729   5.284  0.4815  0.0533 -1.8103
17355TIP3    H273481   3.027   2.674   5.336  1.3595  0.2700  0.7206
17356TIP3   OH273482   4.858   3.187   3.415 -0.2143  0.1645  0.2729
17356TIP3    H173483   4.772   3.229   3.422 -0.4557 -0.0872 -1.1979
17356TIP3    H273484   4.912   3.252   3.370  0.3103  0.2317  1.0009
17357TIP3   OH273485   4.326   5.645  16.316  0.3786 -0.3893 -0.5141
17357TIP3    H173486   4.400   5.677  16.265  0.8626 -2.0713 -0.9109
17357TIP3    H273487   4.297   5.566  16.270 -0.1657 -1.0687  0.9320
17358TIP3   OH273488   5.468   2.934  13.600 -0.1528  0.3718  0.4554
17358TIP3    H173489   5.410   2.966  13.531 -0.3517 -0.8446  0.0309
17358TIP3    H273490   5.464   3.000  13.669  0.2418  1.7206 -0.8077
17359TIP3   OH273491   4.488   1.481   1.070  0.6284  0.1185 -0.5101
17359TIP3    H173492   4.480   1.393   1.106 -1.4198 -0.2011 -1.6858
17359TIP3    H273493   4.582   1.491   1.052  1.0214 -1.4108  0.6085
17360TIP3   OH273494   1.558   2.876   1.847 -0.1848 -0.0297 -0.0083
17360TIP3    H173495   1.604   2.931   1.911 -1.0105  1.4833 -0.6856
17360TIP3    H273496   1.516   2.808   1.901  0.6388  0.1378  0.8684
17361TIP3   OH273497   0.498   3.499  14.297  0.1295  0.2774 -0.0649
17361TIP3    H173498   0.449   3.425  14.262  0.8650  0.9771 -2.6927
17361TIP3    H273499   0.438   3.574  14.287  1.1382  0.8781 -1.9912
17362TIP3   OH273500   5.162   2.142   3.961 -0.1124 -1.0556 -0.0341
17362TIP3    H173501   5.101   2.127   3.888  1.3579  0.7649 -1.6696
17362TIP3    H273502   5.109   2.124   4.039 -2.3784 -0.8113 -1.4466
17363TIP3   OH273503   2.757   5.747   3.471  0.1671 -0.6705 -0.6936
17363TIP3    H173504   2.783   5.799   3.395  0.0195 -1.3128 -1.1825
17363TIP3    H273505   2.785   5.658   3.450  0.1294 -0.8481  0.0051
17364TIP3   OH273506   2.772   3.167  10.754  0.6849 -0.2859  0.0587
17364TIP3    H173507   2.708   3.161  10.684 -0.6927  1.1330  1.1476
17364TIP3    H273508   2.801   3.077  10.769 -0.9494 -0.9261 -0.5588
17365TIP3   OH273509   6.123   5.360  13.371 -0.2443  0.0536  0.3385
17365TIP3    H173510   6.129   5.455  13.361 -0.5872  0.1646  1.1367
17365TIP3    H273511   6.182   5.340  13.443 -1.0587 -0.1928  0.9445
17366TIP3   OH273512   4.296   3.196  16.997  0.1399 -0.0158  0.0619
17366TIP3    H173513   4.344   3.277  16.983 -0.3323  0.5690  1.7399
17366TIP3    H273514   4.279   3.194  17.092 -2.5705 -0.5278 -0.3959
17367TIP3   OH273515   4.460   4.939  15.551 -0.4267 -0.1575  0.3540
17367TIP3    H173516   4.376   4.970  15.520  0.1994  2.1154  0.8502
17367TIP3    H273517   4.441   4.897  15.636 -1.2671 -1.1541 -0.3147
17368TIP3   OH273518   3.766   5.834  15.652 -0.0265 -0.2379  0.4782
17368TIP3    H173519   3.777   5.927  15.671 -0.9678 -0.2991  1.3869
17368TIP3    H273520   3.802   5.789  15.729  2.4926 -0.7081 -0.9251
17369TIP3   OH273521   3.686   4.737   0.769 -0.0434 -0.0118  0.2763
17369TIP3    H173522   3.764   4.788   0.789 -0.4332  0.5594  0.3439
17369TIP3    H273523   3.641   4.787   0.702 -1.0290  0.3218  1.1852
17370TIP3   OH273524   6.144   4.514   5.351 -0.9860 -0.1593 -0.4657
17370TIP3    H173525   6.115   4.527   5.261 -0.8599 -0.1120 -0.4992
17370TIP3    H273526   6.206   4.442   5.346  0.5407  1.1405 -0.7195
17371TIP3   OH273527   1.865   2.372   3.385  0.8826 -0.6464  0.3122
17371TIP3    H173528   1.885   2.355   3.293  0.8705  0.3387  0.1132
17371TIP3    H273529   1.793   2.313   3.406 -0.1550  0.2236 -0.7584
17372TIP3   OH273530   5.677   2.827  14.416  0.6612 -0.5705 -0.4570
17372TIP3    H173531   5.637   2.745  14.388  2.4829 -2.6653  2.7219
17372TIP3    H273532   5.771   2.812  14.406  1.0212  1.0958  0.2799
17373TIP3   OH273533   3.929   3.445  16.800 -0.0389  0.0686 -0.3628
17373TIP3    H173534   3.876   3.468  16.876 -1.1833  1.6460 -1.5959
17373TIP3    H273535   3.867   3.402  16.740  0.8805 -1.2941 -0.3659
17374TIP3   OH273536   0.173   2.853   3.911  0.1032 -0.0378 -0.1435
17374TIP3    H173537   0.195   2.776   3.858  0.3116  0.0532 -0.1895
17374TIP3    H273538   0.078   2.857   3.909  0.1135  0.0286 -0.6043
17375TIP3   OH273539   6.056   3.747   5.389  0.4829 -0.0217 -0.2206
17375TIP3    H173540   6.108   3.669   5.367  0.0088 -0.8336  1.4615
17375TIP3    H273541   6.028   3.782   5.304  1.7790 -0.9426 -1.0442
17376TIP3   OH273542   1.479   6.310   0.715  0.0681  0.8187 -0.3091
17376TIP3    H173543   1.423   6.243   0.676  0.9812 -1.0409  1.4572
17376TIP3    H273544   1.539   6.336   0.645  1.2295 -1.9410 -0.4049
17377TIP3   OH273545   6.089   2.765  17.127  0.2721 -0.5360  0.5633
17377TIP3    H173546   6.113   2.678  17.158 -0.2266 -0.3138  1.5821
17377TIP3    H273547   6.041   2.804  17.200  1.9086  1.2247  0.7190
17378TIP3   OH273548   4.875   4.835   3.565 -0.1212 -0.2479 -0.2858
17378TIP3    H173549   4.837   4.888   3.636  0.4306 -0.3981  0.1295
17378TIP3    H273550   4.928   4.897   3.515 -0.2876 -0.1978 -0.3978
17379TIP3   OH273551   1.288   3.711  12.738 -0.2625 -0.3973 -0.1984
17379TIP3    H173552   1.256   3.801  12.750  0.1544 -0.3648  0.7807
17379TIP3    H273553   1.216   3.665  12.696 -0.5859  0.3318 -0.4549
17380TIP3   OH273554   4.045   5.684  15.888  0.6023 -0.2089  0.1656
17380TIP3    H173555   4.054   5.777  15.866  1.2920 -0.0486  1.0502
17380TIP3    H273556   3.983   5.683  15.961  0.4081 -0.4689 -0.0029
17381TIP3   OH273557   2.655   3.313   5.017 -0.5163 -0.3730  0.1211
17381TIP3    H173558   2.572   3.292   4.973 -1.0868  0.7344  0.6528
17381TIP3    H273559   2.673   3.403   4.992  0.6352 -0.6632 -0.1343
17382TIP3   OH273560   5.093   4.935  11.934 -0.3329  0.3058 -0.4499
17382TIP3    H173561   5.041   4.973  11.864 -2.2104  1.0197  1.2680
17382TIP3    H273562   5.054   4.849  11.949 -2.3354  1.5907  2.1215
17383TIP3   OH273563   0.127   0.562  14.358  0.2264  0.2250 -0.3334
17383TIP3    H173564   0.057   0.612  14.401  0.1913 -0.0959 -0.0136
17383TIP3    H273565   0.091   0.541  14.271 -0.6843 -1.2149  0.3536
17384TIP3   OH273566   0.070   2.888  11.276  0.0289  0.8113 -0.2760
17384TIP3    H173567   0.114   2.972  11.276  0.1164  0.7681  0.0980
17384TIP3    H273568   0.116   2.836  11.210  0.2668  0.9063 -0.1844
17385TIP3   OH273569   6.613   1.869  14.136 -0.4321 -0.2642 -0.1254
17385TIP3    H173570   6.610   1.881  14.231  0.3881  1.6041 -0.3119
17385TIP3    H273571   6.665   1.943  14.105 -1.2969 -0.4695 -2.0922
17386TIP3   OH273572   1.438   3.096   2.988  0.4510  0.1656  0.4178
17386TIP3    H173573   1.422   3.023   2.927  2.0588 -0.4504  0.7018
17386TIP3    H273574   1.534   3.105   2.989  0.4148  0.4745  2.4792
17387TIP3   OH273575   2.782   0.329  11.264 -0.0216  0.6777  0.0370
17387TIP3    H173576   2.763   0.411  11.309  0.8299  0.1559  1.3782
17387TIP3    H273577   2.866   0.300  11.300 -0.2254 -0.6982 -0.5475
17388TIP3   OH273578   6.404   3.033  16.547 -0.1047  0.0045  0.1009
17388TIP3    H173579   6.342   2.983  16.600 -0.6125 -0.1995 -0.6858
17388TIP3    H273580   6.475   3.054  16.608  0.2031 -1.8246  0.4010
17389TIP3   OH273581   2.648   1.639  12.228 -0.4050 -0.0329  0.7343
17389TIP3    H173582   2.564   1.595  12.237  0.4565 -1.6634  1.0584
17389TIP3    H273583   2.706   1.593  12.288  0.5572  1.5221  1.0487
17390TIP3   OH273584   3.658   2.957  16.874 -0.6509 -0.0473 -0.5141
17390TIP3    H173585   3.660   2.863  16.856 -0.8795 -0.1266 -0.1298
17390TIP3    H273586   3.641   2.998  16.789  1.3198 -0.2428 -1.0413
17391TIP3   OH273587   6.602   5.824  11.508  0.0160 -0.0087 -0.1547
17391TIP3    H173588   6.663   5.867  11.447 -0.9410 -0.6402 -1.5845
17391TIP3    H273589   6.621   5.864  11.593  1.2454  1.0299 -0.8961
17392TIP3   OH273590   3.964   4.467  13.464 -0.6711 -0.9525  0.5641
17392TIP3    H173591   3.883   4.516  13.450 -0.3499 -0.4460  0.5123
17392TIP3    H273592   3.973   4.413  13.386 -0.6060 -0.5255  0.2777
17393TIP3   OH273593   0.119   6.494  16.218  0.2690 -0.1203 -0.1434
17393TIP3    H173594   0.030   6.463  16.234  0.3827 -0.5632 -0.3479
17393TIP3    H273595   0.114   6.589  16.228  0.3562 -0.3753  2.4985
17394TIP3   OH273596   5.410   4.683  16.357  0.2309  0.0728 -0.5224
17394TIP3    H173597   5.450   4.619  16.417 -4.3000 -0.7286  1.8553
17394TIP3    H273598   5.465   4.761  16.366  0.1461 -0.2703  4.2349
17395TIP3   OH273599   3.654   4.435  17.196 -0.8243 -0.3174  0.3853
17395TIP3    H173600   3.696   4.515  17.227 -1.1017  0.1914 -0.5485
17395TIP3    H273601   3.564   4.461  17.176 -0.2419 -0.2981 -2.2786
17396TIP3   OH273602   1.927   4.431   0.764  0.0986  0.1086 -0.4782
17396TIP3    H173603   1.995   4.407   0.701  0.7682 -0.3766  0.4079
17396TIP3    H273604   1.869   4.356   0.767  0.3105 -0.0484 -0.2078
17397TIP3   OH273605   5.729   5.972   4.340 -0.8365 -0.4169 -0.2419
17397TIP3    H173606   5.782   5.990   4.263 -1.1590 -0.5947 -0.5076
17397TIP3    H273607   5.693   5.885   4.324  0.1791 -1.0301  0.7188
17398TIP3   OH273608   6.205   0.368  14.931  0.4457 -0.0670 -0.9506
17398TIP3    H173609   6.139   0.317  14.978  0.4423  0.3117 -0.5368
17398TIP3    H273610   6.284   0.360  14.986  0.5995 -0.0916 -1.1757
17399TIP3   OH273611   5.622   2.566  16.986  0.1636 -0.3013 -0.3546
17399TIP3    H173612   5.657   2.652  16.960  0.7357 -0.1255  0.9759
17399TIP3    H273613   5.572   2.537  16.910 -0.2272  1.3150 -0.7367
17400TIP3   OH273614   6.776   3.906  11.081 -0.0252  0.4538 -0.0886
17400TIP3    H173615   6.830   3.985  11.083 -0.1921  0.5365  2.2920
17400TIP3    H273616   6.834   3.837  11.115  0.4319 -0.7041 -2.9923
17401TIP3   OH273617   6.268   3.560   5.326  0.1643  0.1867  0.1049
17401TIP3    H173618   6.298   3.650   5.321  0.6686  0.1658  1.9887
17401TIP3    H273619   6.349   3.508   5.336 -0.1802 -0.3550  0.1273
17402TIP3   OH273620   2.649   0.982  15.971 -0.1040 -0.2424 -0.3907
17402TIP3    H173621   2.730   0.933  15.982  0.2949  0.3292 -0.7114
17402TIP3    H273622   2.581   0.925  16.005  0.6379  0.0171  1.6063
17403TIP3   OH273623   0.931   2.155  15.922 -0.3527  0.1083 -1.0699
17403TIP3    H173624   1.005   2.210  15.947 -0.6152 -0.2758  0.6221
17403TIP3    H273625   0.935   2.080  15.982 -1.7551 -0.2144 -1.3431
17404TIP3   OH273626   4.137   2.081   2.984  0.5137 -0.1023  0.6536
17404TIP3    H173627   4.067   2.142   2.963  1.5798  0.5108 -1.2968
17404TIP3    H273628   4.112   2.042   3.068 -1.3878  1.1999  0.7061
17405TIP3   OH273629   6.015   4.388  13.995  0.3191 -0.0725 -0.0379
17405TIP3    H173630   6.035   4.482  13.992 -0.2755  0.0277 -1.1194
17405TIP3    H273631   6.025   4.359  13.905  0.3035 -1.0208  0.2633
17406TIP3   OH273632   5.299   1.054   2.266  0.0050  0.1080 -0.3868
17406TIP3    H173633   5.318   1.144   2.238  0.8052  0.1533  0.2823
17406TIP3    H273634   5.384   1.010   2.263 -0.2427 -0.3988  0.1184
17407TIP3   OH273635   5.551   4.052   0.454 -0.1649 -0.3119  0.4446
17407TIP3    H173636   5.554   4.140   0.416  1.9495 -0.3456  0.4870
17407TIP3    H273637   5.612   4.001   0.400  1.0696 -0.9439  2.4171
17408TIP3   OH273638   4.108   4.318  11.560 -0.3208  0.2940 -0.0601
17408TIP3    H173639   4.036   4.312  11.623 -1.1855 -0.7681 -1.1469
17408TIP3    H273640   4.185   4.289  11.609 -0.5574  1.7222  1.1972
17409TIP3   OH273641   6.676   2.495  12.230  0.2650  0.1512 -0.2387
17409TIP3    H173642   6.618   2.462  12.162 -1.0805 -1.5366  1.6859
17409TIP3    H273643   6.715   2.417  12.268  0.7745  1.0595  1.1395
17410TIP3   OH273644   2.591   5.371   4.105 -0.1600 -0.2180 -0.7676
17410TIP3    H173645   2.540   5.405   4.032  1.6835 -0.7856 -2.3615
17410TIP3    H273646   2.672   5.423   4.104  0.4611 -1.1485  0.0297
17411TIP3   OH273647   0.425   5.347  13.248  0.2699  0.0478  0.5359
17411TIP3    H173648   0.430   5.290  13.171 -2.4354 -0.4063  0.6481
17411TIP3    H273649   0.443   5.290  13.322  2.1335  0.3356  0.3422
17412TIP3   OH273650   5.132   4.161  11.022  0.2093 -0.0232 -0.0726
17412TIP3    H173651   5.150   4.230  11.085  0.0509 -0.5680  0.5855
17412TIP3    H273652   5.037   4.158  11.015  0.2365  0.2625 -0.6008
17413TIP3   OH273653   2.216   1.214   3.733  0.3181 -0.3944  0.1041
17413TIP3    H173654   2.296   1.178   3.772  0.9930 -0.0531 -0.9424
17413TIP3    H273655   2.145   1.170   3.780  1.1204 -2.0309 -0.1557
17414TIP3   OH273656   0.395   1.560   5.511 -0.0939 -0.1459 -0.3066
17414TIP3    H173657   0.451   1.617   5.457 -2.0160  0.5654 -1.5931
17414TIP3    H273658   0.457   1.503   5.556  1.7492  1.4329 -0.7586
17415TIP3   OH273659   0.793   5.308  16.083  0.6004 -0.6162  0.5011
17415TIP3    H173660   0.849   5.385  16.087  0.3399 -0.2823 -1.5408
17415TIP3    H273661   0.800   5.268  16.169  0.7668  1.6632  1.5773
17416TIP3   OH273662   3.970   0.321  12.889 -0.1134  0.5283  0.6890
17416TIP3    H173663   3.894   0.377  12.903  0.6821  1.9494 -0.4894
17416TIP3    H273664   4.031   0.376  12.840  1.4793 -0.7411  1.2085
17417TIP3   OH273665   3.114   0.600   0.231  0.1472 -0.1639 -0.9176
17417TIP3    H173666   3.157   0.516   0.211 -0.7213 -0.3739 -1.9320
17417TIP3    H273667   3.177   0.666   0.203  1.1769 -0.4732  0.6315
17418TIP3   OH273668   3.848   2.669   1.645 -0.0260  0.6290  0.1071
17418TIP3    H173669   3.848   2.577   1.621  0.9389  1.1073 -1.8476
17418TIP3    H273670   3.756   2.694   1.649 -0.2531  0.0100 -1.1210
17419TIP3   OH273671   6.740   3.361  12.106  0.1569  0.0258 -0.7194
17419TIP3    H173672   6.821   3.386  12.149 -0.7191  1.4446  0.1797
17419TIP3    H273673   6.759   3.366  12.012  0.7839  1.5146 -0.5235
17420TIP3   OH273674   3.128   5.495   5.054 -0.2319  0.2591 -0.4509
17420TIP3    H173675   3.222   5.481   5.045 -0.0449  1.9309 -1.3213
17420TIP3    H273676   3.088   5.413   5.026  1.0406 -1.7162  3.1456
17421TIP3   OH273677   4.464   3.919  12.173 -0.7702 -0.0418 -0.2060
17421TIP3    H173678   4.433   3.988  12.232 -1.6302 -0.0632 -0.6173
17421TIP3    H273679   4.531   3.961  12.119 -0.2497  0.0754  0.5343
17422TIP3   OH273680   0.803   6.084  13.067 -0.2752  0.1526 -1.0626
17422TIP3    H173681   0.771   6.023  13.134 -0.2482 -0.5907 -1.7306
17422TIP3    H273682   0.834   6.160  13.117  0.6973 -0.8206 -0.1643
17423TIP3   OH273683   3.277   4.862   5.320 -0.1788  0.0927 -0.3435
17423TIP3    H173684   3.195   4.904   5.295  0.8630  2.4080  0.0162
17423TIP3    H273685   3.300   4.903   5.403  2.4531  1.0343 -1.5088
17424TIP3   OH273686   4.319   0.742   4.702  0.3901 -0.7257 -0.3184
17424TIP3    H173687   4.362   0.706   4.780  0.5981  1.0359  0.4228
17424TIP3    H273688   4.225   0.734   4.720  0.4388 -1.0214 -0.2067
17425TIP3   OH273689   3.762   0.412  13.293 -0.7924 -0.1091  0.3373
17425TIP3    H173690   3.707   0.358  13.350 -0.3885 -1.4769 -0.5402
17425TIP3    H273691   3.767   0.496  13.338 -3.3505 -0.0411  0.5856
17426TIP3   OH273692   0.793   3.798   5.938  0.1331 -0.5863  0.3154
17426TIP3    H173693   0.818   3.732   5.874  1.0994 -0.1889  0.2874
17426TIP3    H273694   0.862   3.796   6.004  0.2503  0.5160  0.2332
17427TIP3   OH273695   4.359   2.314  17.130  0.7080 -0.4292 -0.1704
17427TIP3    H173696   4.285   2.372  17.111  0.5906 -0.4887  0.0908
17427TIP3    H273697   4.328   2.227  17.103  0.4009 -0.5755  0.6187
17428TIP3   OH273698   2.412   6.246  15.624  1.0140 -0.3927  0.1744
17428TIP3    H173699   2.467   6.229  15.548 -1.5203 -0.6984 -1.6455
17428TIP3    H273700   2.465   6.304  15.679  2.5864  0.4569 -2.1634
17429TIP3   OH273701   3.838   6.074  13.287  0.3354 -0.0969 -0.6446
17429TIP3    H173702   3.855   6.168  13.281  1.4369 -0.2276  0.1814
17429TIP3    H273703   3.862   6.052  13.377  1.4130 -1.4298 -1.2411
17430TIP3   OH273704   1.837   1.170   2.304 -0.0280  0.4406  0.1842
17430TIP3    H173705   1.763   1.154   2.245 -0.9492  1.2169  1.1123
17430TIP3    H273706   1.908   1.197   2.246 -0.6142  0.1852 -0.6721
17431TIP3   OH273707   3.821   3.867  13.210  0.0472  0.0466  0.3320
17431TIP3    H173708   3.842   3.821  13.291  0.4601  1.3592  0.9800
17431TIP3    H273709   3.783   3.799  13.153  1.5300 -1.2896  0.8997
17432TIP3   OH273710   4.213   5.876  17.061  0.3004  0.4242  0.1195
17432TIP3    H173711   4.259   5.959  17.053 -1.7388  1.4900 -0.9840
17432TIP3    H273712   4.198   5.866  17.155  2.0752  0.4362  0.4122
17433TIP3   OH273713   3.295   3.405  11.639  0.2743 -0.5591  0.0683
17433TIP3    H173714   3.302   3.312  11.659 -1.4516 -1.0513 -1.4604
17433TIP3    H273715   3.333   3.414  11.552  0.2317  0.1287  0.1148
17434TIP3   OH273716   5.391   1.305  12.933 -0.0989 -0.1150  0.3065
17434TIP3    H173717   5.462   1.341  12.986  0.9958 -0.7650 -0.7113
17434TIP3    H273718   5.434   1.264  12.859 -1.5260 -0.7940 -0.1653
17435TIP3   OH273719   0.330   6.576  15.260 -0.5094 -0.3317  0.1980
17435TIP3    H173720   0.284   6.653  15.227 -0.0227  0.2484  0.8523
17435TIP3    H273721   0.374   6.539  15.183  0.5817  0.9817  0.1767
17436TIP3   OH273722   4.363   6.698  14.192  0.0881  0.3001  0.0830
17436TIP3    H173723   4.327   6.786  14.205  2.5622  1.3302  0.2850
17436TIP3    H273724   4.375   6.690  14.098 -0.0548  0.2094  0.0722
17437TIP3   OH273725   3.812   4.508  14.552  0.0305  0.8069  0.4925
17437TIP3    H173726   3.771   4.590  14.524  0.8509  0.2796 -2.5114
17437TIP3    H273727   3.743   4.462  14.600 -0.3329  3.3611  2.5427
17438TIP3   OH273728   2.400   5.838  15.614 -0.3018  0.1352  0.6987
17438TIP3    H173729   2.480   5.847  15.560 -0.1348 -0.5924  0.8223
17438TIP3    H273730   2.341   5.904  15.579 -0.5683 -1.0007 -1.0717
17439TIP3   OH273731   3.844   6.486   3.396 -0.7781 -0.8562  0.0302
17439TIP3    H173732   3.855   6.519   3.485 -1.1242 -1.4021  0.2800
17439TIP3    H273733   3.911   6.418   3.387 -0.1955 -0.2351 -0.4158
17440TIP3   OH273734   2.229   4.074   5.139  0.5252  0.0320 -0.3692
17440TIP3    H173735   2.164   4.038   5.198 -0.9023  1.3962 -1.0703
17440TIP3    H273736   2.286   4.126   5.195 -0.8095  1.3004 -0.1477
17441TIP3   OH273737   4.610   5.407   4.403  0.2485 -0.2321  0.5818
17441TIP3    H173738   4.523   5.389   4.439 -0.4986 -1.9984 -1.9404
17441TIP3    H273739   4.660   5.327   4.421  0.2946 -0.5632 -0.9694
17442TIP3   OH273740   5.232   6.069   0.207  0.5088  0.1346  0.4050
17442TIP3    H173741   5.306   6.069   0.268 -0.9157 -0.5658  2.2028
17442TIP3    H273742   5.249   5.995   0.149  1.6088  0.4593  0.3078
17443TIP3   OH273743   0.790   6.718   2.401  0.0443  0.0503  0.5343
17443TIP3    H173744   0.760   6.706   2.311  0.6719  0.5586  0.2529
17443TIP3    H273745   0.755   6.642   2.448 -0.0068 -0.3958 -0.2051
17444TIP3   OH273746   2.477   2.977   2.477 -0.1895 -1.0321 -0.1627
17444TIP3    H173747   2.415   3.047   2.500  0.4076 -0.2212 -1.0132
17444TIP3    H273748   2.467   2.912   2.547 -1.9593 -0.8807 -0.2489
17445TIP3   OH273749   6.628   4.753   6.106 -0.7633  0.8070 -0.0235
17445TIP3    H173750   6.698   4.689   6.095 -0.3441  1.4770 -1.3726
17445TIP3    H273751   6.630   4.776   6.199  0.2303  0.1610  0.1138
17446TIP3   OH273752   2.281   1.499  14.824 -0.2458  0.3606 -0.1231
17446TIP3    H173753   2.264   1.590  14.799 -1.1682 -0.3522 -2.1728
17446TIP3    H273754   2.353   1.471  14.767 -0.2770 -0.3487  0.1745
17447TIP3   OH273755   0.260   6.616   3.001 -0.5316 -0.0686  0.1270
17447TIP3    H173756   0.346   6.630   3.039  0.7951 -0.4047 -2.6766
17447TIP3    H273757   0.221   6.547   3.055  1.0775 -0.1499  1.2129
17448TIP3   OH273758   3.730   5.777  13.671  1.0117  0.4682  0.2833
17448TIP3    H173759   3.811   5.780  13.721  0.0208 -0.8487  1.9961
17448TIP3    H273760   3.661   5.767  13.736 -0.2766 -1.6754 -1.3446
17449TIP3   OH273761   6.004   0.330   4.168 -0.4163 -0.1890 -0.0364
17449TIP3    H173762   6.055   0.324   4.249 -0.4094 -0.2785 -0.0471
17449TIP3    H273763   5.944   0.256   4.172 -1.1387  0.4069  0.3755
17450TIP3   OH273764   4.620   1.974  15.881  0.8922 -0.1788  0.1194
17450TIP3    H173765   4.687   1.926  15.930  0.0448 -0.5894  0.8888
17450TIP3    H273766   4.537   1.936  15.910  0.3841 -0.7108 -1.9538
17451TIP3   OH273767   1.730   3.860  13.607 -0.3253  0.2770 -0.7853
17451TIP3    H173768   1.735   3.799  13.533  0.6391  1.5470 -1.7912
17451TIP3    H273769   1.640   3.893  13.605  0.1486  1.5544 -2.4431
17452TIP3   OH273770   1.408   1.194   0.506 -0.1831  0.1852  1.1514
17452TIP3    H173771   1.477   1.147   0.459 -1.0321  0.3670 -0.2996
17452TIP3    H273772   1.415   1.163   0.596  0.7757 -0.9738  0.6894
17453TIP3   OH273773   1.571   3.096   4.454  0.5742  0.2511 -0.0361
17453TIP3    H173774   1.582   3.056   4.541 -0.1470 -0.8763 -0.4473
17453TIP3    H273775   1.477   3.111   4.447  0.4884 -0.7174 -1.0740
17454TIP3   OH273776   1.572   2.748  16.988  0.2460 -0.2250 -0.9356
17454TIP3    H173777   1.646   2.698  16.956  1.2791  0.8202 -0.2406
17454TIP3    H273778   1.589   2.838  16.958  1.2324  0.7875  2.3652
17455TIP3   OH273779   5.786   5.752  12.405 -0.3345 -0.1463 -0.1845
17455TIP3    H173780   5.867   5.701  12.402  0.4107  1.0988 -1.4974
17455TIP3    H273781   5.716   5.687  12.391  0.5600 -0.8985 -1.2070
17456TIP3   OH273782   1.667   1.996  15.963  0.2495 -0.2722 -0.1817
17456TIP3    H173783   1.753   1.988  15.921  0.2313 -1.0864 -0.0813
17456TIP3    H273784   1.611   1.934  15.915  0.1196 -0.8887  0.7430
17457TIP3   OH273785   2.362   5.794  13.641  0.0150 -0.1566 -0.0319
17457TIP3    H173786   2.452   5.809  13.611  0.3585 -0.6570  0.7401
17457TIP3    H273787   2.355   5.699  13.650 -0.2535 -0.0532  0.9314
17458TIP3   OH273788   1.909   1.619   4.518 -0.0069 -0.0978 -0.7535
17458TIP3    H173789   1.888   1.550   4.455  0.1948 -0.5903 -0.2848
17458TIP3    H273790   1.824   1.659   4.539 -0.2244 -0.7155 -0.4432
17459TIP3   OH273791   4.456   2.442   4.087 -0.2192  0.9632  0.3075
17459TIP3    H173792   4.369   2.418   4.118 -0.8321  1.8928 -0.6612
17459TIP3    H273793   4.440   2.491   4.007  1.1459  2.0433  0.6846
17460TIP3   OH273794   3.704   6.029  15.426  0.3753 -0.4456 -0.0123
17460TIP3    H173795   3.766   5.984  15.368  0.7725 -0.8361  0.7120
17460TIP3    H273796   3.742   6.021  15.513  0.2098  0.9067  0.1889
17461TIP3   OH273797   0.565   1.702   4.470  0.0238 -0.9034  0.4368
17461TIP3    H173798   0.519   1.773   4.427 -0.6015 -0.8806  1.1318
17461TIP3    H273799   0.648   1.695   4.423 -0.4864 -0.6296 -0.5165
17462TIP3   OH273800   0.166   0.322   2.886  0.2748  0.6605  0.2240
17462TIP3    H173801   0.173   0.310   2.981 -0.6099 -0.6679  0.1237
17462TIP3    H273802   0.087   0.376   2.875 -0.9853 -1.1558  0.1188
17463TIP3   OH273803   5.386   1.840   4.930 -0.3849 -0.5415 -0.0884
17463TIP3    H173804   5.347   1.753   4.941 -0.3077 -0.7038 -1.0410
17463TIP3    H273805   5.418   1.840   4.840 -1.9850  1.1255 -0.6919
17464TIP3   OH273806   5.432   5.738  13.433  0.1104 -0.4420  0.6783
17464TIP3    H173807   5.378   5.757  13.510 -1.9795  0.3919 -0.9431
17464TIP3    H273808   5.403   5.652  13.404  0.2833 -0.3872  0.3413
17465TIP3   OH273809   0.815   4.295   1.057 -0.0769  0.5293 -0.0163
17465TIP3    H173810   0.852   4.240   1.126 -1.1813  1.2683  1.1880
17465TIP3    H273811   0.885   4.303   0.993  1.4008  0.8374  1.6063
17466TIP3   OH273812   1.778   5.815   3.684 -0.3623  1.0029 -0.2418
17466TIP3    H173813   1.845   5.861   3.735  0.9022 -1.2405  0.1649
17466TIP3    H273814   1.738   5.754   3.745 -0.2842 -0.2366 -1.4001
17467TIP3   OH273815   3.486   5.446  14.899 -0.0283  0.0365  0.5527
17467TIP3    H173816   3.515   5.357  14.883  0.7955  0.1479  1.3622
17467TIP3    H273817   3.566   5.494  14.921 -0.5688  0.7910  0.8984
17468TIP3   OH273818   3.907   4.718   1.327 -0.0527  0.4434 -0.8634
17468TIP3    H173819   3.893   4.645   1.387 -0.2676  0.3933 -0.9736
17468TIP3    H273820   3.954   4.680   1.253 -0.2830  0.3903 -0.9816
17469TIP3   OH273821   2.407   1.476  13.494 -0.0424 -0.1912  0.0253
17469TIP3    H173822   2.379   1.473  13.586 -0.0228 -0.1812  0.0315
17469TIP3    H273823   2.364   1.400  13.454 -1.4918  0.8246 -0.3608
17470TIP3   OH273824   1.869   4.048  16.894  0.2031 -0.2865 -0.2331
17470TIP3    H173825   1.899   3.961  16.868  0.3735 -0.5105  0.7059
17470TIP3    H273826   1.943   4.086  16.941 -0.2731 -0.0902  0.3654
17471TIP3   OH273827   5.910   4.861  16.293 -0.3595  0.6043 -0.2681
17471TIP3    H173828   5.928   4.951  16.321 -2.2791  0.6367  0.9526
17471TIP3    H273829   5.863   4.870  16.211  1.2595  0.6372 -1.2120
17472TIP3   OH273830   3.592   0.786  13.637  0.0048 -0.2031  0.2191
17472TIP3    H173831   3.569   0.854  13.573  0.1122  0.3413  0.7502
17472TIP3    H273832   3.656   0.828  13.694  0.4308 -0.9117  0.2645
17473TIP3   OH273833   0.331   2.939   1.296 -0.0863  0.3422  0.1262
17473TIP3    H173834   0.324   2.851   1.334  2.9429  0.4030  0.9958
17473TIP3    H273835   0.308   2.998   1.368  0.6562  0.3115  0.3980
17474TIP3   OH273836   0.305   0.237  13.060 -0.0435 -0.5209  0.1542
17474TIP3    H173837   0.270   0.218  13.147  0.5050 -1.1456  0.2365
17474TIP3    H273838   0.400   0.238  13.071  0.0852 -1.8932 -0.6946
17475TIP3   OH273839   4.597   0.011  14.008 -0.0820 -0.0934  0.1383
17475TIP3    H173840   4.508  -0.017  13.985 -0.1834 -0.5259  1.0211
17475TIP3    H273841   4.590   0.105  14.020 -0.6472 -0.2532  1.1633
17476TIP3   OH273842   0.639   6.173   1.375 -0.5221 -0.4994 -0.0103
17476TIP3    H173843   0.579   6.119   1.324  0.4220  0.1455 -1.8825
17476TIP3    H273844   0.583   6.235   1.422 -1.4668 -1.6613  0.4180
17477TIP3   OH273845   4.002   1.721   0.783 -0.5677 -0.5492 -0.3853
17477TIP3    H173846   4.006   1.734   0.688  1.2479  0.6651 -0.1789
17477TIP3    H273847   4.081   1.670   0.803 -1.4566 -1.6427  0.3627
17478TIP3   OH273848   6.607   6.125  16.245  0.0942  0.2892  0.1982
17478TIP3    H173849   6.639   6.067  16.314 -1.2043 -0.9226 -0.1882
17478TIP3    H273850   6.638   6.085  16.164  0.0813  0.7145 -0.0172
17479TIP3   OH273851   4.551   6.748   5.621  0.0551  0.3789 -0.2028
17479TIP3    H173852   4.610   6.776   5.690  0.0551  1.6177 -0.6882
17479TIP3    H273853   4.525   6.829   5.577 -1.6617 -0.1984 -0.2695
17480TIP3   OH273854   0.932   6.770   0.804 -0.5702  0.1486  0.0982
17480TIP3    H173855   1.011   6.825   0.806 -0.3456 -0.1741  0.1229
17480TIP3    H273856   0.933   6.725   0.888  1.2000 -2.6451 -1.3616
17481TIP3   OH273857   3.773   2.577   4.350  0.0985  0.2565 -0.0399
17481TIP3    H173858   3.803   2.582   4.441  2.4490 -2.1470 -0.6368
17481TIP3    H273859   3.677   2.575   4.357  0.1995  1.3611  2.2937
17482TIP3   OH273860   4.043   1.328  13.659 -0.1919 -0.0928  0.3676
17482TIP3    H173861   4.004   1.378  13.731 -0.8402 -1.2605  0.8499
17482TIP3    H273862   3.998   1.360  13.581 -0.8593 -0.1584  0.7116
17483TIP3   OH273863   6.719   4.864  17.177  0.2340  0.3427  0.3973
17483TIP3    H173864   6.684   4.913  17.103 -0.5891 -2.5238 -1.1755
17483TIP3    H273865   6.672   4.899  17.253  1.3630  3.5749 -0.2990
17484TIP3   OH273866   4.660   0.051   2.295  0.5699  0.6400  0.1516
17484TIP3    H173867   4.754   0.052   2.279  0.2433 -0.4556 -2.0865
17484TIP3    H273868   4.622   0.090   2.215 -0.8792  0.8977  0.9493
17485TIP3   OH273869   1.862   0.992   4.230  0.0512 -0.4025  0.3159
17485TIP3    H173870   1.863   0.981   4.325 -1.7386 -0.8856  0.3009
17485TIP3    H273871   1.860   0.903   4.196 -1.3944 -0.2175 -0.1131
17486TIP3   OH273872   2.770   1.533  11.599 -0.0804 -0.9894 -0.1900
17486TIP3    H173873   2.785   1.475  11.525 -1.6054 -2.3811  0.5706
17486TIP3    H273874   2.678   1.519  11.623  0.0739  0.2893  1.2496
17487TIP3   OH273875   5.538   0.092  16.641  0.3382 -0.4011 -0.3458
17487TIP3    H173876   5.583   0.044  16.711  1.3848  0.2064 -0.5915
17487TIP3    H273877   5.456   0.044  16.628  0.1996 -0.6189  1.1881
17488TIP3   OH273878   5.543   3.661  13.831  0.1176  0.3862  0.1711
17488TIP3    H173879   5.510   3.625  13.749  0.0389 -0.6757  0.6575
17488TIP3    H273880   5.638   3.657  13.823  0.1935  3.8898 -1.4248
17489TIP3   OH273881   6.511   0.909  15.888  0.0356 -0.1070 -0.0104
17489TIP3    H173882   6.462   0.828  15.878 -0.1819 -0.0106  0.2507
17489TIP3    H273883   6.575   0.908  15.817 -0.1675 -0.3613 -0.1898
17490TIP3   OH273884   5.315   3.216  14.404 -0.0659 -0.4058 -0.4235
17490TIP3    H173885   5.224   3.229  14.427 -0.0119  0.8604 -0.8910
17490TIP3    H273886   5.357   3.190  14.485 -0.5697  0.4371  0.1114
17491TIP3   OH273887   2.540   2.606  13.217 -0.0492  0.3448  0.0592
17491TIP3    H173888   2.477   2.543  13.252  2.2437 -1.3761  1.2130
17491TIP3    H273889   2.555   2.576  13.127  2.1399 -1.7526  1.0473
17492TIP3   OH273890   0.417   5.318  16.490  0.2451 -0.1281 -0.1536
17492TIP3    H173891   0.340   5.264  16.473  0.6426 -0.9161  0.5322
17492TIP3    H273892   0.397   5.401  16.447 -1.0038 -0.3148  0.0342
17493TIP3   OH273893   6.369   3.895   4.107  0.4000 -0.1190  0.6266
17493TIP3    H173894   6.393   3.844   4.185 -0.7753 -2.6737 -0.6330
17493TIP3    H273895   6.301   3.955   4.138 -1.0533 -2.0603  1.2938
17494TIP3   OH273896   4.485   0.764  10.879  0.2923  1.0074 -0.1079
17494TIP3    H173897   4.465   0.689  10.823 -1.8701  0.7014  1.0363
17494TIP3    H273898   4.542   0.729  10.947  0.3899  0.7139 -0.3395
17495TIP3   OH273899   4.955   1.062  11.404 -0.4520 -0.1148  0.4318
17495TIP3    H173900   4.879   1.056  11.462 -0.4238  1.4293  0.6327
17495TIP3    H273901   5.027   1.087  11.461  0.1417 -1.1945  0.1728
17496TIP3   OH273902   0.190   0.136  13.295 -0.3615 -0.1395  0.0013
17496TIP3    H173903   0.228   0.067  13.349  0.4501 -0.9231 -1.5169
17496TIP3    H273904   0.118   0.092  13.248  0.7137 -0.2030 -1.6246
17497TIP3   OH273905   4.823   1.035   5.869  0.1938  0.4553  0.5406
17497TIP3    H173906   4.860   1.055   5.955 -0.8198  5.3371  0.0084
17497TIP3    H273907   4.898   1.012   5.815  1.1724  0.0450  2.0367
17498TIP3   OH273908   2.451   2.301   2.221 -0.3072 -0.1023  0.0407
17498TIP3    H173909   2.543   2.309   2.196 -0.6108 -0.3686 -1.2299
17498TIP3    H273910   2.448   2.225   2.278  0.2624 -0.0846  0.1003
17499TIP3   OH273911   3.399   5.033  14.113  0.2628 -0.0462  0.4683
17499TIP3    H173912   3.337   5.095  14.073  0.0804 -0.3832  0.2312
17499TIP3    H273913   3.344   4.965  14.151  0.4890 -0.3584  0.2374
17500TIP3   OH273914   3.807   1.898  14.228  0.2881 -0.7196 -0.7669
17500TIP3    H173915   3.862   1.962  14.273 -3.3245  1.1188  1.2678
17500TIP3    H273916   3.760   1.948  14.161 -1.0307 -1.6344 -0.5650
17501TIP3   OH273917   5.519   3.836  14.072  0.0022  0.5296  0.0889
17501TIP3    H173918   5.506   3.795  13.987  1.2761 -0.6317  0.4350
17501TIP3    H273919   5.484   3.924  14.062 -2.2201 -0.4383 -0.8449
17502TIP3   OH273920   1.996   0.600  12.557 -0.0287  0.0693 -0.6543
17502TIP3    H173921   1.932   0.664  12.587 -0.3510 -0.6327  0.1950
17502TIP3    H273922   2.074   0.651  12.536 -0.3919  0.7695 -0.3130
17503TIP3   OH273923   3.886   0.861  16.134  0.0740  0.5192 -0.0679
17503TIP3    H173924   3.840   0.862  16.218 -1.4289 -0.6388 -0.8449
17503TIP3    H273925   3.975   0.835  16.156 -0.5486 -0.7451  1.0822
17504TIP3   OH273926   0.288   0.025  11.427 -0.0471 -0.0574 -0.3117
17504TIP3    H173927   0.337  -0.054  11.405  0.8597 -0.3192  2.4882
17504TIP3    H273928   0.208   0.019  11.375  0.2917 -2.4907 -0.6142
17505TIP3   OH273929   1.514   0.747   2.638  0.3434  0.4485  0.4319
17505TIP3    H173930   1.541   0.673   2.693  0.4642  0.9606  1.0687
17505TIP3    H273931   1.512   0.712   2.549 -0.3003 -0.5170  0.8193
17506TIP3   OH273932   0.066   4.631   5.258 -0.2834 -0.5316  0.2868
17506TIP3    H173933   0.030   4.708   5.212 -1.7136 -0.7720  0.9754
17506TIP3    H273934   0.061   4.655   5.350  1.3260 -0.5896  0.3891
17507TIP3   OH273935   4.773   3.337   1.742  0.5082  0.0076  0.5487
17507TIP3    H173936   4.849   3.396   1.740 -0.5991  1.5145  2.0950
17507TIP3    H273937   4.706   3.386   1.788 -1.2731 -1.5191 -0.3753
17508TIP3   OH273938   6.650   1.974  16.210 -0.3477 -0.3534 -0.2815
17508TIP3    H173939   6.570   2.024  16.222  0.0947  0.1410  0.6304
17508TIP3    H273940   6.628   1.885  16.238 -1.0340 -0.6044 -1.5793
17509TIP3   OH273941   1.707   1.276  13.005  0.3507 -0.1261  0.6814
17509TIP3    H173942   1.799   1.256  13.022  0.7214  1.1117  0.2139
17509TIP3    H273943   1.705   1.298  12.912 -0.4320 -0.1708  0.6862
17510TIP3   OH273944   4.398   6.056  16.119 -0.0089 -0.0015  0.5676
17510TIP3    H173945   4.472   5.995  16.124 -0.5595 -0.7731 -0.4531
17510TIP3    H273946   4.323   6.001  16.099 -0.9736  0.7155  2.1241
17511TIP3   OH273947   1.012   3.140   0.420  0.0624  0.1808 -0.0199
17511TIP3    H173948   1.036   3.233   0.411  2.6528 -0.3152  1.1952
17511TIP3    H273949   1.051   3.113   0.503  0.1760 -2.2381 -0.8146
17512TIP3   OH273950   5.627   3.162  16.123  0.4585  0.4969 -0.3926
17512TIP3    H173951   5.569   3.185  16.050  0.8310 -0.2190 -0.9149
17512TIP3    H273952   5.578   3.187  16.201 -0.8596 -0.7678 -0.7944
17513TIP3   OH273953   1.720   0.013   6.342  0.2319 -0.1884  0.3003
17513TIP3    H173954   1.768   0.052   6.415  0.1383 -1.0947  0.8669
17513TIP3    H273955   1.759  -0.074   6.332 -1.3249 -0.9745  0.8340
17514TIP3   OH273956   1.997   6.198  14.799  0.5470  0.5332  0.2258
17514TIP3    H173957   2.017   6.164  14.712 -0.0068  1.4071 -0.2521
17514TIP3    H273958   2.073   6.252  14.822  0.2753  1.0570 -0.1122
17515TIP3   OH273959   0.033   5.989  12.651  0.4979 -0.2173  0.5125
17515TIP3    H173960  -0.046   6.043  12.643  0.4781 -0.1836  0.9256
17515TIP3    H273961   0.042   5.974  12.745  1.2430  0.1680  0.5035
17516TIP3   OH273962   1.956   1.549   5.579 -0.5831 -0.6020  0.4956
17516TIP3    H173963   2.042   1.576   5.609 -0.2377 -1.1067 -0.0251
17516TIP3    H273964   1.965   1.456   5.559 -1.3746 -0.7693  0.8838
17517TIP3   OH273965   2.783   0.417   0.115 -0.4190  0.1011 -0.8434
17517TIP3    H173966   2.796   0.350   0.048  0.3783 -0.1645 -0.4380
17517TIP3    H273967   2.844   0.393   0.184 -0.1962  1.1990 -0.6507
17518TIP3   OH273968   5.125   1.428   4.053  0.0271 -0.1872  0.1436
17518TIP3    H173969   5.102   1.407   4.143 -1.2701  0.7533  0.0512
17518TIP3    H273970   5.130   1.343   4.009 -2.2644 -0.4938  0.4324
17519TIP3   OH273971   1.312   2.905  17.145  0.4065  0.3441 -0.8293
17519TIP3    H173972   1.382   2.879  17.086  1.7436 -1.4697  1.4273
17519TIP3    H273973   1.278   2.822  17.179 -1.3796  1.2836 -0.2555
17520TIP3   OH273974   0.071   1.079  14.115 -0.5182  0.3051 -0.0495
17520TIP3    H173975  -0.008   1.025  14.110 -0.2038 -0.1493 -0.1306
17520TIP3    H273976   0.112   1.069  14.029 -0.8962  1.3478 -0.3628
17521TIP3   OH273977   2.636   4.417   4.254  0.4998  0.0522 -0.1358
17521TIP3    H173978   2.704   4.474   4.219 -0.7903  1.3600 -0.5746
17521TIP3    H273979   2.620   4.352   4.185  1.3475 -0.3013  0.0016
17522TIP3   OH273980   0.099   1.755   5.401 -0.0980 -1.1577 -0.2016
17522TIP3    H173981   0.180   1.766   5.451 -0.2542  0.0208 -0.1977
17522TIP3    H273982   0.037   1.814   5.443 -0.3055 -0.3322 -1.6465
17523TIP3   OH273983   6.298   4.691   5.553  0.2643 -0.0994  0.1376
17523TIP3    H173984   6.344   4.637   5.489 -0.3129 -0.0522 -0.3156
17523TIP3    H273985   6.367   4.744   5.593  0.4817  0.6219 -1.1820
17524TIP3   OH273986   4.347   1.958   3.249 -0.2821  0.1104  0.0081
17524TIP3    H173987   4.359   1.908   3.330 -1.4119 -0.6042 -0.2499
17524TIP3    H273988   4.405   1.916   3.185 -0.4498 -0.2146  0.0700
17525TIP3   OH273989   0.875   2.137  13.852  0.2345 -0.2871 -0.6762
17525TIP3    H173990   0.933   2.090  13.793 -0.2473 -0.1417 -1.2781
17525TIP3    H273991   0.927   2.212  13.883  0.9674 -1.1467  0.2082
17526TIP3   OH273992   3.696   2.521  12.079 -0.2520 -0.1307 -0.4059
17526TIP3    H173993   3.698   2.515  11.984  2.0965 -0.2678 -0.3611
17526TIP3    H273994   3.606   2.498  12.102 -1.0790  0.7182 -2.6342
17527TIP3   OH273995   0.520   5.035   0.428  0.6270  0.0719 -0.1858
17527TIP3    H173996   0.476   4.950   0.425  1.3617 -0.3609  0.9032
17527TIP3    H273997   0.566   5.040   0.344 -0.7471  0.1324 -0.9513
17528TIP3   OH273998   1.590   2.516  13.724 -0.1822 -0.3726  0.4556
17528TIP3    H173999   1.524   2.542  13.660 -0.0546 -0.3706  0.3268
17528TIP3    H274000   1.670   2.562  13.697  0.0850 -1.0239  0.1364
17529TIP3   OH274001   2.499   4.165  14.803  0.2894  0.2063  0.0656
17529TIP3    H174002   2.548   4.186  14.723 -0.8970 -0.2413 -0.8042
17529TIP3    H274003   2.423   4.117  14.771 -0.4885  0.5180  1.4353
17530TIP3   OH274004   3.069   4.632  14.261 -0.2231 -0.0846  0.1192
17530TIP3    H174005   2.999   4.651  14.199 -1.5012  0.2562  1.6408
17530TIP3    H274006   3.050   4.687  14.337  1.5978 -0.1219  0.6343
17531TIP3   OH274007   1.992   0.942  15.243 -0.5643 -0.4181 -0.5433
17531TIP3    H174008   1.983   0.940  15.147  1.2017 -0.6315 -0.7049
17531TIP3    H274009   2.069   0.997  15.259 -1.9317  1.1683  0.8383
17532TIP3   OH274010   6.751   0.720  11.148  0.2427 -0.4774 -0.2884
17532TIP3    H174011   6.846   0.730  11.143  0.2655 -0.8480 -0.5888
17532TIP3    H274012   6.732   0.720  11.242  0.3172  1.6217 -0.2563
17533TIP3   OH274013   0.586   1.622   5.218 -0.5049 -0.0940 -0.2032
17533TIP3    H174014   0.530   1.545   5.232 -1.7254  0.6218 -1.0461
17533TIP3    H274015   0.675   1.586   5.211 -0.8582 -1.2560  1.0418
17534TIP3   OH274016   1.209   3.869   4.861  0.3220  0.1841  0.4122
17534TIP3    H174017   1.268   3.801   4.895  0.0065  0.1741  0.9322
17534TIP3    H274018   1.203   3.934   4.931  0.0866  0.4217  0.1749
17535TIP3   OH274019   5.541   3.768   2.977  0.0547  0.0665 -0.2288
17535TIP3    H174020   5.487   3.809   2.909 -0.3661  0.1165  0.1289
17535TIP3    H274021   5.621   3.742   2.932  1.0491  2.8249 -0.0975
17536TIP3   OH274022   5.963   1.523  13.208  0.0699  0.3066 -0.3697
17536TIP3    H174023   6.014   1.442  13.213  0.0247  0.1705 -1.8408
17536TIP3    H274024   6.029   1.592  13.207  0.2383  0.1350 -2.1549
17537TIP3   OH274025   0.942   2.634  13.703 -0.2273 -0.1898 -0.0303
17537TIP3    H174026   0.886   2.571  13.657  0.9422  0.5145 -2.5563
17537TIP3    H274027   0.980   2.584  13.775  0.8104 -2.4782 -2.0993
17538TIP3   OH274028   1.736   5.907  15.840  0.1900 -0.1166 -0.0738
17538TIP3    H174029   1.749   5.990  15.885 -0.6899 -2.2481  4.4114
17538TIP3    H274030   1.653   5.918  15.794 -0.5136  1.1298  1.4306
17539TIP3   OH274031   2.858   4.861  12.773 -0.0076 -0.3930 -0.0896
17539TIP3    H174032   2.928   4.843  12.836  1.2291  1.4297 -0.8799
17539TIP3    H274033   2.788   4.800  12.796  1.2395 -1.1865  1.7106
17540TIP3   OH274034   4.017   2.320   5.286 -0.0204 -0.2778 -0.5418
17540TIP3    H174035   4.107   2.336   5.315 -0.3367  0.4374  0.0538
17540TIP3    H274036   3.976   2.275   5.359 -0.0027 -1.0900 -1.0242
17541TIP3   OH274037   4.007   0.059  13.994  0.5717  0.6330 -0.5745
17541TIP3    H174038   3.974  -0.022  14.032  2.5870  0.1308  0.1593
17541TIP3    H274039   3.984   0.127  14.058 -0.0858  0.4730 -0.6406
17542TIP3   OH274040   3.422   6.327  13.495  0.0545  0.4148 -0.3737
17542TIP3    H174041   3.371   6.246  13.493  0.6585 -0.0410  1.9616
17542TIP3    H274042   3.358   6.395  13.518 -0.0590  0.2861 -0.3075
17543TIP3   OH274043   0.905   3.193  15.766 -0.0375  0.2152  0.2533
17543TIP3    H174044   0.824   3.242  15.779  0.2177  0.4967  0.7962
17543TIP3    H274045   0.880   3.101  15.778 -0.1023  0.3627  1.3092
17544TIP3   OH274046   1.019   3.671   5.858 -0.3716  0.6794 -0.1788
17544TIP3    H174047   1.067   3.746   5.893  0.1361  0.2049  0.1572
17544TIP3    H274048   1.036   3.601   5.921 -1.6925  0.5594  0.0756
17545TIP3   OH274049   4.571   2.538   5.299 -0.1231 -0.4509  0.2198
17545TIP3    H174050   4.609   2.488   5.227 -1.0743 -1.8363  0.6609
17545TIP3    H274051   4.499   2.588   5.259  0.2373 -0.1410 -0.0442
17546TIP3   OH274052   5.655   4.572  12.636 -0.7779  0.1933  0.5244
17546TIP3    H174053   5.667   4.509  12.707 -0.6313 -0.4049 -0.0304
17546TIP3    H274054   5.742   4.582  12.598 -0.7459  0.9441  0.7895
17547TIP3   OH274055   1.615   5.900   2.658  0.1540  0.3062 -0.2607
17547TIP3    H174056   1.633   5.885   2.751 -1.5323 -1.5565 -0.1998
17547TIP3    H274057   1.683   5.852   2.612  0.6470  0.7425  0.0108
17548TIP3   OH274058   3.696   0.697  15.944  0.1294  0.2776  0.1460
17548TIP3    H174059   3.751   0.763  15.985  0.1370  0.1896  0.2788
17548TIP3    H274060   3.653   0.743  15.872  0.1424  0.4247  0.2310
17549TIP3   OH274061   1.559   4.082  11.779  0.5273  0.1292 -0.2826
17549TIP3    H174062   1.587   4.152  11.838  2.1137 -0.6249 -0.1125
17549TIP3    H274063   1.524   4.128  11.703  1.5105  1.1154 -0.1585
17550TIP3   OH274064   1.204   3.960   2.630  0.3961  0.2716 -0.1032
17550TIP3    H174065   1.262   3.885   2.618 -0.9606 -1.0661  1.5315
17550TIP3    H274066   1.119   3.930   2.596 -0.3618  0.7392  1.3291
17551TIP3   OH274067   2.603   4.018  15.829  0.0498  0.2026  0.2332
17551TIP3    H174068   2.553   4.034  15.749 -0.5574  0.9279  0.7555
17551TIP3    H274069   2.557   4.066  15.897  1.8741  1.4833  0.6038
17552TIP3   OH274070   0.557   2.406  11.722  0.1676 -0.6971 -0.1731
17552TIP3    H174071   0.611   2.476  11.758 -0.5509 -0.3157  0.1803
17552TIP3    H274072   0.572   2.409  11.627 -0.7978  0.7400 -0.2939
17553TIP3   OH274073   1.526   0.144   6.187 -0.3581  0.8500  0.3335
17553TIP3    H174074   1.576   0.081   6.239  0.2594 -1.2881 -2.7641
17553TIP3    H274075   1.470   0.188   6.251  2.9559  0.8567  3.3500
17554TIP3   OH274076   2.269   6.567   4.910 -0.1934 -0.2859  0.1423
17554TIP3    H174077   2.352   6.577   4.863 -0.2497  0.1613  0.1354
17554TIP3    H274078   2.226   6.493   4.866 -0.1384 -0.0274 -0.3588
17555TIP3   OH274079   6.094   3.157  16.305  0.4488 -0.1531  0.0409
17555TIP3    H174080   6.030   3.157  16.234  1.1730 -2.1919 -0.6674
17555TIP3    H274081   6.042   3.172  16.384 -0.5233  0.9835 -0.8069
17556TIP3   OH274082   3.609   4.173   1.736  0.0844 -0.1683  0.4864
17556TIP3    H174083   3.654   4.146   1.816  0.8952 -3.2062 -0.9168
17556TIP3    H274084   3.675   4.164   1.667 -0.9210  1.2902 -0.6877
17557TIP3   OH274085   2.818   5.897  16.325 -0.3966 -0.5534 -0.7287
17557TIP3    H174086   2.815   5.802  16.318  4.4171 -0.8467 -0.3501
17557TIP3    H274087   2.854   5.926  16.242 -1.3947  0.9426 -0.6622
17558TIP3   OH274088   4.268   5.878   5.311 -0.6435  0.1609 -0.4259
17558TIP3    H174089   4.318   5.833   5.242  0.7935  2.7492 -1.1440
17558TIP3    H274090   4.217   5.944   5.263 -1.1518  0.6707  0.8167
17559TIP3   OH274091   2.599   5.732   2.053 -0.1684  0.3804 -0.2248
17559TIP3    H174092   2.669   5.768   2.000  0.5357 -1.0328 -0.2915
17559TIP3    H274093   2.563   5.806   2.102 -0.5753  1.6286 -2.3826
17560TIP3   OH274094   2.517   5.025  13.432 -0.2748 -0.0505  0.6868
17560TIP3    H174095   2.604   5.043  13.469 -0.3503  0.4574  0.6213
17560TIP3    H274096   2.505   4.931  13.443  0.0874 -0.0462  1.1324
17561TIP3   OH274097   2.633   2.140   0.196  0.3861  0.4072 -0.4795
17561TIP3    H174098   2.712   2.179   0.158  0.9224 -1.7823 -1.7171
17561TIP3    H274099   2.581   2.114   0.120 -0.3537 -0.4598  0.3156
17562TIP3   OH274100   6.485   2.359  14.592  0.0681  0.0443  0.7994
17562TIP3    H174101   6.546   2.301  14.546  0.7977 -0.7073  2.6551
17562TIP3    H274102   6.431   2.397  14.523 -1.1711 -3.6731 -0.3945
17563TIP3   OH274103   2.659   3.404   1.600 -0.1686 -0.2518 -0.7469
17563TIP3    H174104   2.697   3.491   1.586 -0.3379 -0.1199 -0.3905
17563TIP3    H274105   2.724   3.357   1.652 -1.3438  0.6425  1.6305
17564TIP3   OH274106   3.178   0.961   4.600 -0.8662 -0.2419  0.3231
17564TIP3    H174107   3.147   0.992   4.685 -0.9212  0.7675 -0.0647
17564TIP3    H274108   3.105   0.980   4.540 -0.1877  0.5507 -0.2580
17565TIP3   OH274109   1.367   4.905  15.230  0.1105 -0.2053 -0.2143
17565TIP3    H174110   1.399   4.950  15.151  2.1387  0.5612  1.0229
17565TIP3    H274111   1.415   4.822  15.231  0.4621  0.0020  0.4687
17566TIP3   OH274112   5.034   1.652  12.504  0.4588  0.2438  0.3266
17566TIP3    H174113   5.095   1.665  12.431 -1.7073  0.6747 -1.4710
17566TIP3    H274114   4.982   1.576  12.479  1.5760 -1.3748  2.7942
17567TIP3   OH274115   5.676   5.133   6.148 -0.1860 -0.4430  0.4373
17567TIP3    H174116   5.598   5.178   6.181 -0.9114 -0.4705 -1.2259
17567TIP3    H274117   5.749   5.181   6.187 -1.0212 -0.9004  2.6492
17568TIP3   OH274118   4.376   1.358  10.314 -0.6382 -0.2887  0.2730
17568TIP3    H174119   4.325   1.431  10.348 -0.9335  0.7719 -2.2926
17568TIP3    H274120   4.462   1.367  10.354 -0.6672  1.4920 -0.0528
17569TIP3   OH274121   6.138   5.464  15.401  0.1785 -0.2276  0.1190
17569TIP3    H174122   6.076   5.405  15.358  1.1832 -0.4363 -1.0572
17569TIP3    H274123   6.155   5.423  15.486 -0.5333 -0.6767  0.0497
17570TIP3   OH274124   5.687   2.956   3.919 -0.4128 -0.0362  0.0819
17570TIP3    H174125   5.746   3.007   3.973  0.2401 -0.1501 -0.5163
17570TIP3    H274126   5.629   2.912   3.981  2.2017 -2.5169  0.8968
17571TIP3   OH274127   5.255   5.830  13.621 -0.3740  0.3167  0.3968
17571TIP3    H174128   5.218   5.892  13.685  1.9674 -0.5116  2.5985
17571TIP3    H274129   5.178   5.788  13.583 -1.9689  3.4883 -0.0615
17572TIP3   OH274130   5.532   6.520   3.927 -0.3672  0.3320 -0.0411
17572TIP3    H174131   5.450   6.529   3.878  0.5120  0.0330 -1.6322
17572TIP3    H274132   5.528   6.431   3.963 -1.1691  0.6687  0.6998
17573TIP3   OH274133   1.314   5.857  11.687 -0.6174 -0.0771  0.2906
17573TIP3    H174134   1.221   5.868  11.665 -0.6321  0.1405  0.4632
17573TIP3    H274135   1.336   5.771  11.651 -0.8287 -0.0365  0.0571
17574TIP3   OH274136   2.697   2.605   0.089  0.1101 -0.9850 -0.9874
17574TIP3    H174137   2.708   2.678   0.027 -3.7074  0.2260 -0.3903
17574TIP3    H274138   2.775   2.608   0.144  1.1557  1.1281 -2.5062
17575TIP3   OH274139   2.931   5.072   2.077  0.2233  0.0928  0.6114
17575TIP3    H174140   2.970   5.035   1.998 -0.1431 -1.0309  0.9323
17575TIP3    H274141   2.945   5.004   2.144  0.7163  1.1048  1.5704
17576TIP3   OH274142   5.564   0.251  11.091  0.4701  0.0257  0.9701
17576TIP3    H174143   5.482   0.247  11.042 -0.4861 -0.1743  2.5788
17576TIP3    H274144   5.617   0.315  11.044 -0.8731  0.6747  0.3355
17577TIP3   OH274145   4.809   2.190   5.985  0.2010  0.2969 -0.2599
17577TIP3    H174146   4.821   2.241   6.065 -1.1332 -1.6106  1.1781
17577TIP3    H274147   4.746   2.241   5.934 -2.5068 -0.7360  1.9507
17578TIP3   OH274148   5.874   5.671   2.507  0.0693 -0.2184  0.4295
17578TIP3    H174149   5.861   5.764   2.489 -0.9672 -0.4606 -0.0552
17578TIP3    H274150   5.847   5.660   2.599  1.4146  0.2005  0.8877
17579TIP3   OH274151   2.097   4.618  16.606  0.1233 -0.1471 -0.1566
17579TIP3    H174152   2.061   4.530  16.596 -1.6549  0.3352  1.6822
17579TIP3    H274153   2.162   4.610  16.675 -0.1745  0.0108  0.1439
17580TIP3   OH274154   3.768   0.580  14.470 -0.0344  0.4309 -0.3080
17580TIP3    H174155   3.702   0.515  14.493  1.1600 -0.5748  0.3609
17580TIP3    H274156   3.732   0.663  14.501 -0.8801 -0.1335  0.2472
17581TIP3   OH274157   5.636   2.616  15.026  0.2377 -0.4228  0.0853
17581TIP3    H174158   5.636   2.651  14.937 -0.5276 -0.8440 -0.0830
17581TIP3    H274159   5.708   2.662  15.070  0.5406 -0.1282 -0.7117
17582TIP3   OH274160   3.769   1.047   5.478 -0.9488 -0.7286  0.6471
17582TIP3    H174161   3.821   1.005   5.546 -0.3890 -0.4440  0.3994
17582TIP3    H274162   3.685   1.065   5.519 -0.7307 -0.8760  1.1532
17583TIP3   OH274163   6.360   3.473  15.686  0.3001  0.1112 -0.1465
17583TIP3    H174164   6.343   3.542  15.622 -0.7982  0.0220  0.0489
17583TIP3    H274165   6.342   3.513  15.771  0.4002 -0.1950  0.0208
17584TIP3   OH274166   1.118   2.844   2.375 -0.3826 -0.6308  0.2266
17584TIP3    H174167   1.056   2.914   2.396  1.2420  0.5941  1.1067
17584TIP3    H274168   1.080   2.800   2.299 -1.4543  1.2147 -0.3538
17585TIP3   OH274169   2.283   6.509   5.596 -0.1403  0.1712 -0.3878
17585TIP3    H174170   2.297   6.503   5.691 -3.1784  1.5239  0.2018
17585TIP3    H274171   2.321   6.593   5.572 -0.6260  0.4758 -0.1030
17586TIP3   OH274172   4.664   4.436   3.147 -0.0222 -0.1854  0.0759
17586TIP3    H174173   4.663   4.341   3.135  0.0903 -0.3253  1.1259
17586TIP3    H274174   4.573   4.463   3.139 -0.2863 -0.6144  1.5015
17587TIP3   OH274175   3.523   4.846   4.322  0.1234 -0.1814 -0.3635
17587TIP3    H174176   3.438   4.801   4.322  0.3265 -0.5743  0.0364
17587TIP3    H274177   3.523   4.896   4.404  1.0693 -1.7109  0.5922
17588TIP3   OH274178   3.015   0.388   6.173 -0.4613 -0.1242 -0.1478
17588TIP3    H174179   3.088   0.436   6.213  1.3090 -1.3355 -1.8307
17588TIP3    H274180   2.973   0.452   6.115  0.3609  0.0896 -0.5115
17589TIP3   OH274181   2.710   0.352   3.446 -0.1705 -0.3574 -0.4381
17589TIP3    H174182   2.617   0.333   3.435 -0.3756 -0.1777  0.8438
17589TIP3    H274183   2.721   0.440   3.410 -0.4306 -0.4934 -0.8579
17590TIP3   OH274184   0.209   0.635   5.215  0.2733  0.1227 -0.4719
17590TIP3    H174185   0.304   0.645   5.222  0.1609  0.7588  0.2375
17590TIP3    H274186   0.191   0.636   5.121  1.0786 -1.0937 -0.6466
17591TIP3   OH274187   1.179   5.241   1.711  0.1832 -0.6033  0.7455
17591TIP3    H174188   1.175   5.273   1.620  1.1284 -0.0591  0.8956
17591TIP3    H274189   1.225   5.158   1.705 -1.7093 -1.6651  0.4418
17592TIP3   OH274190   6.258   3.765   1.698  0.1903  0.1754 -0.0324
17592TIP3    H174191   6.341   3.803   1.729 -0.2598  0.7552  0.4757
17592TIP3    H274192   6.241   3.692   1.757  0.8033 -0.5299 -0.7072
17593TIP3   OH274193   1.055   3.302  15.989 -0.3944  0.0021 -0.0286
17593TIP3    H174194   1.011   3.265  15.912 -0.3567 -0.2056  0.0486
17593TIP3    H274195   1.143   3.321  15.959 -0.0156 -1.1943  0.2846
17594TIP3   OH274196   1.575   4.859   3.878  0.1778  0.2178  0.1394
17594TIP3    H174197   1.614   4.861   3.965 -0.9727  1.0970  0.6457
17594TIP3    H274198   1.535   4.772   3.871 -0.7226  0.5657  0.9384
17595TIP3   OH274199   5.640   2.065   3.949  0.1245  0.4128 -0.8638
17595TIP3    H174200   5.557   2.082   3.994  1.1108 -1.6492  1.8757
17595TIP3    H274201   5.618   2.001   3.881 -0.7149  0.6711 -0.8394
17596TIP3   OH274202   4.833   2.931   4.525  0.4949  0.0432  0.3367
17596TIP3    H174203   4.896   2.989   4.569  0.8007 -1.4730  1.9695
17596TIP3    H274204   4.834   2.851   4.578 -0.1228 -1.3516 -1.7142
17597TIP3   OH274205   4.574   2.815  10.937 -0.2270 -0.3890 -0.2756
17597TIP3    H174206   4.640   2.871  10.896 -0.9322  1.9711  1.7915
17597TIP3    H274207   4.491   2.854  10.913 -0.7643 -1.1373  0.3448
17598TIP3   OH274208   5.138   6.037   2.475  0.0013  0.2655  0.8436
17598TIP3    H174209   5.153   6.108   2.412 -0.4135 -1.2231 -0.9876
17598TIP3    H274210   5.045   6.043   2.496  0.3697  1.4354  2.1577
17599TIP3   OH274211   0.033   2.351  16.513 -0.0247 -0.0823  0.0199
17599TIP3    H174212  -0.051   2.385  16.545 -0.3716 -0.6388 -0.2948
17599TIP3    H274213   0.010   2.272  16.464  0.7751 -0.7297  0.6808
17600TIP3   OH274214   2.547   5.522  15.700 -0.6833  0.6787  0.4789
17600TIP3    H174215   2.479   5.587  15.683 -0.3999  0.7616 -0.3446
17600TIP3    H274216   2.500   5.440  15.711 -1.0017  0.9283  0.9842
17601TIP3   OH274217   2.853   0.888   1.471 -0.3632  0.3761  0.5373
17601TIP3    H174218   2.778   0.849   1.424  0.1043 -1.0925  0.9817
17601TIP3    H274219   2.930   0.850   1.429  0.1833  2.7540 -0.6655
17602TIP3   OH274220   6.587   3.468  11.767 -0.1356  0.8335  0.0846
17602TIP3    H174221   6.668   3.480  11.718  0.8504 -0.3094  1.3807
17602TIP3    H274222   6.537   3.404  11.717  0.7930 -0.2106  0.4773
17603TIP3   OH274223   0.765   3.088  16.488 -0.3649  0.4943 -0.7602
17603TIP3    H174224   0.842   3.031  16.482  0.3709  1.1340  2.1640
17603TIP3    H274225   0.753   3.120  16.398  3.0791  0.7760 -1.1917
17604TIP3   OH274226   1.568   6.165   4.486  0.3776  0.0322  0.3919
17604TIP3    H174227   1.576   6.104   4.412  0.3401 -2.0921  2.1189
17604TIP3    H274228   1.494   6.133   4.536  1.1811  0.7366  2.0507
17605TIP3   OH274229   0.836   4.850   5.840  0.3797 -0.5529 -0.7222
17605TIP3    H174230   0.811   4.926   5.894  1.0938 -0.4101 -0.5845
17605TIP3    H274231   0.755   4.823   5.798 -0.4498 -1.3885  1.3457
17606TIP3   OH274232   3.377   5.455   3.374 -0.5515  0.2855  0.2112
17606TIP3    H174233   3.400   5.523   3.437  1.1066  0.1917 -0.2890
17606TIP3    H274234   3.340   5.502   3.300 -2.3098  0.4112  1.1324
17607TIP3   OH274235   5.180   3.690   2.758  0.8493 -0.0045  0.1103
17607TIP3    H174236   5.212   3.770   2.802 -0.1862 -0.6396  2.0760
17607TIP3    H274237   5.188   3.710   2.665 -0.8828  3.0372  0.5235
17608TIP3   OH274238   4.694   3.450   2.493  0.1373  0.6390 -0.3335
17608TIP3    H174239   4.679   3.501   2.414 -1.4545  1.2229  0.3057
17608TIP3    H274240   4.727   3.514   2.556 -0.1459  0.5274 -0.0681
17609TIP3   OH274241   2.879   0.130   3.209  0.0142 -0.1704  0.1102
17609TIP3    H174242   2.855   0.143   3.117  0.3201 -2.2519 -0.2725
17609TIP3    H274243   2.797   0.144   3.257 -0.1335  0.9757 -0.4616
17610TIP3   OH274244   1.486   2.833  13.274  0.8693 -0.0237  0.6599
17610TIP3    H174245   1.436   2.792  13.203  1.4832  1.0748 -0.4220
17610TIP3    H274246   1.461   2.926  13.270 -0.6109 -0.2782  3.1575
17611TIP3   OH274247   0.908   6.439  11.396 -0.3636 -0.2347 -0.6656
17611TIP3    H174248   0.994   6.468  11.428 -0.1553 -2.0313  0.5070
17611TIP3    H274249   0.855   6.518  11.393  0.3438  0.3927  1.8793
17612TIP3   OH274250   4.469   4.144  15.179 -0.2259  0.0684 -0.0690
17612TIP3    H174251   4.427   4.229  15.190 -1.5408 -0.5330 -0.2726
17612TIP3    H274252   4.400   4.081  15.201  0.5129 -0.9477 -0.6355
17613TIP3   OH274253   0.146   3.688   5.597  0.1066 -0.1176  0.5747
17613TIP3    H174254   0.088   3.764   5.590 -0.8430 -0.8582  0.1509
17613TIP3    H274255   0.087   3.616   5.618  0.6784 -1.1553 -1.2319
17614TIP3   OH274256   4.556   0.953   4.560 -0.0312 -0.2327  0.8762
17614TIP3    H174257   4.532   0.863   4.584  0.8708 -0.8823 -0.6181
17614TIP3    H274258   4.481   0.985   4.509 -0.8382  0.2683  2.3450
17615TIP3   OH274259   2.662   0.031   3.386 -0.5925  0.2575  0.3237
17615TIP3    H174260   2.612   0.097   3.433 -2.7436 -1.1859  0.1235
17615TIP3    H274261   2.720  -0.007   3.452 -1.1109  0.6220  0.9954
17616TIP3   OH274262   4.727   0.470  17.211 -0.4260  0.2950 -0.0839
17616TIP3    H174263   4.729   0.524  17.132 -0.4871 -0.8876 -0.9024
17616TIP3    H274264   4.818   0.463  17.238 -0.1234 -1.3693 -1.4855
17617TIP3   OH274265   4.657   0.910  12.950 -0.1792  0.2369 -0.3335
17617TIP3    H174266   4.750   0.931  12.949 -0.3587  1.0789 -1.5661
17617TIP3    H274267   4.626   0.936  12.863 -1.8656  1.3987  0.5857
17618TIP3   OH274268   0.010   0.916   0.978  0.2935 -0.6032  0.3326
17618TIP3    H174269  -0.005   0.891   1.069  1.6766 -1.6419  0.2843
17618TIP3    H274270  -0.036   0.999   0.968  2.2542  0.8066  2.6829
17619TIP3   OH274271   4.871   6.549  12.539  0.0506 -0.5453 -0.0259
17619TIP3    H174272   4.885   6.612  12.611 -0.1802 -1.4724  0.8382
17619TIP3    H274273   4.946   6.491  12.543 -0.3080 -1.0180 -0.1000
17620TIP3   OH274274   3.008   5.177   4.158 -0.1210 -0.0990 -0.6074
17620TIP3    H174275   3.094   5.138   4.176 -0.1543 -0.9578 -2.2548
17620TIP3    H274276   3.024   5.237   4.085 -0.6698  0.7403 -0.0429
17621TIP3   OH274277   4.391   2.571   3.862 -0.3788 -0.1652  0.2127
17621TIP3    H174278   4.450   2.592   3.790 -1.8828  0.3669 -0.8882
17621TIP3    H274279   4.384   2.652   3.912  0.3561 -0.4269  0.7602
17622TIP3   OH274280   1.298   1.084  12.024  0.5710  0.5604 -0.7174
17622TIP3    H174281   1.356   1.159  12.034  0.8100  0.5888 -2.1700
17622TIP3    H274282   1.227   1.117  11.969 -0.2854  0.2264  0.1632
17623TIP3   OH274283   4.873   3.372  12.904  0.2254 -0.1842 -0.8637
17623TIP3    H174284   4.920   3.408  12.829  0.4078 -1.7396 -1.5063
17623TIP3    H274285   4.804   3.318  12.866 -0.2655 -0.2477  0.0864
17624TIP3   OH274286   4.550   6.122  14.711 -0.1844 -0.0563 -0.0705
17624TIP3    H174287   4.612   6.090  14.645  0.6358 -1.0202  1.1545
17624TIP3    H274288   4.492   6.048  14.728  0.4243 -0.2367  1.2548
17625TIP3   OH274289   2.103   1.030  15.644  0.1572  0.5112 -0.6231
17625TIP3    H174290   2.196   1.046  15.660  0.0808 -0.3812  0.7342
17625TIP3    H274291   2.059   1.059  15.723 -0.5071 -1.0092 -0.4085
17626TIP3   OH274292   0.512   5.008   2.669  0.6512 -0.2269  0.2364
17626TIP3    H174293   0.600   5.037   2.645  1.3128 -0.6301  2.1051
17626TIP3    H274294   0.518   4.913   2.671 -0.2564 -0.3286 -1.1421
17627TIP3   OH274295   0.967   3.220   5.852  1.1445  0.2195 -0.0829
17627TIP3    H174296   0.996   3.142   5.806  0.1899  1.2377 -2.4706
17627TIP3    H274297   1.043   3.279   5.850  0.3109  1.2811 -2.7329
17628TIP3   OH274298   3.254   1.788   4.146  0.1135  0.1947  0.7245
17628TIP3    H174299   3.252   1.715   4.084 -0.7842  0.2164  0.7355
17628TIP3    H274300   3.342   1.824   4.136  0.4843 -0.7355  0.5445
17629TIP3   OH274301   2.532   2.758   2.728 -0.4866 -0.2934 -0.1239
17629TIP3    H174302   2.454   2.704   2.743 -0.1271 -0.1838  2.3107
17629TIP3    H274303   2.605   2.698   2.739 -0.1212  0.4188  1.4456
17630TIP3   OH274304   3.307   6.738   5.894  0.5196 -0.1587 -0.2953
17630TIP3    H174305   3.338   6.703   5.810 -0.3849  0.2580 -0.7994
17630TIP3    H274306   3.290   6.830   5.877  0.2203 -0.0997  0.3244
17631TIP3   OH274307   0.730   2.306   1.120  0.1145  0.1789 -0.4322
17631TIP3    H174308   0.652   2.294   1.173 -0.1156 -0.0808 -0.8243
17631TIP3    H274309   0.698   2.342   1.037  0.5305  1.1113 -0.1905
17632TIP3   OH274310   5.934   6.199  12.160  0.4258 -0.1259  0.0259
17632TIP3    H174311   5.924   6.287  12.121 -1.6203  0.0861  0.9662
17632TIP3    H274312   5.956   6.143  12.086  1.3298  1.1079 -0.6600
17633TIP3   OH274313   6.199   3.079  17.047  0.3406  0.5851  0.2132
17633TIP3    H174314   6.264   3.113  17.108 -0.8042  1.1247  1.1725
17633TIP3    H274315   6.240   3.002  17.009  1.2703  0.5098  1.3241
17634TIP3   OH274316   5.793   5.363   2.252 -0.5448  0.7535  0.0330
17634TIP3    H174317   5.761   5.452   2.269 -0.2089  0.8677  0.0763
17634TIP3    H274318   5.882   5.375   2.219 -0.6913  0.4589 -0.4732
17635TIP3   OH274319   3.064   3.297   6.418 -0.2211  0.6312  0.7168
17635TIP3    H174320   2.979   3.254   6.412 -1.9199  4.0424 -1.4498
17635TIP3    H274321   3.117   3.256   6.350 -1.6478  1.5297 -0.9721
17636TIP3   OH274322   6.148   2.641  12.339 -0.5070 -0.8478  0.1684
17636TIP3    H174323   6.107   2.614  12.421  1.4470 -0.9723  1.1418
17636TIP3    H274324   6.181   2.729  12.356 -1.1978 -0.3643 -0.9086
17637TIP3   OH274325   6.414   3.626  14.419  0.3919  0.0665 -0.0793
17637TIP3    H174326   6.413   3.651  14.326 -0.4213  1.2353  0.2290
17637TIP3    H274327   6.504   3.644  14.448  0.9569 -1.3212 -0.8857
17638TIP3   OH274328   3.880   4.464   5.847  0.0908 -0.6688  0.2849
17638TIP3    H174329   3.893   4.531   5.914 -1.9770  0.0259  0.0164
17638TIP3    H274330   3.793   4.428   5.864 -0.1572 -0.9983 -1.5556
17639TIP3   OH274331   0.997   3.092  12.186 -0.0477 -0.1576 -0.4079
17639TIP3    H174332   0.943   3.033  12.133 -0.4222 -1.1229  1.0206
17639TIP3    H274333   1.017   3.165  12.127  0.5833 -1.7855 -2.2860
17640TIP3   OH274334   5.817   2.359  14.901 -0.1100  0.2549 -0.0230
17640TIP3    H174335   5.727   2.391  14.902 -0.0580  0.4834 -1.2304
17640TIP3    H274336   5.818   2.296  14.829  0.8062  0.5805 -0.3004
17641TIP3   OH274337   5.365   2.483   6.465 -0.4267  0.6215  0.3512
17641TIP3    H174338   5.276   2.468   6.495  0.8678 -1.5790  3.3467
17641TIP3    H274339   5.396   2.558   6.515  1.1733 -2.0113  3.4613
17642TIP3   OH274340   5.275   2.904  13.186 -0.1642 -0.5370 -0.6229
17642TIP3    H174341   5.270   2.815  13.221 -0.4221 -0.0849  0.5164
17642TIP3    H274342   5.275   2.893  13.091 -0.9679 -1.7075 -0.4915
17643TIP3   OH274343   0.804   6.438   2.172  0.7893  0.1290  0.4997
17643TIP3    H174344   0.764   6.382   2.106  1.3536  1.0060 -0.6144
17643TIP3    H274345   0.896   6.413   2.172  0.0491 -2.9344  4.1366
17644TIP3   OH274346   0.358   1.839   5.817 -0.0853 -0.0477 -0.0342
17644TIP3    H174347   0.274   1.823   5.774 -1.2106  1.7807  1.4140
17644TIP3    H274348   0.373   1.761   5.870 -2.8026  1.1793  2.6911
17645TIP3   OH274349   2.820   2.430  15.240  0.4273 -0.3286 -0.1579
17645TIP3    H174350   2.724   2.424  15.243  0.3053  1.8103  3.0270
17645TIP3    H274351   2.849   2.395  15.324  2.2459  1.6872  0.1010
17646TIP3   OH274352   0.326   3.156  16.048  0.4403  0.1768  0.1419
17646TIP3    H174353   0.405   3.104  16.064  0.1343 -0.0036  1.1590
17646TIP3    H274354   0.294   3.126  15.963  0.0528 -1.6210  0.8784
17647TIP3   OH274355   3.217   4.565  12.906 -0.0397  0.7825  0.5574
17647TIP3    H174356   3.274   4.495  12.876 -2.8211 -1.1898 -0.3634
17647TIP3    H274357   3.247   4.643  12.859  2.8110  0.1393  1.2631
17648TIP3   OH274358   2.462   6.460   4.400  0.1179  0.0437  0.0956
17648TIP3    H174359   2.422   6.519   4.337  0.8026  0.1667 -0.2265
17648TIP3    H274360   2.548   6.498   4.417 -0.2501  0.2888  1.4861
17649TIP3   OH274361   3.198   6.116   2.928  0.2147  0.0870 -0.7515
17649TIP3    H174362   3.278   6.152   2.965  0.4297  0.5640 -1.6721
17649TIP3    H274363   3.182   6.036   2.978  2.2631 -1.0022 -1.7613
17650TIP3   OH274364   4.127   2.239  10.499  0.4997  0.0932 -0.1297
17650TIP3    H174365   4.159   2.154  10.528  2.5786  0.7517 -0.3771
17650TIP3    H274366   4.140   2.239  10.404  0.0254  0.4922 -0.1982
17651TIP3   OH274367   1.594   2.424  16.767 -0.2008  0.3150 -0.0321
17651TIP3    H174368   1.644   2.503  16.786 -0.8002  0.2583  1.8413
17651TIP3    H274369   1.647   2.353  16.803 -1.0718  0.1477  0.9253
17652TIP3   OH274370   5.767   6.647   5.460  0.3673 -0.2960  0.4208
17652TIP3    H174371   5.728   6.647   5.547  0.5844 -2.6636  0.5674
17652TIP3    H274372   5.716   6.583   5.411  0.9823  0.1589 -0.8459
17653TIP3   OH274373   2.663   2.878   6.253 -0.2467 -0.0149  0.0265
17653TIP3    H174374   2.709   2.909   6.331 -0.2527 -0.7616  0.3338
17653TIP3    H274375   2.641   2.957   6.205  1.2899  0.3615 -0.0765
17654TIP3   OH274376   6.229   6.111  13.084 -0.0185 -0.5282  0.6972
17654TIP3    H174377   6.208   6.065  13.003  1.8877 -1.2409  0.5655
17654TIP3    H274378   6.228   6.203  13.060 -0.3204 -0.6902  0.0658
17655TIP3   OH274379   1.164   4.489  11.994  0.7823  0.1200  0.0921
17655TIP3    H174380   1.258   4.474  12.004  0.7280 -0.5618 -0.3510
17655TIP3    H274381   1.125   4.448  12.071  0.9133  1.1702  0.7226
17656TIP3   OH274382   1.352   3.544   5.016 -0.6734 -0.2100 -0.0805
17656TIP3    H174383   1.351   3.463   5.066  3.3039 -0.0660  0.4414
17656TIP3    H274384   1.367   3.516   4.925 -0.4562 -0.1246 -0.0718
17657TIP3   OH274385   6.545   6.429   2.817 -0.6304 -0.0272  0.3591
17657TIP3    H174386   6.517   6.389   2.899  1.7631 -0.4894  0.9892
17657TIP3    H274387   6.639   6.441   2.827  0.1383 -2.3561 -3.2960
17658TIP3   OH274388   1.039   1.752   5.564 -0.1423  0.2910  0.5172
17658TIP3    H174389   1.078   1.784   5.483 -0.1871 -0.0322  0.3687
17658TIP3    H274390   0.948   1.783   5.560 -0.1656  0.2115  0.4064
17659TIP3   OH274391   4.731   2.815  13.785 -0.1961  0.1948 -0.5726
17659TIP3    H174392   4.677   2.738  13.804  0.2200  0.2465  0.8045
17659TIP3    H274393   4.679   2.866  13.723 -0.4945 -1.1676 -1.4820
17660TIP3   OH274394   5.408   6.279  14.543 -0.0857 -0.6824  0.3453
17660TIP3    H174395   5.427   6.269  14.636  0.1061 -1.0779  0.2645
17660TIP3    H274396   5.477   6.230  14.498  0.4422  0.4111 -0.0453
17661TIP3   OH274397   1.550   1.650   4.327  0.8518  0.3046 -0.6254
17661TIP3    H174398   1.583   1.724   4.277  1.5140  0.6423  0.2933
17661TIP3    H274399   1.516   1.689   4.408 -1.7396 -0.0359 -1.4889
17662TIP3   OH274400   1.553   1.276   2.632  0.0250  0.3579 -0.1749
17662TIP3    H174401   1.617   1.279   2.703  1.3475 -0.9897 -1.2909
17662TIP3    H274402   1.503   1.196   2.648  0.0717  0.2550 -0.5391
17663TIP3   OH274403   0.808   4.596  11.265  0.7056  0.0117  0.0648
17663TIP3    H174404   0.801   4.676  11.317 -1.7349 -0.9533  1.3065
17663TIP3    H274405   0.744   4.608  11.195  1.3529 -0.2560 -0.5724
17664TIP3   OH274406   5.240   2.743  14.349 -0.5095 -0.1759 -0.3376
17664TIP3    H174407   5.287   2.664  14.323 -1.6757 -0.5049 -1.4938
17664TIP3    H274408   5.294   2.781  14.419  0.4950 -1.5296 -0.3546
17665TIP3   OH274409   1.809   3.142  14.435 -0.3371 -0.2597  0.2048
17665TIP3    H174410   1.881   3.169  14.491  0.4475  0.7095 -1.2277
17665TIP3    H274411   1.736   3.127  14.495  0.6770  0.0276  1.5416
17666TIP3   OH274412   1.264   1.524  12.019 -0.3778 -0.7385 -0.3408
17666TIP3    H174413   1.282   1.501  12.110  1.1209 -2.6933 -1.1037
17666TIP3    H274414   1.350   1.545  11.982 -0.9904  0.1691 -1.2939
17667TIP3   OH274415   1.166   2.163   0.290  0.1392 -0.3336 -0.3304
17667TIP3    H174416   1.135   2.077   0.319  1.0580 -0.5583 -0.0079
17667TIP3    H274417   1.185   2.152   0.197 -2.4900  0.2976 -0.9952
17668TIP3   OH274418   1.549   5.850  11.342  0.1853  0.7786  0.2909
17668TIP3    H174419   1.603   5.910  11.292 -0.2031  0.9539  0.0793
17668TIP3    H274420   1.528   5.779  11.281  0.6951  0.3966  0.5590
17669TIP3   OH274421   1.900   0.102   5.588 -0.7771  0.2522 -0.0703
17669TIP3    H174422   1.856   0.178   5.550 -0.4980  0.0376 -0.8108
17669TIP3    H274423   1.908   0.040   5.516 -0.9185 -0.4468  0.5115
17670TIP3   OH274424   5.040   2.509  11.545 -0.3706 -0.1005  0.4838
17670TIP3    H174425   5.058   2.416  11.532  0.2666 -0.5537  4.0330
17670TIP3    H274426   4.955   2.524  11.503 -1.5095 -2.7725  1.7679
17671TIP3   OH274427   2.739   0.365  16.488  0.6794 -0.5596 -0.3757
17671TIP3    H174428   2.778   0.452  16.480  1.5305 -0.8341  0.5493
17671TIP3    H274429   2.813   0.305  16.477  0.1955 -1.1420 -0.4538
17672TIP3   OH274430   5.085   5.068  12.175  0.3471  0.2629 -0.2104
17672TIP3    H174431   5.084   5.148  12.122 -0.1189 -0.5290 -1.4255
17672TIP3    H274432   5.115   5.000  12.114 -0.5939 -0.7393  0.4399
17673TIP3   OH274433   4.293   3.125  12.186  0.3717 -0.1445 -0.0533
17673TIP3    H174434   4.237   3.162  12.118  1.5574  2.3036  0.2603
17673TIP3    H274435   4.368   3.090  12.138 -0.0823 -0.8969 -0.2263
17674TIP3   OH274436   5.823   3.188  13.859 -0.2094  0.4330  0.1670
17674TIP3    H174437   5.917   3.169  13.855 -0.0044  1.4472  0.0352
17674TIP3    H274438   5.788   3.122  13.919  0.6395  0.2657  0.4905
17675TIP3   OH274439   6.297   2.574  15.740  0.8162 -0.0621 -0.0358
17675TIP3    H174440   6.215   2.573  15.789  1.5113 -1.2615  1.1239
17675TIP3    H274441   6.274   2.543  15.652 -0.1555  0.6417 -0.0308
17676TIP3   OH274442   3.771   2.590   0.225 -0.2810 -0.0657  0.2148
17676TIP3    H174443   3.865   2.600   0.211 -0.2078 -0.1023  0.6627
17676TIP3    H274444   3.740   2.543   0.148  0.2392 -0.9448  0.5211
17677TIP3   OH274445   3.146   0.100   3.014 -0.0280  0.3477  0.0082
17677TIP3    H174446   3.183   0.015   2.989 -0.4982  0.3497 -0.7045
17677TIP3    H274447   3.104   0.083   3.099  2.3633  0.5624  1.2797
17678TIP3   OH274448   6.716   1.790   0.548 -0.5745  0.1388  0.0964
17678TIP3    H174449   6.762   1.830   0.622 -0.4264 -0.1496  0.1608
17678TIP3    H274450   6.771   1.808   0.473 -1.9493  2.6116 -0.3717
17679TIP3   OH274451   4.767   1.596  14.818 -0.0716  0.9580 -0.7528
17679TIP3    H174452   4.767   1.584  14.723  1.2620  0.9726 -0.7510
17679TIP3    H274453   4.788   1.509  14.853 -1.7238  0.6664 -0.4217
17680TIP3   OH274454   1.254   6.497  16.679 -0.1754  0.1266  0.3730
17680TIP3    H174455   1.297   6.509  16.763  0.3797 -1.2421  0.2939
17680TIP3    H274456   1.165   6.529  16.693  0.9030  3.3006  0.4273
17681TIP3   OH274457   0.685   2.001  16.105 -0.1380  0.3824 -0.2023
17681TIP3    H174458   0.620   1.989  16.036  0.7284  0.5782 -1.0538
17681TIP3    H274459   0.690   1.915  16.148 -0.6106  0.2398 -0.4221
17682TIP3   OH274460   0.161   0.583   4.352  0.7046 -0.4810  0.2343
17682TIP3    H174461   0.117   0.504   4.322  0.8754 -0.7907  0.7855
17682TIP3    H274462   0.187   0.629   4.272  2.7170 -2.1569 -0.0903
17683TIP3   OH274463   4.734   3.937   5.981 -0.0099 -0.6166  0.1002
17683TIP3    H174464   4.762   3.879   6.051 -1.5324  1.5157  2.5701
17683TIP3    H274465   4.756   4.025   6.012 -3.4917  0.6117 -0.6809
17684TIP3   OH274466   4.753   5.807   1.535  0.3657  0.0267 -0.1875
17684TIP3    H174467   4.768   5.876   1.599  0.3907 -0.6553  0.5425
17684TIP3    H274468   4.688   5.749   1.576 -0.7325  0.3773 -1.3693
17685TIP3   OH274469   2.482   2.449   1.052  0.4904 -0.4013 -0.0611
17685TIP3    H174470   2.506   2.432   1.142 -1.5019  0.6889  0.7208
17685TIP3    H274471   2.461   2.543   1.050 -2.3859 -0.9939 -0.8956
17686TIP3   OH274472   4.132   1.808  10.512  0.2072  0.1242 -0.1685
17686TIP3    H174473   4.069   1.737  10.495  1.0502 -0.7134  0.1581
17686TIP3    H274474   4.093   1.885  10.470 -1.1336 -0.3354  0.1894
17687TIP3   OH274475   5.204   0.608  13.245  0.4538 -0.1928 -0.6088
17687TIP3    H174476   5.191   0.626  13.338  0.0734 -0.5268 -0.5915
17687TIP3    H274477   5.205   0.512  13.240  1.0682 -0.1691 -0.8674
17688TIP3   OH274478   6.554   3.433  15.938  0.3322 -0.6845  0.3068
17688TIP3    H174479   6.542   3.349  15.982  0.2361  0.0433  1.6889
17688TIP3    H274480   6.612   3.413  15.864  0.0609 -2.0166  0.4425
17689TIP3   OH274481   4.775   3.376  11.647 -0.1386 -0.2834 -0.1785
17689TIP3    H174482   4.805   3.320  11.575  0.2697 -1.4132  0.8590
17689TIP3    H274483   4.816   3.339  11.725 -1.8606 -0.0491  0.8663
17690TIP3   OH274484   6.338   1.258  16.150 -0.1928 -0.2963  0.2971
17690TIP3    H174485   6.317   1.184  16.094  0.4089  0.1312 -0.5204
17690TIP3    H274486   6.375   1.323  16.090 -0.3439  0.5050  1.0582
17691TIP3   OH274487   5.250   3.039  16.143 -0.4496 -0.1461  0.0014
17691TIP3    H174488   5.170   2.991  16.121  0.3391 -1.6120  0.2277
17691TIP3    H274489   5.265   3.017  16.235  0.1913  0.1625 -0.0349
17692TIP3   OH274490   4.483   4.793   2.791 -0.3724 -0.4971 -0.1972
17692TIP3    H174491   4.559   4.837   2.829  0.8641 -2.2579 -0.5856
17692TIP3    H274492   4.410   4.817   2.848  0.8266 -0.3309  1.2855
17693TIP3   OH274493   6.292   6.532   1.888  0.7061  0.4122 -0.2877
17693TIP3    H174494   6.206   6.559   1.857  0.3442 -2.3969 -1.8823
17693TIP3    H274495   6.284   6.529   1.983 -0.5158  1.4930 -0.3457
17694TIP3   OH274496   5.295   2.852  13.878 -0.1343  0.0155  0.0535
17694TIP3    H174497   5.251   2.893  13.952 -1.6787  0.3238 -1.0143
17694TIP3    H274498   5.252   2.889  13.801  0.3600 -1.4988 -0.9775
17695TIP3   OH274499   4.526   4.270   0.407 -0.3912 -0.5573  0.3918
17695TIP3    H174500   4.432   4.250   0.408 -0.6321  0.3612 -1.0821
17695TIP3    H274501   4.531   4.353   0.360  1.0315  0.1983  1.8676
17696TIP3   OH274502   5.388   6.262  16.716 -0.2814 -0.0640  0.8376
17696TIP3    H174503   5.325   6.332  16.700 -1.2522 -1.1124  0.0081
17696TIP3    H274504   5.335   6.188  16.747  0.3883 -1.2883 -0.8387
17697TIP3   OH274505   4.940   1.164  12.492 -0.0312  0.0471 -0.1435
17697TIP3    H174506   4.993   1.198  12.564 -1.2454 -0.7236  1.1415
17697TIP3    H274507   5.004   1.129  12.430  0.9963 -0.0744  0.9632
17698TIP3   OH274508   1.588   0.731   0.468 -0.6924 -0.2495 -0.4264
17698TIP3    H174509   1.517   0.731   0.533  0.7981  0.8448  1.2676
17698TIP3    H274510   1.654   0.673   0.506  0.6723  1.2905 -0.3852
17699TIP3   OH274511   5.728   4.381  16.543 -0.6366  0.0755  0.7289
17699TIP3    H174512   5.814   4.400  16.506 -1.5950 -0.7789 -2.0402
17699TIP3    H274513   5.739   4.395  16.638  1.8067  2.6538  0.1478
17700TIP3   OH274514   4.331   1.004  14.413 -0.5413 -0.5236 -0.1477
17700TIP3    H174515   4.339   0.913  14.387 -1.0530  0.1484 -2.8607
17700TIP3    H274516   4.240   1.013  14.442 -0.4312 -0.9224  0.3223
17701TIP3   OH274517   2.678   1.380   1.006 -0.0423 -0.0772 -0.0577
17701TIP3    H174518   2.755   1.435   0.994  0.9396 -1.1895  1.1292
17701TIP3    H274519   2.650   1.359   0.916  0.5851  0.9191 -0.5006
17702TIP3   OH274520   0.674   5.368  16.514 -0.0340 -0.0130  0.0114
17702TIP3    H174521   0.583   5.341  16.522 -0.0683  0.5266  1.4980
17702TIP3    H274522   0.708   5.318  16.439 -1.5830 -0.1023 -0.6331
17703TIP3   OH274523   6.456   5.207   5.138  0.1982 -0.5310  0.1274
17703TIP3    H174524   6.531   5.249   5.096 -0.4045  0.9263  0.4519
17703TIP3    H274525   6.380   5.255   5.104 -0.4524 -0.7899  1.1855
17704TIP3   OH274526   5.826   5.957  13.788  0.2147 -0.4467 -0.2239
17704TIP3    H174527   5.798   6.048  13.778  0.7591 -0.2846 -0.3396
17704TIP3    H274528   5.770   5.907  13.729 -0.4892 -0.2621  0.2892
17705TIP3   OH274529   2.976   0.009  13.260 -0.4627  0.0737  0.3796
17705TIP3    H174530   2.959  -0.080  13.292  0.9397  0.0317  1.0587
17705TIP3    H274531   2.958   0.004  13.166 -0.1737 -0.9871  0.3762
17706TIP3   OH274532   5.080   2.459   5.787 -0.5929 -0.2094 -0.3337
17706TIP3    H174533   5.012   2.481   5.723  0.3596 -1.9190 -1.9927
17706TIP3    H274534   5.067   2.365   5.805 -0.2967  0.0506  1.3152
17707TIP3   OH274535   6.732   0.183  16.601 -0.3487  0.0273  0.2466
17707TIP3    H174536   6.637   0.190  16.598 -0.2989  1.1758  1.2662
17707TIP3    H274537   6.764   0.265  16.565  0.2748 -0.4727 -0.3718
17708TIP3   OH274538   6.688   1.875  13.612  0.6334 -0.2747  0.4276
17708TIP3    H174539   6.658   1.896  13.523  1.1135  1.2723  0.6136
17708TIP3    H274540   6.679   1.957  13.660  3.0072 -0.3564  1.0830
17709TIP3   OH274541   4.221   1.139   2.571  0.2335  0.2761  0.3149
17709TIP3    H174542   4.312   1.166   2.578  0.1443  0.3643  1.1354
17709TIP3    H274543   4.192   1.124   2.661 -1.0147  1.7910  0.1972
17710TIP3   OH274544   0.640   6.600  16.791  0.5750 -0.3164  0.9690
17710TIP3    H174545   0.557   6.613  16.839  0.1169  1.8780 -0.3501
17710TIP3    H274546   0.707   6.638  16.848  0.5132 -1.0055  1.5009
17711TIP3   OH274547   6.357   1.416  16.910  0.1108  0.0284  0.0814
17711TIP3    H174548   6.447   1.388  16.924  0.1206 -0.5359 -1.0456
17711TIP3    H274549   6.307   1.378  16.982  0.8373  0.7060  0.9570
17712TIP3   OH274550   4.858   2.833   4.087  0.7497  0.5420 -0.4746
17712TIP3    H174551   4.873   2.922   4.118  1.2886 -0.0480  0.9780
17712TIP3    H274552   4.941   2.806   4.049  1.0134  0.1562  0.3641
17713TIP3   OH274553   0.654   3.549   4.874 -0.7291 -0.0584 -0.2443
17713TIP3    H174554   0.696   3.488   4.934  0.0626 -0.6813 -1.4047
17713TIP3    H274555   0.725   3.607   4.846 -0.4494 -1.5670 -2.7787
17714TIP3   OH274556   5.821   5.949  12.585  0.4739 -0.3983 -0.4391
17714TIP3    H174557   5.803   5.879  12.522  2.5719 -1.5568  0.1781
17714TIP3    H274558   5.870   6.014  12.535  0.8804 -0.6545 -0.3846
17715TIP3   OH274559   4.960   2.691  13.980 -0.1122  0.0723 -0.0593
17715TIP3    H174560   5.008   2.774  13.982  2.1566 -1.1785 -0.5598
17715TIP3    H274561   4.952   2.670  13.887 -0.5504 -0.3474  0.0733
17716TIP3   OH274562   0.663   1.110  11.521  0.1760 -0.0015 -0.1682
17716TIP3    H174563   0.677   1.076  11.432  0.0380 -1.0654  0.2076
17716TIP3    H274564   0.750   1.116  11.559  0.4368  2.4162 -1.0622
17717TIP3   OH274565   4.861   1.828  14.941 -0.0967  0.4201 -0.1885
17717TIP3    H174566   4.926   1.839  14.871 -1.2294 -1.0454 -1.4970
17717TIP3    H274567   4.814   1.748  14.918 -0.3122 -0.2342  2.4106
17718TIP3   OH274568   2.491   2.234   1.882  0.1871 -0.5784 -0.0494
17718TIP3    H174569   2.413   2.249   1.936 -0.2735  0.1795 -0.9138
17718TIP3    H274570   2.564   2.256   1.940 -0.3062  0.2527  0.2769
17719TIP3   OH274571   1.800   1.587  14.233 -0.0573 -0.0701  0.2824
17719TIP3    H174572   1.815   1.674  14.270 -1.5891  0.7613 -0.9958
17719TIP3    H274573   1.706   1.572  14.245  0.1929 -1.5816  0.5225
17720TIP3   OH274574   3.086   1.442   2.204  1.0491  0.4293  0.7736
17720TIP3    H174575   3.073   1.499   2.129  2.4328 -0.2835 -0.0198
17720TIP3    H274576   3.137   1.494   2.266  2.2333  0.1165  0.0869
17721TIP3   OH274577   1.258   2.237  11.637  0.1834  0.0166 -0.3513
17721TIP3    H174578   1.319   2.283  11.696  0.6912 -1.9379  0.6751
17721TIP3    H274579   1.216   2.171  11.692 -0.5379 -0.7535 -1.8067
17722TIP3   OH274580   0.247   4.284   3.118 -0.3092  0.9698  0.1516
17722TIP3    H174581   0.315   4.282   3.186 -1.4468 -0.1933  1.2709
17722TIP3    H274582   0.201   4.201   3.128  0.1378  0.3433 -2.7092
17723TIP3   OH274583   1.022   2.560   3.534 -0.5384  0.4215 -0.2480
17723TIP3    H174584   1.108   2.561   3.490  0.0625  1.0672  0.9308
17723TIP3    H274585   1.018   2.643   3.582 -0.4748 -0.9887  2.2874
17724TIP3   OH274586   3.116   5.301   2.959  0.3042 -0.3009 -0.1009
17724TIP3    H174587   3.066   5.228   2.922 -1.4611  1.0222 -0.3923
17724TIP3    H274588   3.207   5.283   2.934 -0.4207 -1.1660 -2.2163
17725TIP3   OH274589   6.172   5.343   5.530 -0.3397 -0.4338 -0.1332
17725TIP3    H174590   6.102   5.407   5.516  0.3642  0.0630 -1.4814
17725TIP3    H274591   6.208   5.365   5.616 -0.0119  1.0727 -0.6516
17726TIP3   OH274592   5.501   6.034  11.324  0.3014 -0.4760  0.0081
17726TIP3    H174593   5.551   5.953  11.328 -0.2340 -0.9573 -2.2407
17726TIP3    H274594   5.427   6.014  11.267  0.1698  1.5993 -0.6140
17727TIP3   OH274595   4.706   6.432   0.131 -0.5302 -0.1215  0.4767
17727TIP3    H174596   4.699   6.527   0.142  3.0642  0.3238 -0.4430
17727TIP3    H274597   4.758   6.403   0.205  0.8567 -0.9351 -0.7882
17728TIP3   OH274598   3.043   0.040   3.396 -0.0828  0.3834 -0.2475
17728TIP3    H174599   2.988   0.064   3.322 -0.0411  3.1536  0.5786
17728TIP3    H274600   2.982   0.035   3.470  0.0596 -1.2586 -0.2067
17729TIP3   OH274601   3.436   0.189   2.761  0.3760  0.6645  0.6275
17729TIP3    H174602   3.460   0.130   2.690 -0.7521  0.5532  0.3352
17729TIP3    H274603   3.426   0.132   2.838 -1.3984  0.3578  0.1936
17730TIP3   OH274604   2.362   3.276   1.368  0.1271 -0.0583 -0.3410
17730TIP3    H174605   2.340   3.351   1.423  2.0263  0.0357  0.3169
17730TIP3    H274606   2.342   3.306   1.279 -0.6103  0.6699  0.0609
17731TIP3   OH274607   3.376   1.066   1.281  0.1237  0.4162 -0.1014
17731TIP3    H174608   3.382   1.157   1.311  1.8087  0.1418  0.4416
17731TIP3    H274609   3.336   1.073   1.194  0.8236  1.7458 -0.3408
17732TIP3   OH274610   0.481   3.540  15.724 -0.2025 -0.7836 -0.6217
17732TIP3    H174611   0.491   3.490  15.643 -1.8596  0.1518 -1.4290
17732TIP3    H274612   0.507   3.630  15.701  1.2272 -0.9061  0.4066
17733TIP3   OH274613   3.675   6.757  14.535  0.4594  0.0746  0.2408
17733TIP3    H174614   3.627   6.775  14.616 -1.9092 -1.7554 -0.7147
17733TIP3    H274615   3.683   6.843  14.492 -0.5018  0.6423  1.1926
17734TIP3   OH274616   3.965   2.191  11.251  0.0663 -0.1935  0.1194
17734TIP3    H174617   3.881   2.157  11.221  0.0269 -0.2854  0.3347
17734TIP3    H274618   3.990   2.254  11.184  0.4003 -1.0422 -0.5720
17735TIP3   OH274619   0.572   0.333   1.930 -0.4774  0.3482 -0.0500
17735TIP3    H174620   0.508   0.389   1.974 -0.3568  0.3884  0.0774
17735TIP3    H274621   0.656   0.377   1.945 -0.3357 -0.0561  0.3647
17736TIP3   OH274622   4.962   1.669   3.396 -0.1353 -0.3491  0.3877
17736TIP3    H174623   5.000   1.737   3.339  2.1181  0.1757  2.4416
17736TIP3    H274624   4.871   1.695   3.406  0.0399  0.9039 -0.9782
17737TIP3   OH274625   1.853   2.813   4.853  0.2412 -0.0030 -0.1693
17737TIP3    H174626   1.803   2.768   4.785  0.9594  0.7140 -1.1954
17737TIP3    H274627   1.790   2.831   4.922 -0.7434  0.2343 -1.1269
17738TIP3   OH274628   2.456   5.194   5.483  0.4093 -0.2796  0.5020
17738TIP3    H174629   2.522   5.241   5.432  1.4504 -0.9355  1.2602
17738TIP3    H274630   2.395   5.160   5.417  1.0697 -0.0607 -0.2207
17739TIP3   OH274631   5.738   4.935   2.545 -0.1079  0.2980 -0.8352
17739TIP3    H174632   5.734   5.028   2.523 -1.7352  0.2318 -0.9077
17739TIP3    H274633   5.650   4.903   2.527  0.6267 -1.4133 -1.4404
17740TIP3   OH274634   4.136   3.295  12.335  0.5615  0.7439  1.0666
17740TIP3    H174635   4.047   3.264  12.322  0.3705  0.9473  1.8352
17740TIP3    H274636   4.191   3.232  12.290 -0.0718  1.5927 -0.9345
17741TIP3   OH274637   6.161   4.677   5.822 -0.3889 -0.1003 -0.1164
17741TIP3    H174638   6.247   4.652   5.787  0.4292  0.6750  1.2974
17741TIP3    H274639   6.137   4.604   5.880 -0.5429 -0.1678 -0.2654
17742TIP3   OH274640   1.121   6.079   2.710  0.0454  0.5229 -0.1878
17742TIP3    H174641   1.187   6.036   2.656  0.0812  1.3274 -0.7935
17742TIP3    H274642   1.045   6.089   2.653 -0.5993 -0.3689  0.4963
17743TIP3   OH274643   3.337   4.788  16.984  0.1128 -0.1293 -0.2210
17743TIP3    H174644   3.263   4.773  17.043  1.2685  0.1508  1.3407
17743TIP3    H274645   3.299   4.830  16.907 -1.4168 -0.4168  0.3722
17744TIP3   OH274646   0.794   1.635  17.203 -0.2117 -0.3141  0.0616
17744TIP3    H174647   0.839   1.648  17.120 -1.6120 -0.4326 -0.7220
17744TIP3    H274648   0.765   1.722  17.228  0.4090 -0.2416  0.5598
17745TIP3   OH274649   4.646   6.508   4.367 -0.4857 -0.0318 -1.1586
17745TIP3    H174650   4.627   6.473   4.280  0.2167  1.1980 -1.8211
17745TIP3    H274651   4.629   6.435   4.426 -0.6213 -0.9964 -2.3610
17746TIP3   OH274652   6.273   2.977   6.666  0.3960 -0.3342 -0.1783
17746TIP3    H174653   6.206   2.941   6.609  1.2384  1.4193 -2.3151
17746TIP3    H274654   6.294   2.905   6.726 -2.6879 -1.2105 -0.0545
17747TIP3   OH274655   3.346   5.067  14.804  0.1221 -0.1037  0.5845
17747TIP3    H174656   3.359   4.993  14.744 -2.3714 -0.9043  0.9889
17747TIP3    H274657   3.285   5.124  14.759 -0.0560  0.3784  1.4428
17748TIP3   OH274658   3.397   6.648   5.074 -0.5173 -0.5657 -0.9015
17748TIP3    H174659   3.352   6.680   4.995  1.1523  0.4819 -1.4463
17748TIP3    H274660   3.423   6.728   5.121 -0.9989 -1.1781  0.4431
17749TIP3   OH274661   0.583   0.389  13.591 -0.2569 -0.8632 -0.2980
17749TIP3    H174662   0.633   0.375  13.510  0.7848 -0.3104  0.2424
17749TIP3    H274663   0.593   0.483  13.609 -0.5364 -0.9781  0.4496
17750TIP3   OH274664   4.770   3.848  12.668 -0.1873  0.0485 -0.2054
17750TIP3    H174665   4.682   3.884  12.679  0.4106  1.3559  0.4179
17750TIP3    H274666   4.796   3.820  12.756 -0.8783 -2.5374 -0.7678
17751TIP3   OH274667   4.526   1.233  16.950  0.4537  0.1208  0.0079
17751TIP3    H174668   4.559   1.313  16.992 -1.2954  0.9613 -0.1961
17751TIP3    H274669   4.520   1.255  16.857 -0.3277 -0.1524 -0.0043
17752TIP3   OH274670   6.187   0.846   3.378  0.2100 -0.1763 -0.3082
17752TIP3    H174671   6.260   0.792   3.409  0.1468  1.7079  3.3984
17752TIP3    H274672   6.116   0.783   3.364  0.8334 -1.3566  1.6276
17753TIP3   OH274673   3.929   1.822  12.435  0.5370 -1.3395  0.0320
17753TIP3    H174674   3.844   1.865  12.436  1.0107 -0.3949  0.7951
17753TIP3    H274675   3.992   1.894  12.432  1.3275 -1.9642  1.1840
17754TIP3   OH274676   0.162   2.319  13.360 -0.4127  0.0667 -0.0484
17754TIP3    H174677   0.098   2.382  13.396  0.0321  1.1822 -1.1956
17754TIP3    H274678   0.246   2.348  13.395 -0.1092  0.5598 -1.1634
17755TIP3   OH274679   1.427   3.861   6.712  0.1296  0.4649 -0.1032
17755TIP3    H174680   1.384   3.818   6.786  0.4692 -0.4249 -0.4123
17755TIP3    H274681   1.357   3.909   6.667 -0.5321 -0.9129 -0.5595
17756TIP3   OH274682   4.564   1.427  10.499 -0.0522  0.0050 -0.2239
17756TIP3    H174683   4.553   1.510  10.546 -1.4169 -0.5942  0.5605
17756TIP3    H274684   4.612   1.371  10.561 -1.7226 -0.7374  0.4408
17757TIP3   OH274685   6.613   2.152  11.233  0.0828  0.0344  0.2195
17757TIP3    H174686   6.576   2.065  11.247  0.9126 -0.5813 -1.2068
17757TIP3    H274687   6.543   2.212  11.255 -1.5650 -1.0850 -1.7116
17758TIP3   OH274688   3.425   5.891   0.158 -0.1731  0.0478 -0.7007
17758TIP3    H174689   3.390   5.921   0.074 -3.5144 -1.7010 -0.0253
17758TIP3    H274690   3.444   5.798   0.143  2.8476  0.6076 -0.5810
17759TIP3   OH274691   1.324   2.880   2.551 -0.0102 -0.1504 -0.8174
17759TIP3    H174692   1.266   2.849   2.481  0.8549 -3.0149 -0.3205
17759TIP3    H274693   1.301   2.827   2.627 -0.0993  2.0952  0.7748
17760TIP3   OH274694   1.768   4.288  14.777 -0.4368  0.1739  0.0548
17760TIP3    H174695   1.817   4.286  14.695 -0.0218  0.7044  0.2888
17760TIP3    H274696   1.677   4.303  14.751 -0.3253  0.2006 -0.3139
17761TIP3   OH274697   0.707   4.602   3.134 -0.1442 -0.3880 -0.4753
17761TIP3    H174698   0.726   4.597   3.228 -0.5295  1.2447 -0.2937
17761TIP3    H274699   0.612   4.609   3.129 -0.2552 -2.0104 -1.0814
17762TIP3   OH274700   1.617   2.207  12.613 -0.2262 -0.2976  0.3532
17762TIP3    H174701   1.633   2.133  12.672 -1.0271  0.1441  1.1379
17762TIP3    H274702   1.621   2.284  12.669  0.0466  0.2102 -0.3582
17763TIP3   OH274703   0.683   3.772   4.683 -0.5183  0.1558 -0.2449
17763TIP3    H174704   0.660   3.688   4.643  0.4966 -0.9807  1.5066
17763TIP3    H274705   0.600   3.804   4.719 -0.6465 -0.7684  0.2953
17764TIP3   OH274706   5.637   0.718   0.300  0.3148 -0.2885 -0.6256
17764TIP3    H174707   5.659   0.781   0.232 -0.1598  0.9842  0.3683
17764TIP3    H274708   5.556   0.751   0.338  1.3399 -0.1540  1.5319
17765TIP3   OH274709   0.932   6.299   2.846 -0.6510  0.2525  0.0714
17765TIP3    H174710   0.849   6.252   2.842 -0.7676  0.5333 -0.8229
17765TIP3    H274711   0.997   6.231   2.866 -0.9254 -0.1684 -0.4448
17766TIP3   OH274712   4.041   6.306   3.493 -0.2718  0.0115  0.2639
17766TIP3    H174713   4.074   6.347   3.572  0.6475  0.5578 -0.3999
17766TIP3    H274714   4.109   6.244   3.468 -0.2345  0.3601 -0.5049
17767TIP3   OH274715   0.669   5.059  15.815  0.0402  0.3304  0.0351
17767TIP3    H174716   0.734   5.101  15.871 -0.4548 -2.0991  2.5286
17767TIP3    H274717   0.585   5.081  15.856 -0.1842 -3.7867  2.0370
17768TIP3   OH274718   4.279   6.028   3.830 -0.0156  0.3158 -0.5246
17768TIP3    H174719   4.242   6.094   3.771 -0.8176 -0.4906 -0.9412
17768TIP3    H274720   4.224   6.031   3.908  0.0181  0.2148 -0.4969
17769TIP3   OH274721   2.606   5.042  10.792 -0.3001  0.2813  0.2647
17769TIP3    H174722   2.687   5.092  10.794  0.2581 -0.5776 -0.6248
17769TIP3    H274723   2.625   4.963  10.843 -0.3368 -0.2795 -0.5864
17770TIP3   OH274724   5.743   3.682  15.234  0.1079 -0.4179 -0.3593
17770TIP3    H174725   5.706   3.736  15.165  1.6350  2.3112  0.8535
17770TIP3    H274726   5.676   3.681  15.302 -0.0269 -0.2705 -0.4900
17771TIP3   OH274727   3.168   5.666  15.586  0.2989  0.0225 -0.1648
17771TIP3    H174728   3.239   5.653  15.523 -0.0272 -2.0815 -0.1259
17771TIP3    H274729   3.128   5.580  15.595 -0.0876  0.4390  2.4235
17772TIP3   OH274730   4.955   5.702   5.729  0.3788  0.2285 -0.6310
17772TIP3    H174731   4.957   5.786   5.684  0.1769  0.8335  0.4684
17772TIP3    H274732   4.865   5.672   5.721 -0.0592  1.1269  0.7844
17773TIP3   OH274733   4.629   6.019  16.432 -0.2302 -0.4293 -0.2960
17773TIP3    H174734   4.540   6.024  16.466 -0.4326  2.1489 -1.1174
17773TIP3    H274735   4.676   5.964  16.495 -2.2294 -1.2454  0.4969
17774TIP3   OH274736   6.375   5.770  16.098  0.2946  0.3062 -0.0359
17774TIP3    H174737   6.298   5.807  16.139 -0.7274 -1.7712 -0.0100
17774TIP3    H274738   6.391   5.825  16.021  0.0872  2.0299  1.1351
17775TIP3   OH274739   2.660   5.410   1.183 -0.1455 -0.0021 -0.6040
17775TIP3    H174740   2.590   5.354   1.149 -0.9279 -1.1767  2.7560
17775TIP3    H274741   2.724   5.350   1.220  0.2264  1.2141  0.7780
17776TIP3   OH274742   3.591   4.376   4.190 -0.3344  0.0856 -0.2428
17776TIP3    H174743   3.513   4.360   4.138 -0.9433  2.3196 -0.0479
17776TIP3    H274744   3.624   4.288   4.212 -0.8434 -0.8849 -3.1706
17777TIP3   OH274745   5.682   4.695   0.710 -0.0506 -0.4073 -0.4655
17777TIP3    H174746   5.708   4.706   0.619  0.0093 -0.0225 -0.4053
17777TIP3    H274747   5.728   4.765   0.757 -0.0602 -0.6193 -0.1375
17778TIP3   OH274748   2.893   3.801  14.161 -0.3326  0.0437 -0.0140
17778TIP3    H174749   2.965   3.774  14.218  0.5873  1.3891 -0.5281
17778TIP3    H274750   2.898   3.896  14.160 -1.9500  0.1343 -0.2843
17779TIP3   OH274751   3.907   4.792   2.028 -0.0506  0.2319 -0.4293
17779TIP3    H174752   3.839   4.822   1.968  0.0092 -0.1737 -0.6981
17779TIP3    H274753   3.939   4.710   1.990  0.2565  0.1742 -0.0523
17780TIP3   OH274754   3.530   5.247  15.732 -0.3320  0.6237  0.1707
17780TIP3    H174755   3.544   5.262  15.826 -0.2079  0.3258  0.2004
17780TIP3    H274756   3.496   5.158  15.727  0.3071  0.3986 -0.1301
17781TIP3   OH274757   4.613   2.355   2.894  0.1755 -0.1628 -0.0104
17781TIP3    H174758   4.553   2.282   2.877  1.5690 -1.5741  1.0383
17781TIP3    H274759   4.662   2.365   2.813 -0.8523  0.4063 -0.5668
17782TIP3   OH274760   1.687   2.777  13.463  0.0277  0.0113 -0.4261
17782TIP3    H174761   1.773   2.815  13.447 -0.1151  0.2535 -0.6292
17782TIP3    H274762   1.635   2.802  13.386 -0.2468 -0.0596 -0.2648
17783TIP3   OH274763   4.042   3.550  15.341 -0.0390  0.1919 -0.1862
17783TIP3    H174764   4.032   3.465  15.298 -0.3273 -0.4324  1.0806
17783TIP3    H274765   4.078   3.529  15.428  0.8067  1.4422 -0.2107
17784TIP3   OH274766   2.842   2.682  12.802 -0.4105 -0.9724  0.7932
17784TIP3    H174767   2.868   2.617  12.737 -0.5571  0.1298 -0.3844
17784TIP3    H274768   2.763   2.645  12.841 -3.6880  0.9146 -3.6651
17785TIP3   OH274769   0.906   2.284   4.909 -0.1395 -0.2021  0.2744
17785TIP3    H174770   0.917   2.198   4.949  2.1149  0.1821  0.5346
17785TIP3    H274771   0.866   2.266   4.823 -1.4627 -1.3161  1.1013
17786TIP3   OH274772   2.015   0.270  10.814  0.2814 -0.4897 -0.0256
17786TIP3    H174773   2.077   0.255  10.886  0.2146  1.3538  0.4477
17786TIP3    H274774   1.933   0.294  10.856  0.5467  1.7341 -0.6939
17787TIP3   OH274775   5.805   0.699   4.601  0.8687 -0.0752  0.3091
17787TIP3    H174776   5.741   0.747   4.547  1.0790 -0.0200  0.1052
17787TIP3    H274777   5.822   0.756   4.675  0.8932  0.0371  0.2179
17788TIP3   OH274778   4.546   2.954  12.527 -0.0120  0.2063  0.4821
17788TIP3    H174779   4.613   2.901  12.485 -0.6647  1.1713 -1.8916
17788TIP3    H274780   4.584   3.042  12.532 -0.2528  0.2755  1.1705
17789TIP3   OH274781   1.632   4.146   2.892 -0.1845  0.5726 -0.2301
17789TIP3    H174782   1.631   4.211   2.821 -1.3880  3.1016  2.0007
17789TIP3    H274783   1.718   4.158   2.934 -0.7353  1.3649  0.7045
17790TIP3   OH274784   0.355   0.606  11.368 -0.2695 -0.6751 -0.1720
17790TIP3    H174785   0.318   0.548  11.434 -2.4553 -0.3412 -1.0589
17790TIP3    H274786   0.320   0.574  11.285  0.5342  0.3622 -0.9368
17791TIP3   OH274787   4.761   3.471   0.231  0.0576  0.4146  0.0250
17791TIP3    H174788   4.703   3.547   0.228  1.1457  1.2123 -1.1095
17791TIP3    H274789   4.754   3.439   0.321  0.3901  2.4918  0.8186
17792TIP3   OH274790   5.840   1.543  11.450 -0.0875 -0.5483  1.1724
17792TIP3    H174791   5.881   1.556  11.364 -1.5252 -1.4313  0.3240
17792TIP3    H274792   5.913   1.540  11.512  0.9274  0.7611  0.0617
17793TIP3   OH274793   2.749   5.672  11.411 -0.4295 -0.1923 -0.2697
17793TIP3    H174794   2.788   5.587  11.390 -1.3912 -0.9493  0.9198
17793TIP3    H274795   2.667   5.673  11.363 -0.2935  0.1759 -0.4920
17794TIP3   OH274796   4.979   2.576  11.106 -0.2797 -1.0249  0.2561
17794TIP3    H174797   4.908   2.514  11.090 -1.7400  1.1862 -2.4020
17794TIP3    H274798   4.945   2.634  11.175  0.1484 -1.7879  1.1044
17795TIP3   OH274799   6.362   2.348  14.145  0.3044  0.1446 -0.3299
17795TIP3    H174800   6.345   2.380  14.234 -0.6207 -3.9292  1.0597
17795TIP3    H274801   6.328   2.258  14.145  1.1117 -0.2576 -4.5579
17796TIP3   OH274802   3.345   1.055  17.160 -0.0344 -0.3087  0.1400
17796TIP3    H174803   3.389   1.001  17.095  0.4727 -0.1059  0.3165
17796TIP3    H274804   3.276   1.100  17.111 -0.3528 -0.9793 -0.0369
17797TIP3   OH274805   0.179   6.011   4.140 -0.1640 -0.0045  0.2768
17797TIP3    H174806   0.273   6.019   4.124  0.0572 -1.7693  0.5673
17797TIP3    H274807   0.152   5.934   4.090 -1.7981  1.4230 -1.1155
17798TIP3   OH274808   5.190   3.411  15.959 -0.0090  0.3004  0.0477
17798TIP3    H174809   5.271   3.364  15.939 -0.7405 -0.6126 -0.8204
17798TIP3    H274810   5.135   3.346  16.003 -0.8570  0.4509 -0.7623
17799TIP3   OH274811   2.866   0.893  12.902 -0.1474  0.3230  0.7379
17799TIP3    H174812   2.852   0.812  12.853 -1.4667  0.5753  0.6849
17799TIP3    H274813   2.923   0.867  12.975  1.3744 -0.1660 -0.5907
17800TIP3   OH274814   6.243   6.549  12.337  0.1013 -0.1914  0.0527
17800TIP3    H174815   6.229   6.463  12.376 -0.9688 -0.6051 -1.2194
17800TIP3    H274816   6.293   6.597  12.403 -1.2139 -1.0381  1.6957
17801TIP3   OH274817   1.754   3.514   6.157  0.3469  0.0133  0.3530
17801TIP3    H174818   1.683   3.552   6.106  1.1856 -0.0703 -0.9042
17801TIP3    H274819   1.748   3.420   6.142  0.2344 -0.0640  0.8812
17802TIP3   OH274820   6.377   4.341   3.856 -0.0694 -0.0643  0.5326
17802TIP3    H174821   6.323   4.415   3.831  0.6530  0.4343  0.4234
17802TIP3    H274822   6.461   4.380   3.881  0.5316 -0.8987 -0.1725
17803TIP3   OH274823   3.758   5.746   5.849  0.1765 -0.6482 -0.3993
17803TIP3    H174824   3.773   5.671   5.906  0.7595 -0.1255  0.1339
17803TIP3    H274825   3.694   5.800   5.896  1.9495  0.6423  0.5515
17804TIP3   OH274826   3.732   1.728  15.294 -0.2286  0.4296  0.1586
17804TIP3    H174827   3.762   1.642  15.323  0.1303  0.2797 -0.6671
17804TIP3    H274828   3.652   1.710  15.245  1.1289  0.3187 -2.0648
17805TIP3   OH274829   5.096   3.043   0.692  0.1680 -0.0970  0.2232
17805TIP3    H174830   5.107   3.078   0.603 -0.1947  1.8151  0.8918
17805TIP3    H274831   5.176   3.067   0.738 -0.9589  1.7972  1.2823
17806TIP3   OH274832   2.380   5.245   6.280 -0.8227 -0.2531  0.2055
17806TIP3    H174833   2.465   5.285   6.301 -0.5008 -0.9581  0.2533
17806TIP3    H274834   2.346   5.216   6.364 -1.2921  0.3723  0.2364
17807TIP3   OH274835   1.123   2.952  13.883 -0.1438 -0.1794 -0.2912
17807TIP3    H174836   1.054   3.004  13.923  0.2529 -0.5904  0.9718
17807TIP3    H274837   1.153   2.894  13.954 -0.3100 -1.8443 -1.5615
17808TIP3   OH274838   4.967   2.519  14.175 -0.1000  0.3089 -0.0961
17808TIP3    H174839   4.959   2.581  14.103 -1.3209 -0.2152 -0.4241
17808TIP3    H274840   5.005   2.570  14.247 -1.5154  1.5386 -0.2074
17809TIP3   OH274841   2.107   1.443   4.282  0.9869  0.3800  0.0303
17809TIP3    H174842   2.156   1.510   4.329  0.7736  0.9502 -0.5641
17809TIP3    H274843   2.174   1.394   4.234  1.0856  0.4777  0.0678
17810TIP3   OH274844   2.653   4.961  15.217 -0.6252  0.6858  0.4209
17810TIP3    H174845   2.578   4.902  15.204 -0.1223 -0.2963  1.8865
17810TIP3    H274846   2.642   5.028  15.149 -1.5511 -0.7321 -0.8863
17811TIP3   OH274847   5.715   4.821   6.176 -0.3711  0.5965  0.2434
17811TIP3    H174848   5.775   4.851   6.245  1.3605  0.5185 -1.1905
17811TIP3    H274849   5.677   4.902   6.142 -0.5067  0.7069  0.6551
17812TIP3   OH274850   5.153   0.204  11.952  0.3527 -0.0970  0.1975
17812TIP3    H174851   5.206   0.152  11.893  0.4652  1.6685 -1.3071
17812TIP3    H274852   5.195   0.290  11.953 -0.7165  0.4430  1.3958
17813TIP3   OH274853   6.676   5.353  15.703 -0.8869  0.3787 -0.2935
17813TIP3    H174854   6.709   5.294  15.771 -3.6243 -2.5859 -1.4049
17813TIP3    H274855   6.718   5.437  15.721  2.6203 -1.7082  1.7833
17814TIP3   OH274856   4.772   6.469  14.185  0.2766 -1.0070  0.4489
17814TIP3    H174857   4.679   6.448  14.178 -0.7898  2.9776  1.5946
17814TIP3    H274858   4.797   6.497  14.097  0.0961 -1.0146  0.3947
17815TIP3   OH274859   4.150   4.309   3.160  0.3641  0.2355  0.2808
17815TIP3    H174860   4.125   4.267   3.078  2.1763  0.1014 -0.2190
17815TIP3    H274861   4.088   4.274   3.225  0.7762 -1.9249 -0.4470
17816TIP3   OH274862   0.714   0.644  16.919 -0.4379 -0.2684 -0.6616
17816TIP3    H174863   0.656   0.712  16.952 -1.8145 -0.9379 -1.6988
17816TIP3    H274864   0.663   0.564  16.924  0.4557 -0.8925 -1.4205
17817TIP3   OH274865   2.464   1.892  16.572 -0.0817 -0.0258  0.2322
17817TIP3    H174866   2.427   1.878  16.660 -3.1876  1.6978 -0.7296
17817TIP3    H274867   2.542   1.945  16.587 -0.2193 -0.2749  1.9927
17818TIP3   OH274868   1.140   0.767   2.143  0.5674 -0.0438  0.0027
17818TIP3    H174869   1.201   0.768   2.217  0.1582 -0.1870  0.3500
17818TIP3    H274870   1.065   0.818   2.173  1.3761  1.8620 -1.1830
17819TIP3   OH274871   5.119   1.606  15.812 -0.4869 -0.3816  0.3320
17819TIP3    H174872   5.125   1.527  15.758  0.4799  0.8711 -1.4436
17819TIP3    H274873   5.067   1.667  15.760 -0.7361  0.3659  1.4365
17820TIP3   OH274874   6.188   0.684   6.084  0.6510 -0.0654  0.4126
17820TIP3    H174875   6.162   0.654   5.996  1.4855  1.2855 -0.3025
17820TIP3    H274876   6.283   0.690   6.080  0.7403 -0.6399  1.6299
17821TIP3   OH274877   2.895   3.665   4.193  0.0829 -0.6788 -0.2719
17821TIP3    H174878   2.812   3.701   4.162 -0.0524 -0.9446 -0.2157
17821TIP3    H274879   2.929   3.733   4.252 -1.6046 -1.8915  2.2026
17822TIP3   OH274880   3.500   3.812  11.590  0.0230  0.3425 -0.0684
17822TIP3    H174881   3.516   3.896  11.632  1.2628 -0.1886  0.5700
17822TIP3    H274882   3.570   3.804  11.525  1.5194 -1.3380  1.6792
17823TIP3   OH274883   2.828   2.950   1.055 -0.7790  0.1192  0.6447
17823TIP3    H174884   2.801   2.954   1.146 -0.9108  1.5298  0.5457
17823TIP3    H274885   2.822   2.857   1.033  0.5892 -0.4337  2.4649
17824TIP3   OH274886   0.211   2.440  15.497 -0.0810 -0.3273  0.7271
17824TIP3    H174887   0.190   2.419  15.406  1.0855  1.4158  0.0118
17824TIP3    H274888   0.286   2.384  15.517  0.0719 -0.2514  0.3846
17825TIP3   OH274889   3.014   3.506   5.163 -0.5046 -0.2585 -0.1643
17825TIP3    H174890   3.041   3.543   5.080  1.1126 -0.8668  0.0858
17825TIP3    H274891   2.956   3.573   5.201 -0.0139  0.6970 -1.0710
17826TIP3   OH274892   0.081   4.124  11.312 -0.7684 -0.4757 -0.5316
17826TIP3    H174893   0.010   4.157  11.256 -0.6329  0.2849 -0.2601
17826TIP3    H274894   0.079   4.029  11.299 -0.6321 -0.3045 -1.9551
17827TIP3   OH274895   6.061   0.886  14.353  0.7738  0.1814  0.3990
17827TIP3    H174896   6.106   0.813  14.395  0.7676 -0.1452 -0.1620
17827TIP3    H274897   6.002   0.919  14.421  1.0169 -0.1260  0.7636
17828TIP3   OH274898   3.369   4.490   1.762  0.5278  0.6355 -0.0856
17828TIP3    H174899   3.371   4.543   1.841  0.8732  0.5496 -0.0338
17828TIP3    H274900   3.305   4.532   1.705  0.1607  0.6003  0.3071
17829TIP3   OH274901   6.142   2.745   3.035 -0.2227  0.2354  0.2304
17829TIP3    H174902   6.228   2.739   2.993 -0.9341 -0.3852 -1.1657
17829TIP3    H274903   6.088   2.795   2.973 -0.5493  1.6390  1.6276
17830TIP3   OH274904   5.981   4.154   5.317  0.1901  0.2035 -0.0024
17830TIP3    H174905   5.960   4.245   5.338  1.2718 -0.1753  2.8466
17830TIP3    H274906   6.024   4.159   5.231  0.3906  2.4107  0.1977
17831TIP3   OH274907   3.175   3.935   3.782  0.2212 -0.5493 -0.2570
17831TIP3    H174908   3.120   3.882   3.724 -2.5673  0.9059  0.9723
17831TIP3    H274909   3.255   3.949   3.732 -0.3473 -3.0298 -1.9705
17832TIP3   OH274910   2.714   6.386   0.182 -0.2135 -0.1152 -0.3435
17832TIP3    H174911   2.734   6.297   0.154  0.7269 -0.1844  0.5341
17832TIP3    H274912   2.680   6.376   0.271  0.7030  0.4835  0.0756
17833TIP3   OH274913   0.287   5.119  12.136 -0.4140 -0.2401 -0.6813
17833TIP3    H174914   0.228   5.127  12.061  0.4289 -0.2847 -1.3555
17833TIP3    H274915   0.290   5.026  12.154  1.4552 -0.5370 -2.2966
17834TIP3   OH274916   0.937   2.073   1.950 -0.0709 -0.6091  0.3543
17834TIP3    H174917   0.883   2.116   1.883  2.0437  0.3561 -0.8010
17834TIP3    H274918   0.914   2.117   2.032  1.6441  2.4892 -0.7213
17835TIP3   OH274919   0.939   1.692   5.013 -0.2724  0.4630  0.1965
17835TIP3    H174920   0.917   1.647   5.095 -1.5068  0.9295  0.1224
17835TIP3    H274921   1.018   1.742   5.034 -1.5275  1.9052  1.5910
17836TIP3   OH274922   5.430   0.095   0.041  0.3700 -0.4179  0.0945
17836TIP3    H174923   5.460   0.071  -0.047 -0.1509  1.1244 -0.5344
17836TIP3    H274924   5.335   0.099   0.033  0.3172 -0.3776  0.7513
17837TIP3   OH274925   4.859   5.850  14.706 -0.2068  0.1848  0.1097
17837TIP3    H174926   4.954   5.862  14.716 -0.2399  0.9932 -0.4526
17837TIP3    H274927   4.848   5.824  14.614 -0.6024  0.9900 -0.0741
17838TIP3   OH274928   3.471   3.527   1.407 -0.1236  0.1683 -0.1088
17838TIP3    H174929   3.394   3.475   1.386 -0.6648 -0.1886  2.5312
17838TIP3    H274930   3.507   3.553   1.322 -2.3745 -0.7778 -1.3918
17839TIP3   OH274931   2.351   4.565   2.797  0.2842  0.1511  0.3297
17839TIP3    H174932   2.359   4.473   2.822 -0.6687 -0.1633 -0.4562
17839TIP3    H274933   2.296   4.564   2.719  1.7619  1.2489 -0.7515
17840TIP3   OH274934   5.219   0.123   2.978 -0.9851 -0.3020  0.1852
17840TIP3    H174935   5.140   0.176   2.990 -0.7842  0.1047 -0.2712
17840TIP3    H274936   5.193   0.035   3.006 -2.1003 -0.5510 -1.5321
17841TIP3   OH274937   3.873   1.198   1.992 -0.1342 -0.0584  0.6765
17841TIP3    H174938   3.842   1.194   1.901  0.3935  1.7194  0.4109
17841TIP3    H274939   3.891   1.290   2.008  1.6428 -0.5995  1.9688
17842TIP3   OH274940   4.535   3.261   2.625  0.2226 -0.6630 -0.4698
17842TIP3    H174941   4.592   3.323   2.580 -0.2245  0.8275  0.9680
17842TIP3    H274942   4.468   3.239   2.560 -0.2212  1.2036 -0.6838
17843TIP3   OH274943   3.398   0.345  17.120 -0.2878 -0.3307  0.2473
17843TIP3    H174944   3.362   0.357  17.208 -1.4527 -0.0244 -0.2684
17843TIP3    H274945   3.413   0.434  17.089 -0.9891 -0.4139 -0.3241
17844TIP3   OH274946   0.519   1.180  13.166  0.4891  0.4721 -0.2232
17844TIP3    H174947   0.520   1.225  13.250 -0.1921  1.0923 -0.5385
17844TIP3    H274948   0.551   1.246  13.103 -0.8181  0.6390 -0.7347
17845TIP3   OH274949   2.669   1.140   0.552  0.5692  0.1797 -0.4954
17845TIP3    H174950   2.722   1.065   0.579 -0.9665 -0.9528 -0.5702
17845TIP3    H274951   2.722   1.186   0.487  1.4149 -0.9766 -0.6175
17846TIP3   OH274952   5.848   2.955   0.795  0.0758  0.0137  0.2266
17846TIP3    H174953   5.938   2.951   0.762  1.2454 -0.5323  3.2925
17846TIP3    H274954   5.796   2.910   0.728  2.2326 -0.6499 -1.0663
17847TIP3   OH274955   1.999   1.865   4.215  0.3665  0.4784  0.3100
17847TIP3    H174956   1.952   1.928   4.161 -2.0334 -0.1319  1.5775
17847TIP3    H274957   1.969   1.779   4.184  0.8145  0.0668  0.9959
17848TIP3   OH274958   1.697   3.530  16.807  0.3175  0.6335  0.3279
17848TIP3    H174959   1.779   3.566  16.774  0.6293  0.6282  1.0799
17848TIP3    H274960   1.631   3.595  16.783  0.1328 -0.5548 -2.5082
17849TIP3   OH274961   0.591   5.333  11.575  0.3109 -1.0734 -0.4539
17849TIP3    H174962   0.580   5.308  11.666 -0.0096  0.7276  0.0176
17849TIP3    H274963   0.656   5.272  11.540 -0.9413 -2.9823  0.4591
17850TIP3   OH274964   2.696   0.773  14.285 -0.3146 -0.0126 -0.2404
17850TIP3    H174965   2.608   0.763  14.248 -1.3013  0.6489  1.8461
17850TIP3    H274966   2.700   0.707  14.354  0.6371  0.3154  0.0201
17851TIP3   OH274967   1.268   1.493   3.127  0.3103  0.3808  0.0870
17851TIP3    H174968   1.360   1.510   3.147  0.5253 -1.0979  0.3639
17851TIP3    H274969   1.220   1.533   3.199  0.7808  0.2674  0.4669
17852TIP3   OH274970   4.260   4.962  14.795 -0.1636  0.3302 -0.3613
17852TIP3    H174971   4.301   5.016  14.863 -1.1911 -0.6142  1.0412
17852TIP3    H274972   4.322   4.889  14.783 -0.6054 -0.1997  0.5316
17853TIP3   OH274973   5.477   6.138   0.411  0.6855 -0.7582 -0.7968
17853TIP3    H174974   5.415   6.160   0.481  1.1770  2.8287 -1.4158
17853TIP3    H274975   5.518   6.057   0.441 -0.2402 -0.1373  2.3375
17854TIP3   OH274976   6.203   1.177  12.295 -0.4029 -0.0021  0.2879
17854TIP3    H174977   6.160   1.135  12.220 -0.3769 -0.4426  0.5213
17854TIP3    H274978   6.130   1.204  12.351 -0.5189  1.9835 -0.7704
17855TIP3   OH274979   0.318   0.242   6.397  0.6267 -0.2832  0.1157
17855TIP3    H174980   0.412   0.232   6.382  0.6420 -1.4574  0.8680
17855TIP3    H274981   0.310   0.321   6.450  1.3226 -0.8849  1.1449
17856TIP3   OH274982   4.400   4.609  11.138 -0.0921 -0.1790 -0.6532
17856TIP3    H174983   4.327   4.615  11.201 -0.8725  0.4683 -1.5947
17856TIP3    H274984   4.377   4.535  11.082 -0.2741  0.3367 -1.2608
17857TIP3   OH274985   6.763   0.918  13.679  0.1525  0.0985  1.3090
17857TIP3    H174986   6.761   0.859  13.604  2.3949 -1.0086  2.1007
17857TIP3    H274987   6.789   1.003  13.641 -0.4310 -0.0267  0.5987
17858TIP3   OH274988   3.948   1.753   3.618 -0.0008 -0.3295  0.6964
17858TIP3    H174989   3.958   1.842   3.652 -1.3212 -0.4521  1.4596
17858TIP3    H274990   3.879   1.760   3.551 -0.7031 -0.9159  1.3463
17859TIP3   OH274991   5.519   6.416  15.719  0.1257 -0.5912 -0.1773
17859TIP3    H174992   5.614   6.412  15.709  0.1039  0.3226 -0.8546
17859TIP3    H274993   5.485   6.353  15.656  0.1987  0.9479 -1.7786
17860TIP3   OH274994   4.438   6.020   4.453 -0.4215 -0.2684 -0.4291
17860TIP3    H174995   4.417   5.937   4.411 -1.6635 -0.2086  0.0332
17860TIP3    H274996   4.523   6.006   4.494  0.1297 -0.7858 -1.7173
17861TIP3   OH274997   0.352   6.260  13.998 -0.0804  0.0906  0.0239
17861TIP3    H174998   0.322   6.201  13.929  1.1533 -1.1650  0.5346
17861TIP3    H274999   0.300   6.235  14.075  0.5312 -0.4319  0.2739
17862TIP3   OH275000   5.380   2.211   2.690 -0.2315 -0.5680 -0.0348
17862TIP3    H175001   5.375   2.118   2.709 -0.5024  0.1261  3.5841
17862TIP3    H275002   5.469   2.225   2.658  0.3182 -1.8007  0.9659
17863TIP3   OH275003   3.709   2.777   4.135 -0.6207 -0.5150  0.7716
17863TIP3    H175004   3.620   2.805   4.153 -0.5856 -1.0214  1.7536
17863TIP3    H275005   3.738   2.734   4.216 -0.5927 -3.1462 -0.5540
17864TIP3   OH275006   5.612   1.224  12.480 -0.9958  0.2536  0.0792
17864TIP3    H175007   5.698   1.246  12.518 -1.1688 -0.1161  0.6981
17864TIP3    H275008   5.622   1.133  12.453 -0.9687  0.4287 -0.5049
17865TIP3   OH275009   0.372   2.621   1.716  0.0079 -0.1635 -0.1951
17865TIP3    H175010   0.283   2.607   1.749 -0.1069  2.0074  0.5419
17865TIP3    H275011   0.422   2.546   1.748 -1.5158 -1.3289 -0.4822
17866TIP3   OH275012   1.609   3.641  14.519 -0.3507  0.5392  0.1712
17866TIP3    H175013   1.618   3.554  14.557  1.3327  1.0622  0.9993
17866TIP3    H275014   1.685   3.690  14.551 -1.7825  2.6097  0.5360
17867TIP3   OH275015   3.461   4.224  15.947  0.5787  0.3460 -0.2412
17867TIP3    H175016   3.448   4.132  15.924  1.0325  0.0464  0.6819
17867TIP3    H275017   3.522   4.257  15.881 -1.0382  0.4960 -1.7140
17868TIP3   OH275018   3.774   2.539  16.073  0.2353 -0.7705 -0.2102
17868TIP3    H175019   3.753   2.459  16.122 -0.2793  0.0989  1.0304
17868TIP3    H275020   3.859   2.567  16.106  0.0066 -0.3246  0.0215
17869TIP3   OH275021   4.645   6.764   5.880  0.3507  0.0788 -0.1874
17869TIP3    H175022   4.552   6.760   5.903  0.1989  0.4058 -0.7388
17869TIP3    H275023   4.689   6.785   5.962 -0.2273  1.6464 -0.2674
17870TIP3   OH275024   5.994   4.403   0.122 -0.2564  0.2358 -0.0832
17870TIP3    H175025   6.045   4.483   0.109  1.7367 -0.8618  0.7643
17870TIP3    H275026   5.970   4.405   0.215  0.4857 -0.5346  0.1283
17871TIP3   OH275027   2.886   4.335  11.789 -0.0581 -0.0061  0.1579
17871TIP3    H175028   2.901   4.371  11.702  0.4052 -0.3285  0.0979
17871TIP3    H275029   2.844   4.405  11.838  2.5725  1.3164  0.6274
17872TIP3   OH275030   0.660   2.167  14.308 -0.0115  0.0429 -0.0065
17872TIP3    H175031   0.631   2.083  14.272  0.3286 -0.1633  0.2049
17872TIP3    H275032   0.754   2.170  14.290 -0.1973  0.8262 -0.9266
17873TIP3   OH275033   1.651   2.669   0.168 -0.4772 -0.0686  0.4802
17873TIP3    H175034   1.632   2.722   0.245 -0.2917  0.2260  0.3263
17873TIP3    H275035   1.656   2.579   0.200  0.7731  0.1791  1.0181
17874TIP3   OH275036   2.790   2.686   3.252  0.2700 -0.2072  0.2017
17874TIP3    H175037   2.746   2.641   3.180  0.1804  0.6135 -0.2733
17874TIP3    H275038   2.725   2.749   3.284  0.2308 -0.7274  1.1511
17875TIP3   OH275039   2.405   1.843   2.675 -0.4089 -0.0088 -0.3724
17875TIP3    H175040   2.317   1.854   2.639 -0.1344  0.0004 -1.0605
17875TIP3    H275041   2.410   1.751   2.702 -0.3492 -0.2305 -1.1198
17876TIP3   OH275042   4.602   1.576   4.022 -0.3617  0.0660  0.0011
17876TIP3    H175043   4.588   1.669   4.042 -0.0046 -0.1880  1.5053
17876TIP3    H275044   4.573   1.530   4.100 -0.2745 -1.0794 -0.6328
17877TIP3   OH275045   0.375   4.202  14.300  0.1277 -0.8635 -0.1815
17877TIP3    H175046   0.285   4.189  14.328  0.2269 -1.5272 -0.1808
17877TIP3    H275047   0.421   4.226  14.381  0.0234 -0.8588 -0.1228
17878TIP3   OH275048   3.379   0.841   3.116 -0.0214  0.2780  0.4877
17878TIP3    H175049   3.402   0.807   3.030 -0.7680  0.7916  0.0786
17878TIP3    H275050   3.366   0.763   3.170  0.4883 -0.0441  0.1546
17879TIP3   OH275051   2.856   0.651  12.698 -0.2283 -0.3849 -0.7342
17879TIP3    H175052   2.876   0.572  12.748  1.1764 -1.3898 -2.7842
17879TIP3    H275053   2.792   0.623  12.633 -0.0839  0.2562 -1.1601
17880TIP3   OH275054   2.792   2.418   0.907  0.1104  0.8618 -0.1427
17880TIP3    H175055   2.707   2.403   0.948  0.5924 -0.9239  0.2367
17880TIP3    H275056   2.777   2.492   0.848 -2.1076 -0.4181 -1.2619
17881TIP3   OH275057   2.780   4.855  15.567 -0.2490  0.1630 -0.1521
17881TIP3    H175058   2.834   4.792  15.615 -2.4564 -1.7134 -0.0501
17881TIP3    H275059   2.695   4.852  15.609 -0.7454  2.4147 -0.8879
17882TIP3   OH275060   0.117   2.681  14.741  0.0398  0.0571  0.0591
17882TIP3    H175061   0.149   2.770  14.722 -0.3980  0.2664  0.3082
17882TIP3    H275062   0.052   2.693  14.810 -0.5730 -0.3730 -0.4422
17883TIP3   OH275063   3.759   5.064   4.490  0.4129  0.3421  0.0712
17883TIP3    H175064   3.697   5.029   4.553  0.0355  0.3493 -0.2973
17883TIP3    H275065   3.771   5.155   4.516  1.2024  0.0146  0.8758
17884TIP3   OH275066   3.400   2.480  10.522 -0.4691 -0.4158  0.4253
17884TIP3    H175067   3.448   2.547  10.571  0.7439 -1.2466  0.3954
17884TIP3    H275068   3.464   2.445  10.460 -1.8460  0.2626 -1.4440
17885TIP3   OH275069   3.167   3.357   0.029 -0.1809  0.0242 -0.7649
17885TIP3    H175070   3.171   3.317   0.116 -0.1229  1.1434 -0.2435
17885TIP3    H275071   3.241   3.319  -0.018 -0.0280 -0.3599 -0.2240
17886TIP3   OH275072   2.920   5.061  13.356 -0.9489 -0.5266  0.1573
17886TIP3    H175073   3.014   5.046  13.368 -0.6244  0.8896 -0.5154
17886TIP3    H275074   2.892   4.995  13.292 -1.2470 -3.5264  3.2124
17887TIP3   OH275075   3.839   3.111   2.839 -0.2153  0.0174  0.8361
17887TIP3    H175076   3.758   3.095   2.791 -0.4952  0.7753  1.0558
17887TIP3    H275077   3.864   3.200   2.816  0.2583 -0.0136  1.2187
17888TIP3   OH275078   0.971   2.042  15.413 -0.0300  0.0049  0.1226
17888TIP3    H175079   0.912   1.983  15.460  0.7314 -0.3158  0.7002
17888TIP3    H275080   0.919   2.076  15.340 -0.6540 -0.9434  0.1176
17889TIP3   OH275081   1.591   5.198  15.638  0.0455 -0.2889 -0.4760
17889TIP3    H175082   1.625   5.203  15.549  0.8306 -1.0124 -0.2161
17889TIP3    H275083   1.523   5.131  15.634 -1.0631  0.8227 -0.8816
17890TIP3   OH275084   2.561   5.362  11.853  0.2765  0.0644 -0.3162
17890TIP3    H175085   2.590   5.289  11.909  1.5662 -0.6916 -1.9517
17890TIP3    H275086   2.608   5.438  11.887  1.5816 -0.5197 -0.7817
17891TIP3   OH275087   2.681   1.885   2.619 -0.2593 -0.0415  0.1409
17891TIP3    H175088   2.705   1.913   2.707  1.2622 -1.2720  0.1326
17891TIP3    H275089   2.587   1.866   2.625 -0.7054  2.1732  0.8721
17892TIP3   OH275090   1.429   0.920   2.054  0.5544 -0.2726 -0.1440
17892TIP3    H175091   1.346   0.938   2.010 -0.4689  0.7198  2.1067
17892TIP3    H275092   1.406   0.863   2.127  1.8186  0.1337  0.5890
17893TIP3   OH275093   1.923   6.052  16.022 -0.0484  0.1307 -0.0849
17893TIP3    H175094   1.959   6.085  15.940  1.8532  1.1774  1.1456
17893TIP3    H275095   1.999   6.026  16.074 -1.1434  0.4433  1.7384
17894TIP3   OH275096   2.090   1.943  16.151 -0.3311 -0.0185 -0.5484
17894TIP3    H175097   2.166   1.921  16.097 -0.5027  1.6642 -1.5428
17894TIP3    H275098   2.075   2.036  16.133 -0.6759  0.4706  2.0901
17895TIP3   OH275099   3.638   3.884   2.509 -0.5065 -0.1927 -0.7058
17895TIP3    H175100   3.603   3.798   2.486 -1.1253  0.1215 -0.9555
17895TIP3    H275101   3.566   3.928   2.553  0.3052 -0.3605  0.8188
17896TIP3   OH275102   2.649   0.759   1.351  0.3716 -0.2490 -0.4252
17896TIP3    H175103   2.580   0.698   1.376  1.5784 -1.7877 -0.7649
17896TIP3    H275104   2.671   0.735   1.261  0.7437  0.8030 -0.6211
17897TIP3   OH275105   4.760   0.106   3.868 -0.0791  0.2433 -0.3396
17897TIP3    H175106   4.676   0.144   3.841  0.3865  0.3288 -1.7311
17897TIP3    H275107   4.754   0.014   3.842 -0.7742 -0.3967  2.0235
17898TIP3   OH275108   2.696   5.203   2.145 -0.8802 -0.6826 -0.2055
17898TIP3    H175109   2.777   5.168   2.107 -0.3600  2.1161 -1.8188
17898TIP3    H275110   2.714   5.296   2.158 -3.6189 -0.1596  0.0484
17899TIP3   OH275111   5.239   6.487  11.119  0.1004  0.2763  0.2678
17899TIP3    H175112   5.172   6.440  11.070  0.1940  1.0561 -0.6018
17899TIP3    H275113   5.322   6.455  11.083  0.2077 -0.2983  0.9878
17900TIP3   OH275114   1.829   3.899  15.811  0.0586 -0.5972  0.9160
17900TIP3    H175115   1.866   3.857  15.733  1.6022  1.2389  0.6460
17900TIP3    H275116   1.859   3.844  15.884 -2.6303 -3.1996  0.1722
17901TIP3   OH275117   5.003   1.736  10.745 -0.4744 -0.4291  0.9670
17901TIP3    H175118   5.089   1.714  10.708 -0.5202 -1.0298  1.2045
17901TIP3    H275119   4.944   1.737  10.670  0.0273  1.5969  0.5617
17902TIP3   OH275120   5.045   6.136  11.739 -0.3027 -0.4789 -0.0446
17902TIP3    H175121   4.984   6.203  11.706 -3.0844 -0.1796  5.1857
17902TIP3    H275122   5.004   6.053  11.715 -0.2104 -0.2958 -0.8502
17903TIP3   OH275123   5.363   0.545  11.310 -0.7142 -1.1249  0.3822
17903TIP3    H175124   5.303   0.478  11.277 -2.4863  0.8378 -0.4492
17903TIP3    H275125   5.358   0.616  11.246  1.4342 -0.3278  1.0466
17904TIP3   OH275126   5.927   4.523  12.503  0.3210 -0.3150 -0.5484
17904TIP3    H175127   6.018   4.492  12.507  0.8305  1.0140 -1.5620
17904TIP3    H275128   5.932   4.617  12.518 -1.0416 -0.4139  0.6875
17905TIP3   OH275129   3.596   0.941   3.700 -0.9332 -0.4026  0.1302
17905TIP3    H175130   3.661   0.948   3.630 -0.6487 -2.2681  0.1699
17905TIP3    H275131   3.647   0.946   3.781 -1.0865  0.1886  0.1954
17906TIP3   OH275132   1.208   5.462  12.555  0.7862  0.1936  0.2050
17906TIP3    H175133   1.126   5.435  12.514 -0.3799  1.1724  1.8172
17906TIP3    H275134   1.274   5.405  12.517 -1.0465 -2.4253  0.8053
17907TIP3   OH275135   3.475   5.147  12.505  0.2289  0.9369 -0.0348
17907TIP3    H175136   3.428   5.146  12.589 -0.0419 -4.8054 -0.0341
17907TIP3    H275137   3.407   5.129  12.440  1.5053 -1.8965 -0.6440
17908TIP3   OH275138   0.069   2.595   1.806 -0.4804 -0.5534  0.0831
17908TIP3    H175139   0.015   2.613   1.729 -1.8382 -0.3343  1.0684
17908TIP3    H275140   0.123   2.520   1.780  0.4413  0.7082 -1.7263
17909TIP3   OH275141   6.289   5.477   3.114  0.7171 -0.5989  0.1765
17909TIP3    H175142   6.330   5.506   3.033  1.0036  2.1199  1.2294
17909TIP3    H275143   6.195   5.478   3.096  0.7599  0.4179 -0.0073
17910TIP3   OH275144   4.330   4.123  16.686  0.0257 -0.0642 -0.6877
17910TIP3    H175145   4.320   4.077  16.603  0.5963  1.3100 -1.5156
17910TIP3    H275146   4.423   4.112  16.708  0.0829  0.4086 -0.7071
17911TIP3   OH275147   1.856   6.755   2.474  0.0446 -0.1440 -0.5238
17911TIP3    H175148   1.819   6.678   2.516 -0.7635 -0.7786 -2.3455
17911TIP3    H275149   1.781   6.798   2.432  0.4692  1.6873  0.5479
17912TIP3   OH275150   3.588   6.235   4.232 -0.3770 -0.3487  0.3832
17912TIP3    H175151   3.500   6.200   4.220 -0.0247 -1.8027  1.7580
17912TIP3    H275152   3.645   6.159   4.221  0.9886  1.1715 -3.7172
17913TIP3   OH275153   4.310   1.354  13.465 -0.1704 -0.7102  0.6842
17913TIP3    H175154   4.395   1.356  13.421 -1.1967 -1.8887 -1.3841
17913TIP3    H275155   4.275   1.442  13.454  0.3979 -0.4592  0.8273
17914TIP3   OH275156   6.234   2.316  12.822  0.5167  0.0659  0.7034
17914TIP3    H175157   6.252   2.302  12.729 -0.9432 -0.3190  0.4724
17914TIP3    H275158   6.167   2.384  12.824  1.5752  1.1126  1.5332
17915TIP3   OH275159   0.927   3.485  16.842 -0.4320  0.3785  0.0781
17915TIP3    H175160   0.947   3.567  16.797 -1.4061  1.0182  0.8035
17915TIP3    H275161   0.854   3.447  16.793 -0.1840  0.0932 -0.0731
17916TIP3   OH275162   4.660   5.631   5.068 -0.0481 -0.3034 -0.7129
17916TIP3    H175163   4.755   5.629   5.065 -0.0761 -1.6771 -0.7407
17916TIP3    H275164   4.638   5.623   5.161 -0.1517 -0.4050 -0.7460
17917TIP3   OH275165   3.199   0.568  17.162  0.6120  0.3364 -0.6059
17917TIP3    H175166   3.230   0.550  17.073  0.5399  0.3152 -0.6276
17917TIP3    H275167   3.107   0.541  17.160  0.9831 -1.0320 -0.1210
17918TIP3   OH275168   5.244   0.523  15.890 -0.0475  0.5700  0.2229
17918TIP3    H175169   5.220   0.599  15.837  1.8694  0.6865 -0.5423
17918TIP3    H275170   5.307   0.558  15.953  0.7162 -0.3279 -0.0324
17919TIP3   OH275171   5.046   3.576  11.264 -0.6209  0.2796 -0.0325
17919TIP3    H175172   4.979   3.590  11.198  0.5454 -2.0534 -1.7863
17919TIP3    H275173   5.120   3.631  11.237 -0.4461 -0.0485 -0.2307
17920TIP3   OH275174   6.354   1.957   5.713  0.4298 -0.3610  0.5680
17920TIP3    H175175   6.300   2.022   5.668 -0.6136 -2.5709 -1.4799
17920TIP3    H275176   6.329   1.965   5.805 -0.7597  1.1066  0.1377
17921TIP3   OH275177   6.506   2.603   5.433 -0.0774  0.1724 -1.0056
17921TIP3    H175178   6.419   2.603   5.394 -0.9146  0.9409  0.7788
17921TIP3    H275179   6.500   2.665   5.505  1.6993 -0.4390 -0.2862
17922TIP3   OH275180   1.678   4.223  11.978  0.7551  0.1577  0.8853
17922TIP3    H175181   1.646   4.234  12.068 -0.4122  1.4905  0.3200
17922TIP3    H275182   1.750   4.285  11.971  0.9187 -0.0267  0.9333
17923TIP3   OH275183   2.169   3.401   4.074 -0.4186 -0.4939 -0.0334
17923TIP3    H175184   2.153   3.339   4.145  0.7865  0.2732  0.9165
17923TIP3    H275185   2.102   3.468   4.086  0.7297  0.4334  1.3175
17924TIP3   OH275186   5.399   4.987  13.314 -0.2378 -0.5294 -0.4295
17924TIP3    H175187   5.491   5.008  13.300 -0.1085 -0.4834  0.4496
17924TIP3    H275188   5.351   5.051  13.261  0.2287 -0.4421 -0.7505
17925TIP3   OH275189   2.808   4.070  15.319 -0.3227  0.2382 -0.1513
17925TIP3    H175190   2.853   4.148  15.288  0.1842 -0.0554 -0.1682
17925TIP3    H275191   2.784   4.091  15.410  0.7724  0.0150  0.2009
17926TIP3   OH275192   6.655   6.434  12.873 -0.2476 -0.2637  0.0785
17926TIP3    H175193   6.599   6.512  12.880  0.2144  0.0389  0.4713
17926TIP3    H275194   6.595   6.360  12.880 -0.4196  0.0390  2.1764
17927TIP3   OH275195   1.229   5.784  15.612  0.5103 -0.0944  0.4752
17927TIP3    H175196   1.188   5.837  15.681  2.2167  2.0062 -0.0880
17927TIP3    H275197   1.208   5.830  15.531  0.0842 -1.5602 -0.2731
17928TIP3   OH275198   4.096   4.959   5.511  0.5259 -0.7469  0.0949
17928TIP3    H175199   4.012   4.982   5.470  0.3306 -1.6670 -0.0334
17928TIP3    H275200   4.117   5.035   5.566 -0.8572 -0.8813  0.8534
17929TIP3   OH275201   3.279   6.666  13.771 -0.5674  0.6142  0.2708
17929TIP3    H175202   3.309   6.649  13.682 -1.0640  0.2493  0.1683
17929TIP3    H275203   3.261   6.760  13.774 -0.3201  0.6659  0.0542
17930TIP3   OH275204   2.309   3.064   5.428  0.6783  0.3203  0.0886
17930TIP3    H175205   2.272   2.985   5.466 -0.1517  0.3178 -0.6777
17930TIP3    H275206   2.334   3.118   5.502 -1.2266  0.4657  0.6470
17931TIP3   OH275207   6.085   3.116  10.775  0.6901 -0.1484 -0.0366
17931TIP3    H175208   6.123   3.156  10.697  1.0950  2.6407  1.4987
17931TIP3    H275209   6.014   3.175  10.801 -0.4060 -1.8160  0.8662
17932TIP3   OH275210   2.865   5.562   4.403  0.3973  0.1172  0.2449
17932TIP3    H175211   2.884   5.536   4.493  0.6690 -0.6007 -0.0204
17932TIP3    H275212   2.950   5.591   4.368  0.4351 -0.2775  0.0008
17933TIP3   OH275213   5.312   2.981  15.027 -0.2919 -0.6090  0.3553
17933TIP3    H175214   5.306   3.069  15.063 -1.3516 -1.1633  1.5921
17933TIP3    H275215   5.298   2.923  15.103  0.6496 -1.8340 -0.3864
17934TIP3   OH275216   1.864   2.076  16.397  0.0725 -0.0577 -0.7500
17934TIP3    H175217   1.790   2.120  16.354  0.0819 -0.9189 -1.6939
17934TIP3    H275218   1.941   2.128  16.372 -0.4740  2.4611  2.4962
17935TIP3   OH275219   2.132   2.901   3.341  0.2312  0.2634 -0.2594
17935TIP3    H175220   2.122   2.932   3.251 -1.4838  0.4521 -0.0153
17935TIP3    H275221   2.044   2.878   3.369  0.7887 -0.0803  1.2797
17936TIP3   OH275222   4.859   0.576  14.708  0.3460 -0.0327 -0.1886
17936TIP3    H175223   4.914   0.571  14.786 -2.2596 -1.4595  1.6451
17936TIP3    H275224   4.833   0.486  14.690  1.6994  0.1465 -3.3589
17937TIP3   OH275225   4.541   2.931  14.571  0.2880 -0.0913  0.5475
17937TIP3    H175226   4.485   3.000  14.533 -0.8701 -0.6308  1.2620
17937TIP3    H275227   4.561   2.963  14.659  0.5534 -0.2183  0.5321
17938TIP3   OH275228   0.020   3.389  15.107  0.6931 -0.2286 -0.5984
17938TIP3    H175229  -0.074   3.407  15.102  0.6451 -0.5356 -0.8473
17938TIP3    H275230   0.026   3.294  15.099  0.8036 -0.5629  2.6755
17939TIP3   OH275231   0.384   1.435   5.184  0.2988  0.2056  0.3824
17939TIP3    H175232   0.369   1.349   5.223 -0.2137  0.8813  1.6997
17939TIP3    H275233   0.303   1.482   5.199  1.3590  1.6684  1.6585
17940TIP3   OH275234   3.253   4.708  13.637 -0.0886  0.3082  0.0213
17940TIP3    H175235   3.255   4.795  13.678  1.3720  0.6094 -0.6640
17940TIP3    H275236   3.205   4.721  13.555 -0.5541  0.3037  0.2954
17941TIP3   OH275237   1.769   4.426  15.538 -0.3127 -0.4455 -0.3112
17941TIP3    H175238   1.734   4.503  15.493  0.7472 -0.6558 -1.5186
17941TIP3    H275239   1.812   4.376  15.469  1.0750 -0.9243  0.8942
17942TIP3   OH275240   0.104   2.075  11.426  0.3237 -0.1550  0.4189
17942TIP3    H175241   0.027   2.021  11.408  0.5125 -0.3524  0.1946
17942TIP3    H275242   0.099   2.147  11.364  0.6396 -0.4938  0.0003
17943TIP3   OH275243   1.116   1.107   4.328  0.0620  0.0570  0.0040
17943TIP3    H175244   1.020   1.099   4.327 -0.0096  0.6234  1.3694
17943TIP3    H275245   1.137   1.156   4.248 -0.6768 -1.1821 -0.9630
17944TIP3   OH275246   0.227   2.655   5.813  0.2934  0.6636 -0.2041
17944TIP3    H175247   0.257   2.720   5.751 -1.4338  0.4601 -1.2995
17944TIP3    H275248   0.169   2.598   5.762 -1.5167  0.7629  1.6763
17945TIP3   OH275249   6.570   0.334  12.505  0.1816  0.1057 -0.2871
17945TIP3    H175250   6.519   0.285  12.441  1.4480 -0.9411 -0.5254
17945TIP3    H275251   6.613   0.403  12.454 -0.3288  0.4549 -0.2386
17946TIP3   OH275252   5.699   6.471  17.096 -0.0337 -0.4829 -0.6785
17946TIP3    H175253   5.694   6.497  17.004 -0.6051  0.4051 -0.3947
17946TIP3    H275254   5.670   6.547  17.145 -0.4444 -1.1982  0.2146
17947TIP3   OH275255   6.081   6.460   5.260  0.3129 -0.0308  0.2744
17947TIP3    H175256   6.059   6.509   5.340 -0.1566  2.2781 -1.2282
17947TIP3    H275257   6.174   6.477   5.247  0.2489  0.0911 -0.0111
17948TIP3   OH275258   4.187   2.657  10.366 -0.8289  0.7702  0.0468
17948TIP3    H175259   4.234   2.578  10.340 -0.8469  0.5927  0.5399
17948TIP3    H275260   4.209   2.722  10.299  0.4770  0.8182  0.5156
17949TIP3   OH275261   0.469   2.907  10.841 -0.1000 -0.1383  0.5667
17949TIP3    H175262   0.469   2.931  10.749 -0.3503  0.7704  0.8037
17949TIP3    H275263   0.458   2.812  10.841  0.6682 -0.2347 -0.3607
17950TIP3   OH275264   1.375   0.061   0.704 -0.2335  0.4289 -0.0294
17950TIP3    H175265   1.427   0.048   0.783  0.6383  1.2983 -0.4538
17950TIP3    H275266   1.420   0.011   0.636 -0.9309 -0.2414 -0.0112
17951TIP3   OH275267   0.679   5.356   0.227 -0.4906 -0.3001  0.5029
17951TIP3    H175268   0.605   5.295   0.222 -0.9710  0.4112 -1.5828
17951TIP3    H275269   0.717   5.341   0.314 -2.2528 -1.6365  1.0668
17952TIP3   OH275270   1.744   1.789  12.239 -0.3170 -0.4418 -0.3563
17952TIP3    H175271   1.674   1.769  12.302  0.6005  1.1989  1.2598
17952TIP3    H275272   1.805   1.716  12.247 -0.3340 -0.3697  0.4932
17953TIP3   OH275273   3.946   3.073  17.174 -0.5260 -0.0143  0.0457
17953TIP3    H175274   3.924   3.084  17.081 -1.4036 -0.5678  0.1705
17953TIP3    H275275   3.861   3.060  17.217 -0.0839 -0.3698  0.8344
17954TIP3   OH275276   1.817   3.697  11.618 -0.3242 -0.4778  0.6170
17954TIP3    H175277   1.851   3.664  11.701  1.6787 -0.7958 -0.3133
17954TIP3    H275278   1.767   3.624  11.582 -1.7687 -0.1253  1.8134
17955TIP3   OH275279   3.167   2.605   2.190 -0.5603  0.2344 -0.0450
17955TIP3    H175280   3.110   2.598   2.114 -0.1052 -0.4931 -0.3232
17955TIP3    H275281   3.230   2.534   2.180  1.4635  2.0238 -0.6211
17956TIP3   OH275282   3.870   6.099  15.624  0.1464  0.7099  0.2294
17956TIP3    H175283   3.883   6.190  15.652  1.8142  0.6896 -0.4308
17956TIP3    H275284   3.942   6.051  15.664 -0.5396 -0.2739  0.3011
17957TIP3   OH275285   1.187   1.391   4.522 -0.1995  0.1066 -0.0396
17957TIP3    H175286   1.125   1.318   4.531 -1.3928  1.0973 -0.1966
17957TIP3    H275287   1.264   1.352   4.480 -0.7871 -1.0836 -0.0256
17958TIP3   OH275288   1.838   3.456  14.136 -0.1659 -0.2769  0.1229
17958TIP3    H175289   1.864   3.378  14.185  0.3093  1.0231  1.9814
17958TIP3    H275290   1.753   3.481  14.174  0.9743  1.6893  1.4484
17959TIP3   OH275291   6.176   2.596  13.146 -0.8209  0.1668 -0.1094
17959TIP3    H175292   6.176   2.501  13.132 -1.1491 -0.0799  1.4354
17959TIP3    H275293   6.170   2.633  13.059 -1.5215 -1.2486 -0.6826
17960TIP3   OH275294   1.374   1.515  15.351 -0.0141  0.0449 -0.0988
17960TIP3    H175295   1.421   1.472  15.423  0.3726  1.8372  0.7427
17960TIP3    H275296   1.287   1.475  15.352  0.2455 -0.5172  0.8612
17961TIP3   OH275297   4.601   3.873  16.070  0.8861 -0.7447  0.0738
17961TIP3    H175298   4.632   3.885  16.160  0.2573 -2.5381  0.5617
17961TIP3    H275299   4.507   3.885  16.076  1.0070  0.6479 -0.6467
17962TIP3   OH275300   4.217   0.567  10.990 -0.0694  0.6254 -0.0477
17962TIP3    H175301   4.275   0.609  11.053 -0.6993 -1.6093  2.1411
17962TIP3    H275302   4.229   0.473  11.006 -2.2143  0.0702 -1.4412
17963TIP3   OH275303   3.190   5.814   1.198  0.4928  0.4859  0.4671
17963TIP3    H175304   3.129   5.761   1.250  0.6905 -1.5017 -1.2316
17963TIP3    H275305   3.160   5.904   1.210 -2.4221 -0.3841  0.1808
17964TIP3   OH275306   4.739   4.074  17.001  0.0668 -0.3606  0.5575
17964TIP3    H175307   4.759   4.034  17.086 -0.3510 -0.6147  0.5392
17964TIP3    H275308   4.786   4.020  16.938 -0.9710 -1.1894  0.4810
17965TIP3   OH275309   3.645   3.397  13.569 -0.3641 -0.2614  0.2400
17965TIP3    H175310   3.575   3.452  13.605 -0.5005  0.1253 -0.6101
17965TIP3    H275311   3.607   3.309  13.568 -1.0986  0.0568 -0.8686
17966TIP3   OH275312   5.863   0.954  15.403 -0.4067 -0.4144  0.5893
17966TIP3    H175313   5.947   0.930  15.442 -0.1505 -0.0825  0.2397
17966TIP3    H275314   5.881   0.960  15.309 -1.4602 -3.1696  0.1561
17967TIP3   OH275315   0.539   2.231   3.721 -0.7670 -0.0500 -0.4130
17967TIP3    H175316   0.465   2.288   3.740 -1.8318 -1.2056 -1.0440
17967TIP3    H275317   0.542   2.226   3.625  0.8666  0.9375 -0.4365
17968TIP3   OH275318   5.429   5.373  14.823  0.3040 -0.0313 -0.2146
17968TIP3    H175319   5.454   5.281  14.836  0.2803 -0.1255 -0.8516
17968TIP3    H275320   5.341   5.369  14.786 -0.6417  0.3022  1.9072
17969TIP3   OH275321   4.223   2.558  15.668  0.4423  0.1919 -0.2248
17969TIP3    H175322   4.191   2.605  15.592  1.6438  1.0502 -0.2162
17969TIP3    H275323   4.219   2.466  15.643 -0.2551  0.4042 -0.8918
17970TIP3   OH275324   2.347   1.013  14.374  0.5419 -0.5587  0.3082
17970TIP3    H175325   2.423   1.061  14.341  1.4532 -0.2808  2.7424
17970TIP3    H275326   2.272   1.067  14.349  1.3721  0.8312  0.7650
17971TIP3   OH275327   3.899   4.124   5.744  0.0458  0.4863  0.1734
17971TIP3    H175328   3.929   4.215   5.743 -0.2123  0.5647 -0.5167
17971TIP3    H275329   3.847   4.115   5.665  1.1475 -0.6252 -0.4445
17972TIP3   OH275330   0.594   4.401   0.926 -0.0251  0.0095  1.1342
17972TIP3    H175331   0.597   4.496   0.933 -2.5374  0.3981 -1.6693
17972TIP3    H275332   0.684   4.372   0.941  0.9547  2.8929  1.0591
17973TIP3   OH275333   3.979   5.815   0.703  0.3636 -0.1501 -0.0526
17973TIP3    H175334   3.968   5.790   0.795  1.2419  0.6333  0.2862
17973TIP3    H275335   3.976   5.733   0.655  1.9192 -0.7887  0.8972
17974TIP3   OH275336   4.654   6.731   3.303  0.2759  0.7697 -0.0840
17974TIP3    H175337   4.620   6.684   3.379 -3.8758  0.5943 -1.8765
17974TIP3    H275338   4.741   6.694   3.288 -0.6221 -2.3428  1.9027
17975TIP3   OH275339   2.719   6.019   4.701  0.1631 -0.3763  0.4575
17975TIP3    H175340   2.669   6.079   4.757 -1.1094 -0.5028 -0.5187
17975TIP3    H275341   2.715   5.935   4.747 -0.4913 -0.3773  0.4016
17976TIP3   OH275342   4.222   3.711   4.890  0.1229  0.3861 -0.0400
17976TIP3    H175343   4.313   3.682   4.885 -0.5635 -2.0598  0.7095
17976TIP3    H275344   4.177   3.660   4.823 -0.8274  0.9808  0.1395
17977TIP3   OH275345   1.788   4.464   2.627 -0.1998  0.3571  0.4681
17977TIP3    H175346   1.785   4.533   2.693  1.1198  0.7645  0.1259
17977TIP3    H275347   1.782   4.509   2.543 -0.9816 -0.0843  0.2831
17978TIP3   OH275348   5.972   4.919   1.787 -0.1000  0.0498 -0.3168
17978TIP3    H175349   6.049   4.973   1.805  1.5835 -2.0642 -1.0813
17978TIP3    H275350   5.993   4.833   1.822 -2.2954 -0.4608 -0.1565
17979TIP3   OH275351   1.801   0.250   0.825  0.7131 -0.1277  0.3393
17979TIP3    H175352   1.885   0.295   0.824  0.5032  0.3034  1.3090
17979TIP3    H275353   1.742   0.309   0.872 -0.0572 -0.5521 -0.0705
17980TIP3   OH275354   3.922   4.259  11.815  0.2343  0.4140 -0.2617
17980TIP3    H175355   3.985   4.229  11.879  0.6227 -2.1323 -1.7505
17980TIP3    H275356   3.854   4.191  11.814 -1.0699  1.6884 -0.7010
17981TIP3   OH275357   0.855   0.383   4.349  0.7921 -0.2562 -0.1247
17981TIP3    H175358   0.909   0.311   4.381  0.8070 -0.1503  0.0985
17981TIP3    H275359   0.864   0.381   4.254  2.5721  0.8123 -0.0095
17982TIP3   OH275360   4.692   0.318   5.944 -0.3295  0.1387 -0.8175
17982TIP3    H175361   4.752   0.246   5.962  0.2837  1.0653  1.0176
17982TIP3    H275362   4.741   0.376   5.887  1.0085  1.4312  1.5417
17983TIP3   OH275363   2.186   0.005   1.240 -0.1549  0.1015 -0.3346
17983TIP3    H175364   2.148   0.062   1.307  0.8689  0.1942  0.1730
17983TIP3    H275365   2.252   0.059   1.198 -1.0030  0.1431 -1.6418
17984TIP3   OH275366   0.033   3.808  13.680 -0.2123  0.6224  0.1609
17984TIP3    H175367   0.011   3.722  13.716  0.7820 -0.1096 -0.9398
17984TIP3    H275368   0.064   3.789  13.592 -0.1816  2.1444 -0.1628
17985TIP3   OH275369   1.679   0.774   0.190 -0.0873  0.1734  0.3508
17985TIP3    H175370   1.651   0.726   0.113 -1.0454  0.4557  0.5139
17985TIP3    H275371   1.670   0.866   0.166  2.8788  0.3262 -0.3861
17986TIP3   OH275372   2.785   0.276   5.201 -0.0220  0.0820 -0.1752
17986TIP3    H175373   2.704   0.319   5.228 -0.4013 -0.5303 -0.3293
17986TIP3    H275374   2.853   0.316   5.256 -0.6431 -0.5017  1.0325
17987TIP3   OH275375   0.907   0.848  12.025 -0.3828  0.1501 -0.1996
17987TIP3    H175376   0.813   0.868  12.021 -0.0632  1.7788 -0.2030
17987TIP3    H275377   0.934   0.847  11.933 -0.6673 -1.8214 -0.2874
17988TIP3   OH275378   6.115   6.172  15.220 -0.3329  0.3217  0.0265
17988TIP3    H175379   6.188   6.126  15.263  0.8639  0.1401 -2.1093
17988TIP3    H275380   6.041   6.112  15.228  0.5462 -0.8513 -0.3928
17989TIP3   OH275381   4.064   5.044   0.061 -0.2502 -0.3989  0.0117
17989TIP3    H175382   4.033   5.120   0.011  0.4853 -1.7793 -2.6491
17989TIP3    H275383   4.155   5.064   0.081 -0.3088 -0.1854  0.0633
17990TIP3   OH275384   2.837   1.634  14.099 -0.2835  0.1415  0.4675
17990TIP3    H175385   2.910   1.577  14.072  0.9553  1.7375  0.3771
17990TIP3    H275386   2.761   1.599  14.053  0.6883 -0.7268 -0.5119
17991TIP3   OH275387   4.569   4.695  12.297  0.3292  0.4803 -0.4696
17991TIP3    H175388   4.550   4.603  12.279  1.0940  0.5597 -1.6778
17991TIP3    H275389   4.538   4.708  12.387 -2.1571 -0.2788 -1.1884
17992TIP3   OH275390   3.835   5.695   1.858  0.4096  0.0998  0.0528
17992TIP3    H175391   3.753   5.685   1.905 -0.7317  1.6006 -1.5428
17992TIP3    H275392   3.903   5.674   1.922 -1.1860 -0.2449  1.6434
17993TIP3   OH275393   2.778   4.979  11.682 -0.1559  0.4395 -0.0572
17993TIP3    H175394   2.838   4.919  11.726  0.7193  0.2925 -1.4236
17993TIP3    H275395   2.734   5.025  11.754 -0.0777 -1.0723  0.9910
17994TIP3   OH275396   6.516   6.726  14.982 -0.6789 -0.4306 -0.5906
17994TIP3    H175397   6.557   6.682  15.057 -0.9422  3.5117  2.0317
17994TIP3    H275398   6.582   6.790  14.953 -1.7091  0.0814 -1.8631
17995TIP3   OH275399   4.640   1.481  17.039 -0.3116  0.1691  0.0857
17995TIP3    H175400   4.638   1.576  17.041  0.1501  0.1865 -0.1029
17995TIP3    H275401   4.721   1.460  16.992  0.1022 -0.3144  1.0100
17996TIP3   OH275402   0.006   4.298   2.280  0.8736  0.1520 -0.4569
17996TIP3    H175403   0.006   4.266   2.190 -1.5566 -2.1584  0.2797
17996TIP3    H275404  -0.079   4.340   2.290  1.1483  0.4376  0.7524
17997TIP3   OH275405   5.405   3.293   6.522  0.0335  0.0804 -0.3736
17997TIP3    H175406   5.491   3.305   6.479 -0.2257  0.3824 -0.8187
17997TIP3    H275407   5.350   3.255   6.453 -0.0593 -0.5808  0.0590
17998TIP3   OH275408   0.411   1.943  15.347 -0.3042  0.7070 -0.0411
17998TIP3    H175409   0.483   1.939  15.285  0.1086  1.8039  0.3497
17998TIP3    H275410   0.449   1.921  15.432 -0.6314  0.3214  0.0089
17999TIP3   OH275411   2.452   1.130   3.853  0.4091 -0.7122 -0.3561
17999TIP3    H175412   2.517   1.196   3.876  0.4365 -0.7513 -0.3214
17999TIP3    H275413   2.491   1.047   3.880  0.4547 -0.7619 -0.5737
18000TIP3   OH275414   3.391   2.145   1.405 -0.4653  0.1706  0.1321
18000TIP3    H175415   3.328   2.215   1.420  0.0445  1.0677 -1.7442
18000TIP3    H275416   3.464   2.187   1.361 -0.3772 -1.6052 -1.5317
18001TIP3   OH275417   2.137   6.600  13.661  0.1476  0.1976 -0.9739
18001TIP3    H175418   2.098   6.681  13.627 -1.6278 -1.0384 -1.9608
18001TIP3    H275419   2.080   6.575  13.733  0.2345 -0.5888 -1.1796
18002TIP3   OH275420   2.330   5.519  15.925  0.3553  0.3459  0.3544
18002TIP3    H175421   2.387   5.468  15.983 -1.2765 -1.8415  0.0769
18002TIP3    H275422   2.376   5.603  15.915  1.9482 -0.1921  2.6864
18003TIP3   OH275423   3.387   4.869   3.369 -0.0627 -0.1548 -0.1909
18003TIP3    H175424   3.361   4.948   3.322 -0.5110 -1.3416 -1.9895
18003TIP3    H275425   3.361   4.885   3.459 -2.3720  0.7732 -0.9963
18004TIP3   OH275426   6.009   5.778   3.018  0.3434 -0.1815 -0.0475
18004TIP3    H175427   6.056   5.798   2.937 -1.5674 -2.7934 -1.8674
18004TIP3    H275428   6.055   5.702   3.054  0.7377  0.5289  0.9626
18005TIP3   OH275429   3.426   4.286   1.528  0.1359 -0.2947 -0.0064
18005TIP3    H175430   3.429   4.369   1.480 -0.6215 -1.2695 -1.7660
18005TIP3    H275431   3.518   4.259   1.533  0.8193  2.2422  3.5196
18006TIP3   OH275432   5.149   1.653  11.524  0.8440 -0.3496 -0.4318
18006TIP3    H175433   5.228   1.606  11.497  1.6966  1.8189 -1.8551
18006TIP3    H275434   5.077   1.602  11.487  1.6296 -1.6802 -0.1527
18007TIP3   OH275435   3.487   2.075  12.618 -0.0531 -1.3030 -0.2402
18007TIP3    H175436   3.444   2.032  12.544 -1.5927  0.6679 -0.5287
18007TIP3    H275437   3.420   2.081  12.685  0.1926  0.4447 -0.1334
18008TIP3   OH275438   4.664   0.576   5.458  0.1559  0.3378  0.3400
18008TIP3    H175439   4.610   0.650   5.486  1.1968  0.6547  1.5118
18008TIP3    H275440   4.752   0.612   5.448  0.4531 -0.5081 -0.1181
18009TIP3   OH275441   0.937   3.754   4.089 -0.4269 -0.5012 -0.7699
18009TIP3    H175442   0.935   3.722   4.179 -0.2100  0.3274 -0.4565
18009TIP3    H275443   0.852   3.730   4.053 -0.1897 -1.5984 -0.6192
18010TIP3   OH275444   3.255   5.515  12.185 -0.1843  0.7004 -0.5008
18010TIP3    H175445   3.263   5.462  12.106  0.2536  1.1033 -0.7289
18010TIP3    H275446   3.263   5.605  12.154 -0.4497  0.8774 -0.0529
18011TIP3   OH275447   0.835   2.769   5.382  0.4747 -0.1369  0.3756
18011TIP3    H175448   0.925   2.751   5.410  0.2888 -1.0480  0.4027
18011TIP3    H275449   0.820   2.708   5.310 -0.1812 -0.1011  0.4776
18012TIP3   OH275450   4.601   6.151  16.955 -0.0858 -0.5954  0.3176
18012TIP3    H175451   4.579   6.097  16.879 -0.5282  0.1834 -0.1149
18012TIP3    H275452   4.519   6.158  17.004 -0.2045  0.2572  0.0068
18013TIP3   OH275453   5.865   3.459  14.461 -0.1105 -0.2624 -0.3186
18013TIP3    H175454   5.957   3.464  14.487 -0.0103  1.7657 -0.9395
18013TIP3    H275455   5.863   3.499  14.374 -1.0189 -3.6420 -1.9381
18014TIP3   OH275456   6.013   4.298   0.393 -0.3175  0.3314  0.2131
18014TIP3    H175457   6.089   4.354   0.407  0.1656 -0.0810 -0.7125
18014TIP3    H275458   5.964   4.303   0.475  0.2006  1.3700  0.4641
18015TIP3   OH275459   0.868   0.723  14.678 -0.2426  0.1387 -0.1203
18015TIP3    H175460   0.909   0.655  14.625  1.7523 -0.5179  2.1635
18015TIP3    H275461   0.781   0.735  14.640  0.5042 -1.5256 -2.4128
18016TIP3   OH275462   1.474   1.412  13.213  0.1174 -0.0808 -0.1991
18016TIP3    H175463   1.551   1.368  13.246 -0.6717 -0.5412  1.0652
18016TIP3    H275464   1.430   1.446  13.291 -0.0925  1.6235 -1.0231
18017TIP3   OH275465   4.923   2.127  15.034 -0.1337  0.1844 -0.0514
18017TIP3    H175466   4.998   2.182  15.057  0.6707  0.1159 -2.3406
18017TIP3    H275467   4.947   2.040  15.066  0.7284  0.1911 -0.6507
18018TIP3   OH275468   3.476   3.757  14.481  0.0967 -0.0847  0.3472
18018TIP3    H175469   3.509   3.845  14.464 -0.6658 -0.0882 -1.2531
18018TIP3    H275470   3.489   3.743  14.575 -0.8644  2.1808  0.8310
18019TIP3   OH275471   4.731   6.340  13.230 -0.1291 -0.4995 -0.1611
18019TIP3    H175472   4.636   6.334  13.217 -0.0484  1.9862 -2.3024
18019TIP3    H275473   4.754   6.259  13.276 -3.0745 -1.7888 -0.8310
18020TIP3   OH275474   4.300   2.255  11.568  0.5416  0.4532  0.5590
18020TIP3    H175475   4.218   2.286  11.531 -0.0936 -0.5973  1.0718
18020TIP3    H275476   4.326   2.183  11.511  1.4914  1.2431 -0.0307
18021TIP3   OH275477   5.566   0.948   2.306 -0.1327  0.3267 -0.0147
18021TIP3    H175478   5.576   0.935   2.401  1.0850  1.5318  0.0429
18021TIP3    H275479   5.639   1.006   2.283 -0.1197 -0.3763 -1.7791
18022TIP3   OH275480   0.423   4.228   0.343  0.1421 -0.0562 -0.1929
18022TIP3    H175481   0.499   4.208   0.398 -0.1562  0.4163  0.4044
18022TIP3    H275482   0.457   4.230   0.254  1.0524  1.2643  0.1690
18023TIP3   OH275483   1.272   0.478   0.364  0.2765  0.1863 -0.3315
18023TIP3    H175484   1.365   0.466   0.387  0.1378  0.0100  0.1343
18023TIP3    H275485   1.274   0.501   0.271  0.8819  1.6279  0.0310
18024TIP3   OH275486   1.319   3.881  16.928 -0.0151 -0.2591 -0.0865
18024TIP3    H175487   1.321   3.908  16.836 -0.0334  0.2931  0.0741
18024TIP3    H275488   1.347   3.789  16.927 -2.6217 -1.0838 -0.9185
18025TIP3   OH275489   6.039   3.639  12.017 -0.0875 -0.1554 -0.3618
18025TIP3    H175490   5.982   3.674  11.949  0.3822  0.5714 -0.3910
18025TIP3    H275491   6.100   3.582  11.971  1.6110  2.0062 -0.8901
18026TIP3   OH275492   4.694   2.467   2.110 -0.4674 -0.2772  0.3557
18026TIP3    H175493   4.749   2.534   2.069 -2.6323  0.9502 -0.6159
18026TIP3    H275494   4.676   2.405   2.040 -0.4900 -0.5623  0.6136
18027TIP3   OH275495   5.121   0.448   0.726  0.1305 -0.3679 -1.0858
18027TIP3    H175496   5.108   0.361   0.690  1.8555  0.0344 -2.7527
18027TIP3    H275497   5.180   0.491   0.664  0.0490  1.6636  0.2056
18028TIP3   OH275498   0.764   0.116  11.457  0.1310 -0.2326 -0.0050
18028TIP3    H175499   0.793   0.160  11.537  1.5673 -0.6485 -0.2852
18028TIP3    H275500   0.783   0.179  11.388  1.0271 -0.7671 -0.2620
18029TIP3   OH275501   0.879   2.384   5.749  0.0031 -0.1351  0.0513
18029TIP3    H175502   0.841   2.297   5.741  0.2594 -0.1745 -0.7770
18029TIP3    H275503   0.906   2.407   5.660  1.6305  0.0182  0.5703
18030TIP3   OH275504   6.472   6.453   5.925 -0.3440  0.1224 -0.1057
18030TIP3    H175505   6.406   6.521   5.935  0.5846  1.3862 -2.2470
18030TIP3    H275506   6.531   6.486   5.857  2.3335 -1.0781  1.5401
18031TIP3   OH275507   2.484   1.382   3.133 -0.5091 -0.0750  0.3831
18031TIP3    H175508   2.502   1.469   3.097 -1.8685  0.4663  0.9760
18031TIP3    H275509   2.486   1.395   3.228 -1.9599 -0.4277  0.4670
18032TIP3   OH275510   1.281   1.744  10.843  0.5106 -0.0056  0.4602
18032TIP3    H175511   1.246   1.661  10.811 -0.4079  1.0587 -1.3680
18032TIP3    H275512   1.341   1.772  10.774  0.2395  1.2210  0.7258
18033TIP3   OH275513   3.878   2.543  12.471  0.2443 -0.4553 -0.1033
18033TIP3    H175514   3.937   2.517  12.542  0.4919 -1.0126 -0.5097
18033TIP3    H275515   3.875   2.467  12.413  0.9554  0.3909 -1.2861
18034TIP3   OH275516   1.805   2.408  15.131  0.2446 -0.1345 -0.1201
18034TIP3    H175517   1.742   2.443  15.068  0.2998 -1.2604 -0.8181
18034TIP3    H275518   1.778   2.317  15.144  1.4151 -0.4833 -0.0370
18035TIP3   OH275519   3.269   2.046  12.205  0.7708  0.2618 -0.6825
18035TIP3    H175520   3.326   1.996  12.264  0.3472  0.2530 -0.2750
18035TIP3    H275521   3.205   1.981  12.175  0.1560  0.5789 -0.0711
18036TIP3   OH275522   2.588   1.657  16.531 -0.2533  0.3850 -0.3829
18036TIP3    H175523   2.558   1.607  16.455  3.8460 -0.0987 -1.8270
18036TIP3    H275524   2.585   1.748  16.501  0.2848  0.2817 -0.7767
18037TIP3   OH275525   4.460   2.614  15.046 -0.4296  0.1154  0.2008
18037TIP3    H175526   4.390   2.564  15.004 -0.4124  0.3441 -0.0948
18037TIP3    H275527   4.541   2.578  15.009 -0.3579 -0.6957  1.1297
18038TIP3   OH275528   5.248   6.221   1.977 -0.0538  0.1948  0.1027
18038TIP3    H175529   5.221   6.304   2.017 -0.4157  0.3401 -0.4369
18038TIP3    H275530   5.174   6.196   1.922  0.8086  0.4340 -1.1694
18039TIP3   OH275531   3.442   1.465  16.032  0.1186  0.0224  0.2199
18039TIP3    H175532   3.522   1.487  16.079 -1.9053  2.2868  2.7235
18039TIP3    H275533   3.372   1.476  16.096 -2.3489 -0.7550 -2.2226
18040TIP3   OH275534   4.540   3.578   2.768  0.1691 -0.0330  0.1241
18040TIP3    H175535   4.475   3.619   2.710  0.4962  0.5450  0.1679
18040TIP3    H275536   4.495   3.571   2.853 -0.1331 -0.4189 -0.0655
18041TIP3   OH275537   5.702   6.489   4.320 -0.0939 -0.4065  0.3132
18041TIP3    H175538   5.773   6.488   4.385 -0.0289 -1.4185  0.2442
18041TIP3    H275539   5.732   6.430   4.251 -1.9207 -2.6488  1.3287
18042TIP3   OH275540   0.842   0.407  15.071 -0.3497  0.3925  0.0461
18042TIP3    H175541   0.807   0.475  15.128  0.0042  1.1638 -0.6557
18042TIP3    H275542   0.911   0.366  15.123  0.1546  1.2751  0.0843
18043TIP3   OH275543   5.201   1.374  12.410 -0.1443 -0.3922 -0.4249
18043TIP3    H175544   5.211   1.468  12.398 -0.4956 -0.4605 -1.2956
18043TIP3    H275545   5.229   1.358  12.500  0.4589  0.4581 -0.4587
18044TIP3   OH275546   6.734   3.937   4.240  0.4020 -0.1230 -0.6726
18044TIP3    H175547   6.794   3.874   4.280  0.4201  0.5171  0.3210
18044TIP3    H275548   6.647   3.908   4.268  0.1531 -1.4447 -2.6518
18045TIP3   OH275549   5.379   1.223  13.738 -0.1415  0.8332 -0.8040
18045TIP3    H175550   5.428   1.189  13.664 -1.2681  1.7888 -2.0092
18045TIP3    H275551   5.342   1.305  13.707 -1.7598  0.5807  0.3546
18046TIP3   OH275552   2.261   3.877   3.600 -0.5736  0.2936  0.1598
18046TIP3    H175553   2.231   3.836   3.680  0.6939  1.8884  1.5058
18046TIP3    H275554   2.185   3.923   3.566 -1.4561 -1.4417 -0.2757
18047TIP3   OH275555   3.409   2.094   4.212 -0.3387 -0.2342 -0.1371
18047TIP3    H175556   3.443   2.016   4.255 -0.3783  0.0320  0.3861
18047TIP3    H275557   3.470   2.163   4.236 -1.1561  0.2145  0.6770
18048TIP3   OH275558   6.441   5.810   3.067 -0.0746 -0.2189  0.2816
18048TIP3    H175559   6.420   5.742   3.003  1.4062 -0.3322 -0.0984
18048TIP3    H275560   6.500   5.767   3.129  1.1000  0.7809 -0.1209
18049TIP3   OH275561   2.289   3.573  12.890 -0.8561  0.3242  0.4033
18049TIP3    H175562   2.251   3.542  12.808 -0.5811  0.6201  0.1664
18049TIP3    H275563   2.219   3.562  12.954 -1.0875  0.1429  0.1196
18050TIP3   OH275564   1.440   3.487  12.090  0.1624  0.2531 -0.2110
18050TIP3    H175565   1.411   3.396  12.100 -0.3730  0.4020 -0.4068
18050TIP3    H275566   1.470   3.493  11.999 -1.1504  0.6537 -0.6204
18051TIP3   OH275567   4.687   3.539   2.200 -0.7024 -0.2121  0.0088
18051TIP3    H175568   4.706   3.488   2.122  0.5018  1.4830 -0.8423
18051TIP3    H275569   4.603   3.582   2.182  0.6784  2.0186 -1.3720
18052TIP3   OH275570   2.115   1.311   3.269  0.8590  0.4118  0.2019
18052TIP3    H175571   2.075   1.255   3.335  1.6815 -0.7078 -0.2316
18052TIP3    H275572   2.124   1.396   3.312 -1.3452  0.5114  0.5252
18053TIP3   OH275573   1.109   4.964   2.547  0.1589  0.1966 -0.1761
18053TIP3    H175574   1.019   4.956   2.578 -0.2973  0.0092 -1.4953
18053TIP3    H275575   1.101   5.011   2.464  1.2739  0.0870 -0.3497
18054TIP3   OH275576   2.900   1.386   3.854  0.6652 -0.1001  0.9478
18054TIP3    H175577   2.943   1.314   3.808  1.7220 -0.0397  1.8243
18054TIP3    H275578   2.829   1.344   3.903  1.0569 -0.4930  1.1770
18055TIP3   OH275579   1.580   4.704  11.542  0.2057 -0.5569 -0.0901
18055TIP3    H175580   1.531   4.709  11.460 -0.6020  0.7026  0.4556
18055TIP3    H275581   1.607   4.612  11.549  0.5330 -0.6081 -1.9030
18056TIP3   OH275582   2.392   5.124   3.776  0.2411 -0.6518 -0.1286
18056TIP3    H175583   2.309   5.162   3.805 -0.2476 -1.6861 -0.1614
18056TIP3    H275584   2.438   5.197   3.735 -1.5203 -0.5377 -1.9981
18057TIP3   OH275585   5.389   0.376  14.202  0.3330  0.5134  0.1226
18057TIP3    H175586   5.316   0.395  14.261  0.5404 -0.1431  0.5894
18057TIP3    H275587   5.431   0.461  14.188  0.5579  0.5929  1.2848
18058TIP3   OH275588   2.459   4.701   5.932  0.2867 -0.7440  0.3948
18058TIP3    H175589   2.434   4.700   6.024 -0.3620  1.1501  0.2476
18058TIP3    H275590   2.538   4.755   5.929  0.3320 -0.8340 -0.1545
18059TIP3   OH275591   5.638   2.576  13.689  0.4928  0.2916 -0.1274
18059TIP3    H175592   5.606   2.539  13.772  2.7045  1.9717  1.5641
18059TIP3    H275593   5.624   2.670  13.698  3.2603  0.7722 -0.4593
18060TIP3   OH275594   6.295   0.307  11.615 -0.8155  0.5941 -0.3355
18060TIP3    H175595   6.253   0.253  11.548 -1.1634  0.2098  0.1758
18060TIP3    H275596   6.236   0.299  11.691 -1.0945  2.0423 -0.3896
18061TIP3   OH275597   1.866   6.313  17.095  0.0989 -0.3211  0.0173
18061TIP3    H175598   1.946   6.365  17.100 -0.1339 -0.1368  2.0910
18061TIP3    H275599   1.808   6.364  17.038  0.5023  0.8482  0.6390
18062TIP3   OH275600   1.196   5.180   5.051  0.2491  0.4413  0.0389
18062TIP3    H175601   1.256   5.114   5.084  0.6729  1.8003  2.0538
18062TIP3    H275602   1.109   5.141   5.059  0.7257 -0.9962 -1.5882
18063TIP3   OH275603   3.967   6.424   5.184 -0.0987 -0.2400  0.2452
18063TIP3    H175604   4.015   6.411   5.102 -1.1663 -2.3945 -0.0697
18063TIP3    H275605   4.031   6.405   5.253  0.4650  0.3720 -0.1080
18064TIP3   OH275606   3.052   2.371  15.117  0.2167 -0.5058  0.2658
18064TIP3    H175607   3.125   2.385  15.178  0.7272  1.0524 -0.6750
18064TIP3    H275608   2.974   2.387  15.171  0.7080  3.4008 -0.0093
18065TIP3   OH275609   5.892   6.389  13.833  0.0122 -0.0343 -0.1210
18065TIP3    H175610   5.902   6.389  13.928 -0.0100 -0.1714 -0.1189
18065TIP3    H275611   5.971   6.346  13.800  0.4979  0.9179 -0.2144
18066TIP3   OH275612   0.834   0.752   1.362  0.4394  0.5383  0.1783
18066TIP3    H175613   0.913   0.698   1.370 -0.8653 -1.5359 -0.5918
18066TIP3    H275614   0.830   0.800   1.445  2.5386  0.7446  0.1890
18067TIP3   OH275615   5.572   1.212   4.438 -0.8504  0.2311 -0.1454
18067TIP3    H175616   5.548   1.203   4.531 -1.1871 -0.3143 -0.2836
18067TIP3    H275617   5.509   1.275   4.403 -0.3899  0.8369  0.1226
18068TIP3   OH275618   6.198   1.769  16.969 -0.1813 -0.1125  0.0968
18068TIP3    H175619   6.125   1.812  17.013 -1.5465 -0.9102 -1.3467
18068TIP3    H275620   6.209   1.686  17.016 -1.0834 -0.5823 -0.5034
18069TIP3   OH275621   4.458   0.205  11.059 -0.5218  0.2689  0.2010
18069TIP3    H175622   4.497   0.259  10.989  0.6157 -0.6868  0.0768
18069TIP3    H275623   4.392   0.153  11.014 -0.2927  0.1805 -0.0368
18070TIP3   OH275624   0.566   5.532   5.442  0.0652  0.2662  0.4018
18070TIP3    H175625   0.510   5.531   5.519 -0.4543 -0.4586  0.0285
18070TIP3    H275626   0.649   5.567   5.473 -0.5527  1.2276  0.9888
18071TIP3   OH275627   3.715   6.051  14.545  0.1070 -0.2766 -0.0078
18071TIP3    H175628   3.768   6.025  14.469 -0.6038 -0.2625 -0.5254
18071TIP3    H275629   3.688   5.967  14.584  0.1142 -0.2888 -0.0289
18072TIP3   OH275630   2.172   2.648   3.224 -0.4349  0.4536 -0.2801
18072TIP3    H175631   2.159   2.553   3.216  1.0689  0.0488  1.7993
18072TIP3    H275632   2.107   2.686   3.164 -0.7426 -1.8887 -1.4816
18073TIP3   OH275633   5.333   1.796  11.774  0.0340 -0.5074 -0.0140
18073TIP3    H175634   5.428   1.810  11.778  0.1902 -2.0183  2.3965
18073TIP3    H275635   5.310   1.817  11.684  2.5315  0.6621 -0.4257
18074TIP3   OH275636   0.531   6.192  11.272 -0.0021  0.1769  0.1857
18074TIP3    H175637   0.551   6.171  11.363  0.4503  2.1306  0.5510
18074TIP3    H275638   0.527   6.106  11.228  1.4462 -0.6867  1.6912
18075TIP3   OH275639   5.100   3.501  14.247 -0.8258 -0.2798 -0.2585
18075TIP3    H175640   5.070   3.591  14.264 -0.7366 -0.6531  2.1583
18075TIP3    H275641   5.195   3.509  14.240 -0.7226 -0.3059  0.9885
18076TIP3   OH275642   5.646   5.267  12.316  0.1814  0.0218 -0.1097
18076TIP3    H175643   5.586   5.217  12.261 -0.4593 -0.1512  0.7355
18076TIP3    H275644   5.671   5.207  12.386 -0.5904  0.8746  0.9111
18077TIP3   OH275645   3.637   6.734  15.120 -0.4127  0.5513  0.0993
18077TIP3    H175646   3.588   6.726  15.039 -0.1334 -2.0097  0.1218
18077TIP3    H275647   3.727   6.717  15.096 -0.4970 -1.5781  1.0912
18078TIP3   OH275648   2.031   2.600   4.231  0.4226 -0.1017 -0.5813
18078TIP3    H175649   2.044   2.572   4.141  1.0738 -2.7170  0.2791
18078TIP3    H275650   2.099   2.666   4.246 -1.1386  2.0689 -2.6594
18079TIP3   OH275651   6.599   1.368  12.902 -0.0350 -0.3540 -0.4419
18079TIP3    H175652   6.547   1.378  12.822 -0.1572  1.9132 -0.0984
18079TIP3    H275653   6.594   1.453  12.945  1.5820 -0.9885  1.0585
18080TIP3   OH275654   1.997   6.105  15.339 -0.6384 -0.0072 -0.1119
18080TIP3    H175655   2.071   6.164  15.355 -0.4738 -0.0615 -0.6729
18080TIP3    H275656   1.935   6.126  15.409 -0.1479  0.1244  0.2945
18081TIP3   OH275657   1.073   1.132  13.659  0.3185  0.0318  0.7339
18081TIP3    H175658   1.141   1.159  13.599  1.1334 -0.2553  1.5146
18081TIP3    H275659   1.015   1.075  13.608 -0.4717  1.8946 -0.4662
18082TIP3   OH275660   5.599   1.723  12.051  0.2863  0.4319 -0.3919
18082TIP3    H175661   5.545   1.647  12.072  0.1721  1.0707  1.6726
18082TIP3    H275662   5.543   1.798  12.070  1.1270  1.0616 -0.3785
18083TIP3   OH275663   5.248   1.715   1.680 -0.1068 -0.0268 -0.5658
18083TIP3    H175664   5.240   1.804   1.645 -1.0042 -0.0354 -0.4004
18083TIP3    H275665   5.170   1.670   1.648 -0.7809 -0.1272  1.1764
18084TIP3   OH275666   3.024   6.017  12.223 -0.2240  0.1359  0.1822
18084TIP3    H175667   3.017   6.057  12.137 -2.2847 -0.7100 -0.0883
18084TIP3    H275668   3.074   6.079  12.276 -0.2775  1.3681 -1.2052
18085TIP3   OH275669   4.731   1.253   0.585 -0.1330 -0.0594 -0.3009
18085TIP3    H175670   4.715   1.314   0.512 -0.6506 -0.2908 -0.3822
18085TIP3    H275671   4.654   1.195   0.585 -1.7640  1.9613  2.4812
18086TIP3   OH275672   0.055   6.116  17.150  0.4350  0.5462  0.4251
18086TIP3    H175673   0.082   6.037  17.102 -0.1855  0.1490  0.7339
18086TIP3    H275674   0.080   6.188  17.092  0.1603  0.0882 -0.2716
18087TIP3   OH275675   6.251   5.454   6.292 -0.2385  0.1496  0.1801
18087TIP3    H175676   6.291   5.428   6.375 -0.1401  1.2859  0.4973
18087TIP3    H275677   6.198   5.379   6.266 -0.4481 -0.1216  1.3774
18088TIP3   OH275678   4.136   3.258  11.986 -0.1121  0.4904  0.1785
18088TIP3    H175679   4.199   3.288  11.921 -0.9664  1.9075 -0.0227
18088TIP3    H275680   4.095   3.339  12.018 -1.6642 -0.3814  0.4417
18089TIP3   OH275681   3.530   3.690   0.947 -0.0660  0.3501  0.0052
18089TIP3    H175682   3.617   3.722   0.926  0.3230 -1.2715 -0.8965
18089TIP3    H275683   3.493   3.757   1.005  1.0529  1.9592 -1.1240
18090TIP3   OH275684   2.898   0.526  14.170 -0.5324  0.1064 -0.4927
18090TIP3    H175685   2.827   0.590  14.176  1.3428  2.1172  1.2073
18090TIP3    H275686   2.969   0.574  14.126  1.0902 -0.5890  1.2737
18091TIP3   OH275687   2.976   1.823   4.970  0.4766  0.4736 -0.1327
18091TIP3    H175688   2.907   1.867   5.020 -0.4783  0.6942 -1.6027
18091TIP3    H275689   2.955   1.842   4.879  0.8708 -1.8276 -0.7340
18092TIP3   OH275690   3.743   6.536   1.715 -0.3612  0.6519  0.4692
18092TIP3    H175691   3.804   6.514   1.785 -0.1108 -1.2736 -0.3113
18092TIP3    H275692   3.762   6.627   1.693  0.6053  0.7885  1.8495
18093TIP3   OH275693   3.503   4.519   2.603 -0.2763  0.2144 -0.4038
18093TIP3    H175694   3.469   4.594   2.652  0.4737  0.7548 -0.7235
18093TIP3    H275695   3.559   4.556   2.536  2.4904 -0.7424  1.2821
18094TIP3   OH275696   3.850   6.187  12.044 -0.2135 -0.5896  0.3320
18094TIP3    H175697   3.772   6.170  12.097 -1.4434  0.5329 -1.0831
18094TIP3    H275698   3.859   6.109  11.989 -0.3846 -0.6933  0.4477
18095TIP3   OH275699   5.360   5.609  11.110  0.0403 -0.0975 -0.4079
18095TIP3    H175700   5.376   5.586  11.018 -0.6243 -3.4056  0.2416
18095TIP3    H275701   5.283   5.558  11.134 -0.8109  2.0056  1.5758
18096TIP3   OH275702   2.916   0.006  12.989 -0.1317 -0.2733  0.4085
18096TIP3    H175703   2.883   0.052  12.912  1.6754 -0.4958 -0.5218
18096TIP3    H275704   2.955  -0.074  12.954  0.1435 -0.6781  1.6256
18097TIP3   OH275705   4.244   1.049   5.275 -0.1131 -0.7074 -0.5039
18097TIP3    H175706   4.149   1.052   5.285  0.1605  0.4090  2.0081
18097TIP3    H275707   4.270   0.966   5.317  0.0693 -0.7971 -0.7917
18098TIP3   OH275708   1.702   0.616  16.292 -0.1107 -0.4681 -0.1212
18098TIP3    H175709   1.647   0.542  16.315 -1.7147  1.1484  1.3489
18098TIP3    H275710   1.677   0.637  16.202 -0.5870 -0.8813 -0.0881
18099TIP3   OH275711   1.562   6.101   1.227  0.6218 -0.5094  0.6107
18099TIP3    H175712   1.610   6.108   1.144 -0.4121 -1.2606 -0.0558
18099TIP3    H275713   1.477   6.064   1.203 -0.3057  0.8097  1.7841
18100TIP3   OH275714   1.441   6.477   1.569 -0.3366  0.1622  0.0949
18100TIP3    H175715   1.371   6.424   1.609 -0.0201 -1.9215 -2.0407
18100TIP3    H275716   1.428   6.467   1.475 -0.6119  4.4075 -0.4093
18101TIP3   OH275717   1.448   1.537  13.794  0.0510  0.3128  0.3585
18101TIP3    H175718   1.388   1.611  13.801  0.2804  0.3089  2.9675
18101TIP3    H275719   1.532   1.572  13.821 -0.0770 -1.1326  2.7631
18102TIP3   OH275720   4.288   0.268  14.559  0.4709 -0.5119  0.2834
18102TIP3    H175721   4.261   0.192  14.611  0.1927 -1.1481 -0.7703
18102TIP3    H275722   4.220   0.278  14.493  0.9786  0.0885 -0.1627
18103TIP3   OH275723   4.139   4.575  11.460  0.1665  0.1453  0.3035
18103TIP3    H175724   4.125   4.495  11.510 -0.2097 -0.6891 -1.1255
18103TIP3    H275725   4.227   4.604  11.485 -0.2813  0.1438  1.9860
18104TIP3   OH275726   5.977   1.010  14.593 -0.0872 -0.1759  0.0013
18104TIP3    H175727   5.972   0.948  14.666 -3.1498 -0.3843 -0.2912
18104TIP3    H275728   5.902   1.068  14.607  1.3551  2.0050 -1.0597
18105TIP3   OH275729   5.861   5.027   5.588 -0.3287 -0.2153  0.5525
18105TIP3    H175730   5.849   5.056   5.497 -0.3798  0.0032  0.6276
18105TIP3    H275731   5.909   4.945   5.581  0.0139  0.0026  0.3464
18106TIP3   OH275732   2.959   5.035  16.899 -0.2502 -0.0057 -0.1891
18106TIP3    H175733   2.959   4.960  16.959 -1.4717  0.5986  0.5882
18106TIP3    H275734   3.052   5.059  16.892 -0.1200  0.2413  1.8892
18107TIP3   OH275735   3.991   1.469   5.903  0.1075  0.4893  0.0805
18107TIP3    H175736   3.978   1.543   5.844 -0.0515 -1.2543 -2.1234
18107TIP3    H275737   4.082   1.442   5.888  0.8333  1.4492  2.3779
18108TIP3   OH275738   3.759   1.058  11.873 -0.0678 -0.4711 -0.0757
18108TIP3    H175739   3.818   1.124  11.836  0.0526 -0.3389  0.3561
18108TIP3    H275740   3.763   0.985  11.811  0.5668 -0.4717 -0.0337
18109TIP3   OH275741   4.078   4.923   2.302  0.1003 -0.0421  0.2005
18109TIP3    H175742   4.079   4.844   2.357 -0.0433 -0.7892 -0.8507
18109TIP3    H275743   4.122   4.896   2.221  2.4079  1.6919  0.8141
18110TIP3   OH275744   6.687   0.438   2.226  0.6450  0.7834 -0.9488
18110TIP3    H175745   6.720   0.527   2.216  2.7386  0.0538 -0.8327
18110TIP3    H275746   6.764   0.387   2.251 -1.0551 -0.5777  1.6949
18111TIP3   OH275747   2.164   0.469   3.175 -0.1309 -0.0881  0.0913
18111TIP3    H175748   2.149   0.421   3.094 -0.8556  0.4944 -0.1205
18111TIP3    H275749   2.088   0.526   3.184 -0.1077 -0.2179  1.2271
18112TIP3   OH275750   1.658   2.736   0.443  0.6339 -0.2931  0.4250
18112TIP3    H175751   1.748   2.706   0.448  1.0990  1.0635  0.4883
18112TIP3    H275752   1.648   2.797   0.516 -0.0994  0.1473 -0.0278
18113TIP3   OH275753   1.181   0.590   4.358 -0.5443  0.9132 -0.0299
18113TIP3    H175754   1.212   0.616   4.444 -0.9638  1.5850 -0.0756
18113TIP3    H275755   1.249   0.532   4.323  0.7318  2.5105 -0.2120
18114TIP3   OH275756   2.600   3.419  11.100  0.2364 -0.0588 -0.2068
18114TIP3    H175757   2.504   3.420  11.092  0.1660  1.2155  0.7677
18114TIP3    H275758   2.617   3.382  11.186  0.6565 -1.1924 -0.7702
18115TIP3   OH275759   2.021   2.856   0.279  0.0061 -0.4783 -0.2840
18115TIP3    H175760   2.082   2.865   0.206  0.3582 -0.7283 -0.0270
18115TIP3    H275761   2.049   2.922   0.342  2.2175 -2.8818  1.3410
18116TIP3   OH275762   5.739   2.141   4.795  0.1092 -0.3973 -0.0154
18116TIP3    H175763   5.781   2.210   4.745  2.7965 -0.5538  1.9425
18116TIP3    H275764   5.660   2.119   4.744  0.1954  2.7576 -1.6063
18117TIP3   OH275765   1.527   2.484  16.452 -1.0249  0.1684 -0.2006
18117TIP3    H175766   1.581   2.482  16.531 -1.0863 -1.8107 -0.1802
18117TIP3    H275767   1.590   2.488  16.380 -0.9315  0.5105 -0.1012
18118TIP3   OH275768   2.154   4.164  16.380  0.1181  1.0747 -0.0703
18118TIP3    H175769   2.221   4.213  16.427 -0.6832  2.6129 -0.4894
18118TIP3    H275770   2.073   4.211  16.397 -1.2124 -1.7791  1.9350
18119TIP3   OH275771   2.853   2.480   0.412 -0.1223 -0.2662  0.1160
18119TIP3    H175772   2.937   2.526   0.408 -1.1079  1.5590  0.3391
18119TIP3    H275773   2.789   2.547   0.435 -1.2352 -2.1856  2.8141
18120TIP3   OH275774   4.690   4.471   0.706 -0.1385  0.0058  0.5555
18120TIP3    H175775   4.595   4.482   0.699 -0.1180 -0.1872 -0.0475
18120TIP3    H275776   4.704   4.377   0.709 -0.0293  0.0521  1.6514
18121TIP3   OH275777   1.697   6.447  16.863  0.0956 -0.3169  0.3669
18121TIP3    H175778   1.666   6.481  16.779 -0.2447 -1.1894  0.1357
18121TIP3    H275779   1.641   6.489  16.928 -0.4806 -0.6076  0.0653
18122TIP3   OH275780   5.235   1.431  14.667  0.1212 -0.3561  0.3104
18122TIP3    H175781   5.197   1.455  14.582 -1.5251  0.4321  1.2441
18122TIP3    H275782   5.247   1.515  14.712 -2.8616 -0.9993  2.4388
18123TIP3   OH275783   4.807   3.051  15.652  0.1041  0.2214 -0.1481
18123TIP3    H175784   4.723   3.096  15.653 -0.6268 -1.1138 -0.1663
18123TIP3    H275785   4.857   3.095  15.583 -0.4802  1.1709  0.0188
18124TIP3   OH275786   5.365   3.383   3.673 -0.1524  0.3194  0.0378
18124TIP3    H175787   5.411   3.413   3.595  1.5150  0.6081  1.1052
18124TIP3    H275788   5.301   3.452   3.692  1.3927  1.6373  0.5584
18125TIP3   OH275789   4.021   6.312   2.278 -0.7180  0.3483 -0.2187
18125TIP3    H175790   4.106   6.349   2.302 -0.7971  0.5761 -0.2854
18125TIP3    H275791   3.994   6.262   2.354  0.3204 -1.2224 -0.8561
18126TIP3   OH275792   4.255   3.805  16.806 -0.2320  0.2194 -0.3628
18126TIP3    H175793   4.243   3.712  16.826 -0.4466  0.3455  0.1010
18126TIP3    H275794   4.166   3.838  16.796 -0.1560  0.3880 -0.4791
18127TIP3   OH275795   1.682   3.450   4.565 -0.1051  0.0085 -0.4558
18127TIP3    H175796   1.747   3.386   4.594 -0.9745  0.3203  2.2856
18127TIP3    H275797   1.720   3.534   4.589 -0.1335  0.3796 -1.6993
18128TIP3   OH275798   1.539   0.363   3.759  0.1556 -0.1156  0.0598
18128TIP3    H175799   1.569   0.393   3.845 -0.2006 -2.5437  1.0714
18128TIP3    H275800   1.444   0.357   3.767  0.2026 -1.3947 -0.1089
18129TIP3   OH275801   4.158   4.422   5.446  0.1193  0.1689  0.6275
18129TIP3    H175802   4.158   4.388   5.356 -0.3859  0.0328  0.6792
18129TIP3    H275803   4.250   4.421   5.471  0.7158  3.5341 -1.1556
18130TIP3   OH275804   0.255   6.225  10.535 -0.0984 -0.1843 -0.2167
18130TIP3    H175805   0.228   6.241  10.445 -1.7245  0.5966  0.3675
18130TIP3    H275806   0.175   6.194  10.579  0.9817 -1.8080  0.6612
18131TIP3   OH275807   6.138   5.330  11.347  0.2151 -0.4342 -0.1940
18131TIP3    H175808   6.158   5.377  11.427 -1.8077  0.7457 -0.3301
18131TIP3    H275809   6.084   5.256  11.376  0.4059 -0.6320 -0.3444
18132TIP3   OH275810   0.231   6.037  11.126  0.8425 -0.3631  0.1594
18132TIP3    H175811   0.255   6.073  11.041  0.8423  0.1019  0.3545
18132TIP3    H275812   0.210   6.114  11.179  0.6903 -0.6618  0.5303
18133TIP3   OH275813   1.939   5.053  13.695 -0.1543 -0.4584 -0.4864
18133TIP3    H175814   1.884   5.059  13.616  0.1399 -2.1252 -0.8563
18133TIP3    H275815   1.929   4.961  13.723  2.4414 -0.7983 -0.5658
18134TIP3   OH275816   5.884   4.220   0.843  0.1487  0.4883  0.3393
18134TIP3    H175817   5.915   4.305   0.874 -1.4993  0.8469  1.0585
18134TIP3    H275818   5.957   4.185   0.791  1.4983  1.5581  1.4895
18135TIP3   OH275819   4.034   5.572  16.927  0.3145  0.8009  0.7685
18135TIP3    H175820   4.019   5.478  16.933 -0.0932  0.8447  0.4705
18135TIP3    H275821   3.971   5.602  16.861  1.2493  1.0958  0.0151
18136TIP3   OH275822   6.538   0.675   3.815  0.3447  0.1330  0.0155
18136TIP3    H175823   6.446   0.650   3.808 -0.3529  2.0691  1.9968
18136TIP3    H275824   6.553   0.687   3.908  2.5752  0.0053 -0.2976
18137TIP3   OH275825   1.715   5.255  12.892 -0.6756  0.5012  0.1510
18137TIP3    H175826   1.796   5.219  12.927 -1.9516 -0.8979  1.7382
18137TIP3    H275827   1.667   5.179  12.858 -1.4549  1.2811 -0.5386
18138TIP3   OH275828   6.229   1.385  11.826 -0.4591  0.3053  0.1948
18138TIP3    H175829   6.260   1.434  11.902 -1.5349  1.7654 -0.2874
18138TIP3    H275830   6.304   1.384  11.766  0.0367  0.0777  0.8099
18139TIP3   OH275831   4.151   4.682  15.931  0.4941 -0.1451  0.2403
18139TIP3    H175832   4.103   4.739  15.872 -0.2033 -0.4461  0.5063
18139TIP3    H275833   4.168   4.735  16.009  2.3664  0.5995 -0.6377
18140TIP3   OH275834   2.325   6.184   3.391  0.2652  0.1728 -0.1921
18140TIP3    H175835   2.305   6.094   3.364  0.9744 -0.2544  0.6630
18140TIP3    H275836   2.287   6.191   3.479  0.0072  0.7895 -0.3525
18141TIP3   OH275837   4.610   1.128   3.260  0.4682 -0.3165  0.5254
18141TIP3    H175838   4.609   1.147   3.354 -0.5351 -0.5528  0.5704
18141TIP3    H275839   4.591   1.212   3.218 -2.2173 -0.8208  0.6603
18142TIP3   OH275840   1.923   0.167  13.404 -0.2134  0.1198 -0.1447
18142TIP3    H175841   1.995   0.228  13.423 -0.0378 -0.3674  0.7710
18142TIP3    H275842   1.850   0.224  13.382  0.3212  0.6319 -0.6235
18143TIP3   OH275843   3.099   4.348  15.013  0.1609 -0.0987 -0.1954
18143TIP3    H175844   3.167   4.368  14.948  0.8506 -1.0120  0.2283
18143TIP3    H275845   3.045   4.427  15.017  0.6432  0.2866 -1.2293
18144TIP3   OH275846   2.903   1.001  13.285  0.3241 -0.3357 -0.0869
18144TIP3    H175847   2.930   1.073  13.227 -0.2830 -1.7323 -2.1582
18144TIP3    H275848   2.840   1.041  13.345  1.0790  1.1865 -0.2781
18145TIP3   OH275849   1.685   2.585   2.047  0.8352 -0.2088  0.1226
18145TIP3    H175850   1.728   2.636   1.979  1.4081  0.8219  1.2298
18145TIP3    H275851   1.679   2.496   2.011  0.5358  0.4602 -1.5102
18146TIP3   OH275852   2.070   0.983  13.938 -0.2866  0.1888  0.0629
18146TIP3    H175853   2.068   0.892  13.909 -1.0757 -0.2286  1.4364
18146TIP3    H275854   1.996   0.992  13.997 -0.9710  2.0620 -1.0339
18147TIP3   OH275855   2.069   5.867  10.690 -0.7590 -0.2059 -0.3236
18147TIP3    H175856   2.084   5.961  10.693 -0.3125 -0.3089  0.9615
18147TIP3    H275857   1.983   5.855  10.731 -0.8762 -0.3539 -0.6051
18148TIP3   OH275858   4.510   2.766  15.464 -0.2105 -0.4223  0.5928
18148TIP3    H175859   4.419   2.795  15.474 -0.1378  0.8121 -1.9701
18148TIP3    H275860   4.557   2.844  15.436  1.6367 -1.0855  1.8167
18149TIP3   OH275861   1.188   1.597   5.278 -0.2508  0.2047 -0.1494
18149TIP3    H175862   1.269   1.558   5.311  0.6789 -0.1092 -2.6813
18149TIP3    H275863   1.121   1.572   5.342  1.0949 -2.1086  0.4180
18150TIP3   OH275864   3.675   0.472   1.270 -0.2345 -0.6465 -0.2692
18150TIP3    H175865   3.664   0.411   1.197  1.1472  0.2263 -1.2199
18150TIP3    H275866   3.732   0.427   1.331 -1.1131 -1.2382  0.1332
18151TIP3   OH275867   4.316   1.921   3.998  0.2400 -0.0661  0.2812
18151TIP3    H175868   4.232   1.963   3.977 -0.3150 -1.4054 -0.2411
18151TIP3    H275869   4.292   1.847   4.054  0.8671 -1.5624 -1.3862
18152TIP3   OH275870   1.368   3.372  13.151  0.1874  0.3972  0.2488
18152TIP3    H175871   1.299   3.436  13.168  0.2865  0.8980 -1.1307
18152TIP3    H275872   1.383   3.378  13.057  1.0384 -0.8122  0.2957
18153TIP3   OH275873   5.781   2.141   0.846  0.2818  0.7792 -0.2072
18153TIP3    H175874   5.790   2.154   0.751  2.5378  0.4530 -0.0577
18153TIP3    H275875   5.745   2.224   0.878  1.5029  1.6508 -1.0652
18154TIP3   OH275876   1.229   5.840   5.438  0.2022  0.0269 -0.1820
18154TIP3    H175877   1.219   5.909   5.504 -0.0894  0.2942 -0.4975
18154TIP3    H275878   1.179   5.766   5.472  0.1518  0.1235 -0.0473
18155TIP3   OH275879   3.339   6.365   2.229 -0.4755 -0.0692 -0.1255
18155TIP3    H175880   3.317   6.456   2.209  0.4206 -0.0044 -0.8532
18155TIP3    H275881   3.256   6.318   2.221 -1.2123  0.8866  1.5551
18156TIP3   OH275882   5.359   5.913  16.756  0.4794  0.1312 -0.1394
18156TIP3    H175883   5.343   5.854  16.682 -0.7194  1.8296 -1.2787
18156TIP3    H275884   5.277   5.963  16.765  1.8515  2.4264  0.0226
18157TIP3   OH275885   5.831   3.538  11.567 -0.4864  0.4872  0.7440
18157TIP3    H175886   5.864   3.491  11.491 -0.7729 -0.0826  0.9734
18157TIP3    H275887   5.739   3.555  11.546 -2.1492 -4.4801  3.2483
18158TIP3   OH275888   1.266   2.908  11.744 -0.4339 -0.0119  0.2989
18158TIP3    H175889   1.289   2.991  11.702 -0.7319 -0.7171 -1.2981
18158TIP3    H275890   1.172   2.899  11.728 -1.0819  0.9172  3.3110
18159TIP3   OH275891   5.967   0.183  14.577 -0.8274  0.0509 -0.7110
18159TIP3    H175892   5.932   0.178  14.666  1.9827  0.5140  0.4824
18159TIP3    H275893   6.059   0.158  14.586 -0.6502 -0.5234 -3.6084
18160TIP3   OH275894   1.663   1.604   6.204  0.3669 -0.0245  0.2909
18160TIP3    H175895   1.755   1.632   6.207 -0.4924  2.7711  2.8315
18160TIP3    H275896   1.641   1.586   6.296 -0.8471 -3.5483 -0.6102
18161TIP3   OH275897   0.430   2.324   0.495  0.1130  0.4509 -0.0627
18161TIP3    H175898   0.512   2.274   0.490  0.0658  0.5121 -1.7732
18161TIP3    H275899   0.451   2.408   0.455 -0.0262  1.5478  2.0896
18162TIP3   OH275900   0.394   6.573  12.163 -0.5409  0.4054 -0.6989
18162TIP3    H175901   0.409   6.637  12.233  0.6695 -1.7184  1.0279
18162TIP3    H275902   0.299   6.577  12.148 -0.4005  3.1005 -1.1499
18163TIP3   OH275903   3.542   0.733   3.538 -0.0937 -0.0486  0.6658
18163TIP3    H175904   3.568   0.772   3.621  1.7442  0.1648  0.0140
18163TIP3    H275905   3.624   0.706   3.497 -0.9981 -0.4713 -0.9211
18164TIP3   OH275906   1.401   0.050   0.216  0.1889  0.3656 -0.0853
18164TIP3    H175907   1.473   0.113   0.213 -0.6179  1.2494 -1.1238
18164TIP3    H275908   1.351   0.073   0.294  0.5108  0.3090  0.1404
18165TIP3   OH275909   3.997   1.201  10.594 -0.0506 -0.1598  0.0715
18165TIP3    H175910   4.087   1.179  10.615  0.1587 -1.7588 -2.2709
18165TIP3    H275911   4.000   1.231  10.503 -1.9360 -0.7137 -0.2063
18166TIP3   OH275912   6.531   1.124  14.743  0.2078  0.3152  0.3478
18166TIP3    H175913   6.448   1.091  14.707  0.1022  2.6717 -1.6881
18166TIP3    H275914   6.506   1.166  14.825 -0.2887 -0.7420  0.7609
18167TIP3   OH275915   0.490   3.483  13.408  0.2599  0.0087 -0.5519
18167TIP3    H175916   0.519   3.548  13.472 -0.6091  0.7825 -0.9432
18167TIP3    H275917   0.447   3.415  13.461  3.4436 -1.5936  0.1402
18168TIP3   OH275918   0.357   6.302  14.956  0.0155  0.4186 -0.1805
18168TIP3    H175919   0.262   6.318  14.959 -0.2045 -0.8587 -0.3085
18168TIP3    H275920   0.392   6.376  14.906 -1.2840 -0.8381 -3.0099
18169TIP3   OH275921   4.422   1.748  13.052 -0.5236 -0.3576 -0.5200
18169TIP3    H175922   4.478   1.683  13.096  0.4919  0.9200  0.1108
18169TIP3    H275923   4.483   1.808  13.010 -1.4770 -0.4442 -2.0651
18170TIP3   OH275924   1.185   4.694  14.861 -0.4226 -0.2679  0.3077
18170TIP3    H175925   1.163   4.716  14.771 -1.1340 -0.7340  0.3702
18170TIP3    H275926   1.214   4.603  14.857 -1.4382 -0.6100  0.7118
18171TIP3   OH275927   2.802   2.445  14.596  0.5058 -0.5488  0.0472
18171TIP3    H175928   2.783   2.534  14.627  1.6494 -0.0977 -0.5261
18171TIP3    H275929   2.895   2.447  14.574 -0.0806 -1.1013 -2.6284
18172TIP3   OH275930   1.924   5.854   4.108  0.2977 -0.2279  0.5188
18172TIP3    H175931   1.906   5.891   4.021 -1.1379 -0.5797  0.6516
18172TIP3    H275932   1.903   5.925   4.169 -2.9563 -1.3091  0.8079
18173TIP3   OH275933   4.848   6.073  11.459  0.7994 -0.0008 -0.2496
18173TIP3    H175934   4.930   6.109  11.425  1.0564 -0.8751 -0.5445
18173TIP3    H275935   4.842   5.985  11.422  0.6576 -0.6437  1.2748
18174TIP3   OH275936   5.676   5.771   3.920  0.4039  0.2342  0.1451
18174TIP3    H175937   5.678   5.803   3.830 -1.2733  0.4566  0.1611
18174TIP3    H275938   5.666   5.676   3.913 -0.0948  0.2891  0.0905
18175TIP3   OH275939   1.735   5.104   2.133  0.2550  0.0767 -0.3259
18175TIP3    H175940   1.645   5.133   2.117  0.2994  0.5461  0.2686
18175TIP3    H275941   1.789   5.170   2.091  0.3210 -0.3826 -0.9705
18176TIP3   OH275942   1.046   6.112   1.185 -0.6850 -0.0536  0.2412
18176TIP3    H175943   1.017   6.028   1.220 -1.4851  0.0045 -0.2704
18176TIP3    H275944   0.974   6.172   1.206 -0.0829  0.5262  0.6862
18177TIP3   OH275945   2.814   3.846  15.774  0.3870  0.2265  0.1557
18177TIP3    H175946   2.798   3.828  15.682 -2.5656 -1.0265  0.8562
18177TIP3    H275947   2.736   3.893  15.804 -0.1217 -2.0389  2.6679
18178TIP3   OH275948   0.798   5.170  12.329 -0.1403  0.7355  0.3104
18178TIP3    H175949   0.844   5.233  12.385 -0.1232  1.3991 -0.4293
18178TIP3    H275950   0.859   5.097  12.321 -0.6727  0.0664  2.1886
18179TIP3   OH275951   2.289   5.514  13.118  0.1481 -0.2398 -0.5127
18179TIP3    H175952   2.320   5.485  13.033  0.7272  1.9198 -1.0743
18179TIP3    H275953   2.257   5.603  13.103 -1.3108 -0.4522  1.1762
18180TIP3   OH275954   1.704   0.454  13.384  0.0539  0.5027 -0.0597
18180TIP3    H175955   1.730   0.463  13.476 -2.9655  1.8736  0.7217
18180TIP3    H275956   1.768   0.508  13.337  1.9782 -0.6594  1.1281
18181TIP3   OH275957   3.184   2.469   4.522  0.1988  0.1566 -0.3292
18181TIP3    H175958   3.193   2.494   4.430 -0.2012 -1.1392 -0.7280
18181TIP3    H275959   3.221   2.381   4.527  0.0289  0.1388  0.7160
18182TIP3   OH275960   5.449   5.138   1.657  0.3576 -0.2802 -0.1883
18182TIP3    H175961   5.400   5.156   1.737  1.1659  0.1165  0.2259
18182TIP3    H275962   5.457   5.223   1.614  0.0038 -0.4776 -0.6469
18183TIP3   OH275963   5.792   4.625   5.521  0.1527  0.3719 -0.2152
18183TIP3    H175964   5.847   4.623   5.600  0.5868  0.0278 -0.5279
18183TIP3    H275965   5.761   4.535   5.512  0.5904  0.2804 -0.7869
18184TIP3   OH275966   3.381   1.078  15.032 -0.2791 -0.2673  0.5760
18184TIP3    H175967   3.304   1.041  15.073 -0.1279  0.2903  1.3606
18184TIP3    H275968   3.390   1.029  14.950 -0.8010 -1.1070  1.0157
18185TIP3   OH275969   4.852   1.789   1.659  0.1473  0.4067  0.9950
18185TIP3    H175970   4.830   1.879   1.681 -1.3330  0.3588 -0.2612
18185TIP3    H275971   4.774   1.739   1.684  0.1966 -0.2502 -0.1761
18186TIP3   OH275972   6.467   1.730   5.601 -0.5049  0.0496  0.2911
18186TIP3    H175973   6.419   1.800   5.646 -3.0417 -1.3382 -0.1507
18186TIP3    H275974   6.491   1.669   5.671 -1.4335 -0.4092  0.2096
18187TIP3   OH275975   0.336   0.153   1.693 -1.1708 -0.3938 -0.0674
18187TIP3    H175976   0.327   0.135   1.600  0.2783 -0.9545 -0.1143
18187TIP3    H275977   0.431   0.158   1.708 -1.3568 -1.2199  1.5502
18188TIP3   OH275978   0.126   4.040   3.230  0.1354  0.3588 -0.2345
18188TIP3    H175979   0.101   3.955   3.264 -1.1256  0.9519  0.3745
18188TIP3    H275980   0.055   4.064   3.171  0.5493  0.9187 -0.5093
18189TIP3   OH275981   1.363   6.656  14.317 -0.3028 -0.3407 -0.0294
18189TIP3    H175982   1.366   6.583  14.379 -0.7625 -0.1874  0.1709
18189TIP3    H275983   1.454   6.667  14.289 -0.2424 -1.0481 -0.1285
18190TIP3   OH275984   3.007   4.563  12.591 -0.3337  0.1313 -0.4496
18190TIP3    H175985   3.066   4.490  12.569  1.7772  1.2526  1.2843
18190TIP3    H275986   3.005   4.616  12.512 -2.7775 -2.3203 -2.1274
18191TIP3   OH275987   1.297   0.450  14.290  0.1504 -0.2632 -0.1413
18191TIP3    H175988   1.236   0.507  14.337  2.1884  1.1412  0.9329
18191TIP3    H275989   1.340   0.508  14.227  2.6757 -0.4390  1.3621
18192TIP3   OH275990   1.973   2.217  15.765 -0.3282  0.0491 -0.1678
18192TIP3    H175991   1.917   2.223  15.842 -0.3858  0.9765 -0.2690
18192TIP3    H275992   2.060   2.241  15.796  0.0728 -1.5907  0.0322
18193TIP3   OH275993   1.237   4.498   1.870 -0.2456 -0.0777 -0.4644
18193TIP3    H175994   1.250   4.540   1.955 -1.8868  0.3255 -0.3847
18193TIP3    H275995   1.325   4.478   1.839  0.3765 -0.0120  1.2216
18194TIP3   OH275996   0.424   3.370  15.175  0.1252 -0.0976  0.1848
18194TIP3    H175997   0.486   3.300  15.198 -1.5941 -2.0948 -1.1046
18194TIP3    H275998   0.427   3.373  15.079 -0.7950  0.7177  0.1818
18195TIP3   OH275999   6.448   0.181   0.954  0.1027  0.0085  0.7297
18195TIP3    H176000   6.486   0.265   0.930  0.0535 -0.4699 -1.0768
18195TIP3    H276001   6.522   0.125   0.975  0.2210  0.0836  0.5135
18196TIP3   OH276002   6.394   6.056  15.685 -0.3512 -0.8673 -0.0651
18196TIP3    H176003   6.378   6.123  15.751  2.8284  0.7620 -0.8448
18196TIP3    H276004   6.354   6.091  15.605  2.0901  0.6002 -0.6925
18197TIP3   OH276005   2.199   5.756   1.170 -0.3219 -0.0676  0.4510
18197TIP3    H176006   2.261   5.685   1.153  0.9734  1.3474 -0.8664
18197TIP3    H276007   2.116   5.724   1.136  0.6449 -0.2546 -1.7703
18198TIP3   OH276008   5.554   5.925  13.811 -1.1991 -0.0963  0.0297
18198TIP3    H176009   5.520   5.961  13.730 -3.2106 -1.7077  0.0840
18198TIP3    H276010   5.523   5.985  13.879  2.6597  2.6854 -0.5339
18199TIP3   OH276011   4.541   2.659  10.628 -0.0985  0.3048 -0.8747
18199TIP3    H176012   4.559   2.630  10.717  1.5143 -1.3597 -1.7200
18199TIP3    H276013   4.548   2.755  10.632  0.9811  0.1721  0.5465
18200TIP3   OH276014   0.469   3.543   0.353 -0.0042 -0.3576  0.8663
18200TIP3    H176015   0.512   3.566   0.270 -0.1759 -1.6398  0.4186
18200TIP3    H276016   0.541   3.537   0.416  0.0040  1.8481  1.1025
18201TIP3   OH276017   4.126   4.451   4.766  0.3925  0.1781 -0.0542
18201TIP3    H176018   4.080   4.517   4.714  1.1839  2.3970  1.9682
18201TIP3    H276019   4.107   4.368   4.723 -2.3943  1.4880 -1.4311
18202TIP3   OH276020   6.139   2.648   3.303 -0.7035 -0.1138 -0.1520
18202TIP3    H176021   6.141   2.712   3.231 -0.0425 -0.7432 -0.7034
18202TIP3    H276022   6.213   2.671   3.358 -1.7817  0.9734  0.8758
18203TIP3   OH276023   0.427   5.768   1.365  0.1037 -0.4271 -0.3997
18203TIP3    H176024   0.416   5.863   1.371  0.0088 -0.2942 -2.2275
18203TIP3    H276025   0.359   5.740   1.304  2.3470 -1.1478 -2.7042
18204TIP3   OH276026   5.454   1.385   0.071 -0.3113  0.5645 -0.5524
18204TIP3    H176027   5.451   1.477   0.098 -0.1514  0.3264  0.2786
18204TIP3    H276028   5.385   1.343   0.122 -1.3354  0.4889 -1.9722
18205TIP3   OH276029   1.245   5.708  14.166 -0.1313 -0.2198 -0.5539
18205TIP3    H176030   1.285   5.657  14.095 -1.3540 -2.1456  0.1160
18205TIP3    H276031   1.154   5.678  14.169 -0.7159  1.5852  0.2487
18206TIP3   OH276032   1.480   5.949  14.277 -0.3253 -0.3443  0.2872
18206TIP3    H176033   1.458   5.962  14.185 -2.2187 -0.6067  0.6811
18206TIP3    H276034   1.465   5.855  14.292  0.4216 -0.3940  0.7453
18207TIP3   OH276035   2.871   0.138  14.793 -0.6112  0.4194 -0.1982
18207TIP3    H176036   2.831   0.173  14.714 -0.3218  1.5975  0.1667
18207TIP3    H276037   2.809   0.073  14.826 -0.8652  0.1419 -1.2241
18208TIP3   OH276038   6.306   0.897  14.881 -0.0368  0.0162  0.5854
18208TIP3    H176039   6.352   0.937  14.955  1.1009  1.0333 -0.6477
18208TIP3    H276040   6.214   0.904  14.904  0.1745  2.4807  0.8772
18209TIP3   OH276041   2.962   4.438  12.829  0.0342 -0.2761  0.5562
18209TIP3    H176042   3.033   4.484  12.874 -1.3824  0.1082  2.4846
18209TIP3    H276043   2.959   4.477  12.742  2.5422 -0.6974  0.2442
18210TIP3   OH276044   1.520   0.841  11.051  0.0857 -0.8461 -0.1278
18210TIP3    H176045   1.461   0.897  11.102  0.3211 -0.9121  0.2210
18210TIP3    H276046   1.556   0.899  10.984 -0.9236 -0.9777 -0.7931
18211TIP3   OH276047   3.513   1.621  13.961 -0.2986 -0.0904  0.2419
18211TIP3    H176048   3.527   1.547  14.020  0.3985 -0.9490 -0.9931
18211TIP3    H276049   3.427   1.655  13.987 -0.2507 -0.7876  1.3862
18212TIP3   OH276050   5.785   4.664  11.553  0.4216  0.0475  0.6705
18212TIP3    H176051   5.767   4.713  11.634  0.4111  0.6992  0.2795
18212TIP3    H276052   5.876   4.637  11.561 -0.1654 -1.6431  1.8174
18213TIP3   OH276053   4.440   3.716   1.006  0.1690 -0.2077  0.1330
18213TIP3    H176054   4.407   3.631   1.034  0.6260  0.1470  1.7936
18213TIP3    H276055   4.534   3.703   0.992 -0.3103 -0.8000 -2.9799
18214TIP3   OH276056   2.651   0.533   4.763  0.1120  0.2672  0.3860
18214TIP3    H176057   2.560   0.505   4.756 -0.2772  0.9465  2.2931
18214TIP3    H276058   2.693   0.464   4.815 -0.0949  1.5540  2.3029
18215TIP3   OH276059   4.442   4.223   1.553 -1.0429  0.7628  0.7561
18215TIP3    H176060   4.508   4.284   1.584 -0.5067 -0.6368  2.4508
18215TIP3    H276061   4.476   4.191   1.469 -0.8379  2.0096  0.3637
18216TIP3   OH276062   2.638   5.808   2.422 -0.0574 -0.4850  0.0250
18216TIP3    H176063   2.619   5.897   2.392  0.6203 -0.3730 -0.0841
18216TIP3    H276064   2.710   5.778   2.367 -0.9590 -1.4969 -0.6259
18217TIP3   OH276065   3.872   6.759   2.503  0.1491 -0.4015  0.1691
18217TIP3    H176066   3.840   6.770   2.413  2.1382  1.1580 -0.3701
18217TIP3    H276067   3.910   6.671   2.504  0.2201 -0.3804 -0.5236
18218TIP3   OH276068   1.716   1.275   1.354 -0.6675 -0.2195  0.7471
18218TIP3    H176069   1.772   1.330   1.299  1.3325 -3.3346 -0.4498
18218TIP3    H276070   1.756   1.278   1.440  0.4846 -1.2350  0.2524
18219TIP3   OH276071   0.145   2.375  11.459  0.1569 -0.0293 -0.2011
18219TIP3    H176072   0.140   2.330  11.375 -0.4509  0.2744 -0.3316
18219TIP3    H276073   0.100   2.458  11.445 -0.1868 -0.0900  0.4979
18220TIP3   OH276074   3.288   5.267   3.565  0.0598  0.0142  0.1051
18220TIP3    H176075   3.318   5.302   3.480  2.6623  1.4487  1.5474
18220TIP3    H276076   3.213   5.322   3.588 -1.2209 -0.9436 -1.6418
18221TIP3   OH276077   6.240   5.748  16.861 -0.6090 -0.0396  0.8491
18221TIP3    H176078   6.302   5.732  16.932  0.6539 -1.3126 -0.4972
18221TIP3    H276079   6.227   5.662  16.821 -0.5683  0.8117 -1.0568
18222TIP3   OH276080   3.919   4.373   3.576 -0.2733 -0.0924  0.5436
18222TIP3    H176081   3.833   4.346   3.543 -0.4559  1.4093 -0.2641
18222TIP3    H276082   3.900   4.413   3.661 -0.4844  0.8141  0.0882
18223TIP3   OH276083   4.705   4.257   2.269  0.4100  0.4534  0.0792
18223TIP3    H176084   4.647   4.331   2.249  0.3560  0.3301 -0.2205
18223TIP3    H276085   4.706   4.253   2.364  0.9653  1.2828  0.1162
18224TIP3   OH276086   6.778   0.076   1.683 -0.3354 -0.4270 -0.4775
18224TIP3    H176087   6.829   0.141   1.636  1.0863  0.0319  1.6296
18224TIP3    H276088   6.687   0.102   1.669  0.2007  1.6898 -0.1578
18225TIP3   OH276089   0.615   6.390  10.449  0.0770 -0.5597  0.6267
18225TIP3    H176090   0.628   6.400  10.543  0.3104 -0.2331  0.5590
18225TIP3    H276091   0.683   6.328  10.422 -1.0449 -1.9688  0.9576
18226TIP3   OH276092   6.355   1.750   3.772 -0.4466  0.1932  0.3430
18226TIP3    H176093   6.447   1.728   3.759 -0.9738 -2.2547  0.5706
18226TIP3    H276094   6.356   1.811   3.846  0.9647 -0.0678  0.5621
18227TIP3   OH276095   2.583   0.824   3.313 -0.1210  0.4602  0.4905
18227TIP3    H176096   2.504   0.799   3.265 -0.5378  2.4460  0.1015
18227TIP3    H276097   2.630   0.883   3.254  1.8935 -1.0221  0.5443
18228TIP3   OH276098   2.193   3.202   4.275 -0.6111 -0.1522  0.4470
18228TIP3    H176099   2.289   3.202   4.279 -0.5803 -2.3704  0.0460
18228TIP3    H276100   2.165   3.158   4.355 -1.3172  0.9818  0.8317
18229TIP3   OH276101   4.758   2.440  13.891 -0.2431 -0.2346 -0.5999
18229TIP3    H176102   4.664   2.452  13.904 -0.1234  1.1889 -0.9522
18229TIP3    H276103   4.799   2.495  13.958  0.3460 -0.7839 -0.5008
18230TIP3   OH276104   0.471   5.531   4.603 -0.3699  0.9098  0.0798
18230TIP3    H176105   0.426   5.457   4.562  0.1180 -0.1946  1.4845
18230TIP3    H276106   0.554   5.537   4.557  0.1246 -0.2434  0.8063
18231TIP3   OH276107   6.001   4.205   5.044  0.3003 -0.2883 -0.3481
18231TIP3    H176108   5.914   4.241   5.058  0.8834  0.8304  0.4402
18231TIP3    H276109   6.002   4.179   4.952 -0.6036  0.4033 -0.5524
18232TIP3   OH276110   4.293   2.249   5.940 -0.6980  0.3983 -0.0637
18232TIP3    H176111   4.230   2.321   5.933 -0.4456  0.5288 -1.1440
18232TIP3    H276112   4.243   2.171   5.912  0.1537  0.8253 -2.9785
18233TIP3   OH276113   4.219   6.336   0.590  0.6465 -0.2934 -0.1990
18233TIP3    H176114   4.249   6.334   0.681 -0.8185  1.6971  0.3607
18233TIP3    H276115   4.141   6.281   0.589  3.1791 -3.9975 -1.2662
18234TIP3   OH276116   6.707   1.057  11.570 -0.1117  0.4227 -0.4926
18234TIP3    H176117   6.800   1.074  11.587  0.0888 -0.7870 -0.2981
18234TIP3    H276118   6.698   1.069  11.475  0.2359  0.5818 -0.5068
18235TIP3   OH276119   0.942   1.260  13.339 -0.3873 -0.1876 -0.0452
18235TIP3    H176120   0.936   1.334  13.279  1.8814  0.6115  0.6668
18235TIP3    H276121   1.009   1.204  13.301 -0.6180 -0.8502  0.5172
18236TIP3   OH276122   2.190   3.530   1.834  0.0705 -0.1695  0.4109
18236TIP3    H176123   2.175   3.491   1.748 -1.3857  0.6078  0.3031
18236TIP3    H276124   2.247   3.605   1.817  3.1353 -2.3438  0.6527
18237TIP3   OH276125   6.349   4.040   3.364  0.0157 -0.1433  0.2244
18237TIP3    H176126   6.349   4.029   3.459 -0.1938 -0.1407  0.2238
18237TIP3    H276127   6.368   3.952   3.330 -1.4372 -0.4730  0.2261
18238TIP3   OH276128   3.127   1.912  14.882 -0.4049  0.4640  0.0254
18238TIP3    H176129   3.150   1.822  14.905  0.1441  0.5057 -0.3649
18238TIP3    H276130   3.137   1.916  14.787 -0.5179  0.9118  0.0322
18239TIP3   OH276131   2.213   2.211   2.518  0.4092 -0.0534  0.0977
18239TIP3    H176132   2.283   2.155   2.553  0.3649 -0.3245 -0.2449
18239TIP3    H276133   2.143   2.204   2.583  1.5829  2.0896  1.6318
18240TIP3   OH276134   5.470   3.741   6.777  0.2902  0.0636  0.3000
18240TIP3    H176135   5.563   3.750   6.794  0.2634 -0.4387  0.7256
18240TIP3    H276136   5.449   3.813   6.717  0.7178  0.8597  1.1054
18241TIP3   OH276137   5.130   0.796   1.826  0.1019 -0.0281  0.4552
18241TIP3    H176138   5.101   0.760   1.910 -1.9018  2.9487  1.1181
18241TIP3    H276139   5.171   0.880   1.849  0.7750  0.1754 -1.4217
18242TIP3   OH276140   5.085   1.466   5.100 -0.1738 -0.3320 -0.2846
18242TIP3    H176141   5.071   1.437   5.191  0.3594  0.3932  0.0321
18242TIP3    H276142   5.015   1.423   5.051 -0.2444 -1.0327  0.4068
18243TIP3   OH276143   4.765   0.362  16.699 -0.0592 -0.1301 -0.3198
18243TIP3    H176144   4.845   0.364  16.645 -0.4190 -1.0092 -0.9148
18243TIP3    H276145   4.790   0.312  16.776  0.3091  0.6619  0.0761
18244TIP3   OH276146   0.831   4.439  15.498 -0.5877  0.4841  0.0915
18244TIP3    H176147   0.741   4.470  15.495 -0.3076  1.3919  0.8704
18244TIP3    H276148   0.859   4.453  15.588  0.1543 -0.2971 -0.0122
18245TIP3   OH276149   0.123   6.660   0.378 -0.1515  0.0877 -0.2594
18245TIP3    H176150   0.089   6.621   0.297  0.5357  1.1909 -1.1010
18245TIP3    H276151   0.066   6.735   0.394 -0.6085 -0.4358  0.5743
18246TIP3   OH276152   4.586   4.507   2.260 -0.5398  0.4980 -0.2011
18246TIP3    H176153   4.661   4.551   2.220 -0.6659  0.9203  0.0238
18246TIP3    H276154   4.533   4.578   2.296 -1.0741  0.2050 -0.4054
18247TIP3   OH276155   1.425   2.154   2.931  0.1768  0.1005  0.2848
18247TIP3    H176156   1.330   2.163   2.924  0.1199 -1.8048 -1.8633
18247TIP3    H276157   1.457   2.169   2.842  1.9402  1.0313  1.0489
18248TIP3   OH276158   1.362   2.329  12.353 -0.5592  0.0007  0.0159
18248TIP3    H176159   1.358   2.266  12.425 -0.0135 -0.5820 -0.4599
18248TIP3    H276160   1.394   2.410  12.394  0.9562 -0.6746  0.1927
18249TIP3   OH276161   4.790   4.448  13.291 -0.7591 -0.2223 -0.4088
18249TIP3    H176162   4.837   4.404  13.361 -0.9755 -1.5711 -1.0879
18249TIP3    H276163   4.729   4.382  13.258 -0.7347  0.4166 -1.7858
18250TIP3   OH276164   6.125   2.091   2.742 -0.1371 -0.3337 -0.0724
18250TIP3    H176165   6.101   2.029   2.672 -1.9073  1.1901 -0.8400
18250TIP3    H276166   6.057   2.158   2.740  0.3670  0.3101  2.4444
18251TIP3   OH276167   1.571   0.715  12.137  0.3758 -0.0504  0.4531
18251TIP3    H176168   1.598   0.667  12.059 -0.4749 -1.2224  0.8666
18251TIP3    H276169   1.653   0.746  12.176  0.7645  1.4973 -1.4751
18252TIP3   OH276170   3.787   2.361   5.120  0.7867 -0.3330 -0.1094
18252TIP3    H176171   3.860   2.334   5.175 -0.5696  0.2415  2.0166
18252TIP3    H276172   3.750   2.437   5.163 -1.5823 -1.0908 -0.6912
18253TIP3   OH276173   4.788   3.015  17.206 -0.0178 -0.2616  0.1594
18253TIP3    H176174   4.830   3.014  17.292 -0.0260 -0.0976  0.1656
18253TIP3    H276175   4.695   3.026  17.224 -0.1163 -1.1119  0.1594
18254TIP3   OH276176   2.402   0.486   5.902  0.1130 -0.2386  0.0711
18254TIP3    H176177   2.472   0.420   5.901  2.5868  2.2611  0.8765
18254TIP3    H276178   2.433   0.555   5.843 -1.6877  0.9550  0.4759
18255TIP3   OH276179   3.950   6.715   4.534  0.2750  0.1100  0.2565
18255TIP3    H176180   3.933   6.640   4.478 -1.0561 -0.2963  1.1533
18255TIP3    H276181   3.873   6.771   4.523  0.6263  0.6730  0.6234
18256TIP3   OH276182   0.495   0.740  13.990 -0.1014  0.2373 -0.1220
18256TIP3    H176183   0.484   0.688  13.910  1.0696  1.5786 -1.1775
18256TIP3    H276184   0.416   0.721  14.041 -0.0480 -1.9915 -0.8027
18257TIP3   OH276185   3.284   0.183   1.995 -0.4052  0.2791  0.5160
18257TIP3    H176186   3.294   0.215   2.085 -0.5049 -1.9826  1.3515
18257TIP3    H276187   3.190   0.183   1.979 -0.3316  1.7434 -0.0065
18258TIP3   OH276188   3.823   1.724   2.031 -0.6238  0.1212  0.0929
18258TIP3    H176189   3.735   1.761   2.041 -0.0184  2.1821 -1.7600
18258TIP3    H276190   3.872   1.760   2.105 -0.8287  0.5301  0.0316
18259TIP3   OH276191   1.247   4.127  15.452  0.3305  0.2269  0.6263
18259TIP3    H176192   1.331   4.148  15.494  1.0972 -0.4090 -0.5568
18259TIP3    H276193   1.204   4.068  15.514  0.8107  0.4486  1.1784
18260TIP3   OH276194   4.208   0.421  15.503  0.8219 -0.5624  0.1828
18260TIP3    H176195   4.224   0.456  15.415  0.8376  0.5227  0.6093
18260TIP3    H276196   4.202   0.499  15.559 -0.7318 -1.1616  0.8874
18261TIP3   OH276197   5.990   5.331  15.215 -0.3918  0.1099  0.2055
18261TIP3    H176198   5.905   5.332  15.171 -0.4552 -0.9697  0.2983
18261TIP3    H276199   6.018   5.239  15.212  1.0259  0.5322 -0.3164
18262TIP3   OH276200   3.332   5.781   0.839 -0.0375 -0.5316  0.5138
18262TIP3    H176201   3.384   5.791   0.919  0.4942  1.6524 -0.0933
18262TIP3    H276202   3.267   5.851   0.844  0.5232  0.1463 -1.3612
18263TIP3   OH276203   1.433   1.437  13.477  0.5205 -0.2849  0.3202
18263TIP3    H176204   1.384   1.382  13.538 -1.9460  1.6281  0.1501
18263TIP3    H276205   1.418   1.526  13.508  0.6713  0.6088 -2.0689
18264TIP3   OH276206   1.767   3.169   3.308  0.2352 -0.6162  0.0596
18264TIP3    H176207   1.706   3.243   3.314 -0.3017 -1.0193 -0.3853
18264TIP3    H276208   1.841   3.203   3.257 -0.3109 -0.5806 -0.7091
18265TIP3   OH276209   0.110   4.391  11.345 -0.8917 -0.0851 -0.0550
18265TIP3    H176210   0.118   4.296  11.339 -2.3441 -0.2585  0.4920
18265TIP3    H276211   0.083   4.418  11.257 -0.2165 -0.1416 -0.2859
18266TIP3   OH276212   4.048   3.629   0.019  0.5915  0.2968 -0.0547
18266TIP3    H176213   4.121   3.663   0.072  0.0303  0.9390  0.3158
18266TIP3    H276214   4.088   3.562  -0.036  0.9483 -1.3948  2.1654
18267TIP3   OH276215   2.618   1.891   3.150 -0.2140 -0.2917 -0.3559
18267TIP3    H176216   2.682   1.906   3.220 -0.8017  1.0762 -0.1101
18267TIP3    H276217   2.538   1.935   3.180 -0.6189 -0.1048 -1.6770
18268TIP3   OH276218   6.577   5.093   1.989 -0.5106 -0.3299  0.0063
18268TIP3    H176219   6.512   5.157   1.959 -0.9058 -1.1163 -0.8277
18268TIP3    H276220   6.552   5.011   1.946  1.1113 -0.6141 -0.4253
18269TIP3   OH276221   4.568   4.336  13.116 -0.1253  0.2248 -0.2258
18269TIP3    H176222   4.520   4.382  13.048  1.6623  2.1897 -0.2188
18269TIP3    H276223   4.645   4.301  13.072 -0.5918 -1.2805  0.1375
18270TIP3   OH276224   3.093   0.511  15.810  0.0068  0.6099  0.2020
18270TIP3    H176225   3.004   0.544  15.813 -0.9924 -2.0369  0.6754
18270TIP3    H276226   3.120   0.523  15.719 -2.5349 -2.7290 -1.1092
18271TIP3   OH276227   6.550   1.869  13.343 -0.4105  0.0573  0.3036
18271TIP3    H176228   6.561   1.945  13.286  1.8979 -1.7018 -1.7099
18271TIP3    H276229   6.611   1.804  13.308 -1.9003 -2.5241  2.3287
18272TIP3   OH276230   1.480   3.519   6.565 -0.2535  0.2619  0.8218
18272TIP3    H176231   1.447   3.463   6.636  0.4039 -0.4792  0.5566
18272TIP3    H276232   1.496   3.458   6.493  0.7828  0.7452  0.6372
18273TIP3   OH276233   1.094   5.817  15.344 -0.0287  0.1844  0.0161
18273TIP3    H176234   1.174   5.860  15.312 -0.4116  1.3486  0.5998
18273TIP3    H276235   1.031   5.889  15.354 -0.1545 -0.2546  2.6938
18274TIP3   OH276236   6.513   2.067   2.820 -0.0126  0.3454  0.9753
18274TIP3    H176237   6.603   2.042   2.803 -0.4014  1.0138 -2.5293
18274TIP3    H276238   6.499   2.145   2.766 -3.5010 -1.4399 -0.9158
18275TIP3   OH276239   0.390   1.117  14.955 -0.2045  0.3900 -0.2534
18275TIP3    H176240   0.386   1.157  15.042 -0.6216  0.2506 -0.2048
18275TIP3    H276241   0.474   1.145  14.919 -0.9177  2.1474 -0.6135
18276TIP3   OH276242   2.165   0.756  16.455  0.2538  0.4693 -0.2225
18276TIP3    H176243   2.163   0.848  16.483  2.7626  0.7589 -0.9183
18276TIP3    H276244   2.256   0.740  16.432  0.0141 -2.4525  0.6906
18277TIP3   OH276245   4.497   5.892  13.361 -0.1962 -0.4959  0.1978
18277TIP3    H176246   4.551   5.942  13.423 -0.4403 -1.9621  1.6167
18277TIP3    H276247   4.493   5.948  13.283  0.4629  1.2037  1.3391
18278TIP3   OH276248   6.550   5.047  14.809 -0.3182  0.0532 -0.5729
18278TIP3    H176249   6.569   5.140  14.822  1.9567 -0.6654  1.5868
18278TIP3    H276250   6.480   5.029  14.872  0.7916 -0.1882  0.6014
18279TIP3   OH276251   2.153   6.533   6.537 -0.0668  0.3093  0.1189
18279TIP3    H176252   2.202   6.543   6.618 -0.3147  0.2433  0.2747
18279TIP3    H276253   2.064   6.511   6.564 -0.3383  1.0500 -0.1509
18280TIP3   OH276254   6.565   3.914   4.839 -0.2530  0.3679  0.3169
18280TIP3    H176255   6.578   3.878   4.751 -0.6317  0.7063  0.1200
18280TIP3    H276256   6.534   4.003   4.824  1.4972  1.0961  0.7974
18281TIP3   OH276257   1.940   5.039  16.437  0.9755  0.6164 -0.2624
18281TIP3    H176258   1.870   5.079  16.385  1.2959 -1.3104 -2.2547
18281TIP3    H276259   1.902   4.959  16.472  1.8395  0.1092 -0.4621
18282TIP3   OH276260   1.157   2.608  16.874  0.1564 -0.0928  0.5739
18282TIP3    H176261   1.231   2.579  16.821 -1.0134 -1.6930 -0.2349
18282TIP3    H276262   1.088   2.545  16.855 -0.9001  0.4250  2.5732
18283TIP3   OH276263   4.681   4.640  13.112  0.3154 -0.4541  0.2368
18283TIP3    H176264   4.754   4.649  13.051  0.0305 -1.8625 -0.3386
18283TIP3    H276265   4.707   4.568  13.170 -0.8100 -1.2605 -0.2520
18284TIP3   OH276266   3.511   4.772  12.112  0.5558  0.1799 -0.2188
18284TIP3    H176267   3.536   4.786  12.203 -0.1889  1.0430 -0.1335
18284TIP3    H276268   3.583   4.809  12.061  1.0585 -0.4673  0.0134
18285TIP3   OH276269   5.643   1.956  16.854 -0.1873 -0.5112  0.4929
18285TIP3    H176270   5.606   1.902  16.923 -2.1598 -0.7983 -0.7334
18285TIP3    H276271   5.652   1.897  16.779 -1.8759  0.6737 -0.6932
18286TIP3   OH276272   1.743   0.850   2.400 -0.5707 -0.0796 -0.0073
18286TIP3    H176273   1.706   0.926   2.355  0.3326  0.9181  0.8968
18286TIP3    H276274   1.769   0.883   2.486 -1.0098 -1.6336  0.7458
18287TIP3   OH276275   5.637   5.297   4.568  0.1417  0.4536  0.2679
18287TIP3    H176276   5.579   5.248   4.626 -2.2126  0.6599 -1.8211
18287TIP3    H276277   5.725   5.279   4.600 -1.0654  0.2053  3.5997
18288TIP3   OH276278   4.919   3.790   3.804  0.5198  0.1031  0.0266
18288TIP3    H176279   4.969   3.846   3.864  0.3490 -0.0947  0.3551
18288TIP3    H276280   4.828   3.810   3.823  0.4656  0.0535 -0.1826
18289TIP3   OH276281   2.825   3.912   0.268  0.0665  0.1733 -0.0993
18289TIP3    H176282   2.852   3.994   0.309 -0.6120 -0.9631  2.6998
18289TIP3    H276283   2.896   3.892   0.206  2.1970  0.8452  2.0432
18290TIP3   OH276284   1.238   0.223  13.216  0.3731  0.6584  0.0412
18290TIP3    H176285   1.183   0.263  13.283 -1.0141 -1.0711 -0.0412
18290TIP3    H276286   1.209   0.263  13.134  0.3141  0.9027  0.1820
18291TIP3   OH276287   4.350   4.678   5.589  0.1841  0.6933 -0.6673
18291TIP3    H176288   4.259   4.655   5.607  0.2460 -0.6192 -1.9990
18291TIP3    H276289   4.399   4.597   5.605  1.2025  1.5297  0.5772
18292TIP3   OH276290   2.576   3.039   4.792 -0.4086 -0.0944 -0.0180
18292TIP3    H176291   2.486   3.060   4.766 -0.4506  0.6484  0.7209
18292TIP3    H276292   2.631   3.090   4.733 -0.4908  0.6649  0.5631
18293TIP3   OH276293   4.900   0.268  14.394 -0.0936 -0.0456  0.3902
18293TIP3    H176294   4.908   0.175  14.373 -2.4172 -0.0962 -0.4572
18293TIP3    H276295   4.851   0.271  14.476  1.4716  0.4016  1.3242
18294TIP3   OH276296   5.152   6.483  12.768 -0.1901 -0.1428  0.2313
18294TIP3    H176297   5.118   6.405  12.723 -0.6542 -0.6172  1.3834
18294TIP3    H276298   5.238   6.456  12.800 -0.9744 -0.6781  1.9240
18295TIP3   OH276299   4.060   0.442   1.584  0.1127 -0.5339  0.0338
18295TIP3    H176300   4.040   0.535   1.574 -0.2243 -0.3826  1.9279
18295TIP3    H276301   4.155   0.439   1.597  0.0199 -0.3555  0.8159
18296TIP3   OH276302   0.486   6.046  14.905  0.1384 -0.4558 -0.3307
18296TIP3    H176303   0.445   6.122  14.947  0.1118  0.0607 -1.2588
18296TIP3    H276304   0.546   6.085  14.841  1.2901 -1.2117  0.2751
18297TIP3   OH276305   3.365   6.636   6.461 -0.5459 -0.6330 -0.2709
18297TIP3    H176306   3.300   6.661   6.394  0.3601  1.6223 -0.3595
18297TIP3    H276307   3.320   6.570   6.514 -2.3433 -0.2940 -1.3071
18298TIP3   OH276308   4.125   6.019   1.534  0.1146 -0.0033 -0.3052
18298TIP3    H176309   4.102   6.103   1.495  0.1065 -0.2886 -0.9242
18298TIP3    H276310   4.055   5.960   1.506  1.0345 -0.6288 -1.3172
18299TIP3   OH276311   0.500   3.543  14.929  0.3861  0.1978  0.4321
18299TIP3    H176312   0.445   3.618  14.906 -1.4313 -1.3324 -0.2699
18299TIP3    H276313   0.507   3.547  15.025 -1.7092 -0.1019  0.6142
18300TIP3   OH276314   2.198   0.252  14.644 -0.1759  0.8073  0.6276
18300TIP3    H176315   2.288   0.233  14.671 -0.1290 -1.9071 -1.1902
18300TIP3    H276316   2.207   0.297  14.559 -0.5345  0.3871  0.3646
18301TIP3   OH276317   3.692   1.461   4.009  0.4973 -0.1931  0.2339
18301TIP3    H176318   3.767   1.517   3.989  1.2416 -1.0840  0.5227
18301TIP3    H276319   3.672   1.417   3.926  0.6289 -0.3617  0.2928
18302TIP3   OH276320   0.815   1.722   3.821 -0.3997 -0.6984  0.5058
18302TIP3    H176321   0.877   1.655   3.850  1.8824  1.3521  0.4746
18302TIP3    H276322   0.773   1.683   3.745  0.8904 -2.1098  0.4748
18303TIP3   OH276323   5.927   0.153  12.108 -0.0321 -0.5574  0.3577
18303TIP3    H176324   5.982   0.083  12.144  0.2006  0.1526  1.4189
18303TIP3    H276325   5.926   0.220  12.176 -2.3193 -0.6021  0.4234
18304TIP3   OH276326   0.080   4.370   4.049  0.1747  0.2000 -0.1463
18304TIP3    H176327   0.138   4.445   4.049 -0.1560  0.4728 -2.4663
18304TIP3    H276328   0.130   4.300   4.006 -0.3176 -0.2770  0.0410
18305TIP3   OH276329   1.906   2.396  11.944 -0.4349  0.2601  0.6022
18305TIP3    H176330   1.941   2.312  11.971  1.8228  1.3220  1.1080
18305TIP3    H276331   1.880   2.384  11.853  1.3498 -0.5631  0.1869
18306TIP3   OH276332   3.938   1.369   5.111  0.1867 -0.8276  0.1916
18306TIP3    H176333   4.028   1.400   5.119 -0.0639 -0.4845  1.7451
18306TIP3    H276334   3.922   1.367   5.017  1.1529  1.0454 -0.0386
18307TIP3   OH276335   2.768   2.317   1.530  0.3930  0.0520  0.0979
18307TIP3    H176336   2.819   2.241   1.502  0.8625  0.0723  0.8726
18307TIP3    H276337   2.766   2.374   1.454  1.0000 -0.2367 -0.1360
18308TIP3   OH276338   5.598   0.826   5.768 -0.0941 -0.2246  0.0038
18308TIP3    H176339   5.575   0.808   5.677  0.6144 -1.0953 -0.0020
18308TIP3    H276340   5.665   0.894   5.762  0.7772 -1.0958 -0.1738
18309TIP3   OH276341   5.549   1.620  12.909  0.4267 -0.1775 -0.3609
18309TIP3    H176342   5.622   1.561  12.891  2.3980  2.4637 -1.4035
18309TIP3    H276343   5.485   1.600  12.841  0.8444 -1.4310 -0.4066
18310TIP3   OH276344   5.728   5.490   3.050 -0.0453 -0.4676 -0.0714
18310TIP3    H176345   5.697   5.581   3.050  0.2628 -0.3526  0.7599
18310TIP3    H276346   5.654   5.440   3.085  0.5963 -0.2264  1.6722
18311TIP3   OH276347   4.996   1.201  15.100  0.6541 -0.4894 -0.3344
18311TIP3    H176348   5.056   1.194  15.026 -0.6047  0.7969 -1.5224
18311TIP3    H276349   4.919   1.245  15.064 -0.5582 -1.1264  1.4137
18312TIP3   OH276350   6.560   5.134   0.405 -0.1614  0.0599 -0.4067
18312TIP3    H176351   6.643   5.182   0.402 -1.3740  2.3174  0.9827
18312TIP3    H276352   6.573   5.068   0.473 -0.0301  1.4521  0.9432
18313TIP3   OH276353   5.496   5.953   6.233  0.3154  0.0114 -0.1044
18313TIP3    H176354   5.513   5.875   6.180  0.5625 -0.2824  0.4012
18313TIP3    H276355   5.470   6.020   6.170 -1.9619 -1.0624 -0.3804
18314TIP3   OH276356   4.783   0.889   2.147  0.5043 -0.1676  0.1689
18314TIP3    H176357   4.859   0.947   2.151 -0.2650  0.7959  1.5401
18314TIP3    H276358   4.738   0.903   2.231 -0.9950 -0.9617 -0.4812
18315TIP3   OH276359   3.786   6.553  14.871 -0.5768 -0.2152  0.1533
18315TIP3    H176360   3.812   6.644  14.855 -0.4198 -0.3888 -0.6093
18315TIP3    H276361   3.766   6.518  14.784 -2.5674 -0.3440  0.6446
18316TIP3   OH276362   2.730   4.165   2.685  0.1121  0.0726  0.0974
18316TIP3    H176363   2.801   4.154   2.621  1.1878  3.4623  0.5832
18316TIP3    H276364   2.746   4.097   2.750  1.7437 -0.5066 -0.8676
18317TIP3   OH276365   2.735   0.554  15.985 -0.3273  0.5069 -0.3802
18317TIP3    H176366   2.781   0.589  15.909  0.5020 -0.0051 -0.1188
18317TIP3    H276367   2.800   0.501  16.030 -0.9860  0.3241  0.3668
18318TIP3   OH276368   0.556   3.409  15.494  0.2293 -0.3235 -0.3270
18318TIP3    H176369   0.550   3.345  15.422  0.0799  1.6008 -2.0646
18318TIP3    H276370   0.646   3.441  15.491  1.1965 -2.6188  2.4947
18319TIP3   OH276371   1.903   4.386  11.324  0.3715 -0.2966 -0.6888
18319TIP3    H176372   1.814   4.399  11.292 -0.0127 -1.5451 -0.1779
18319TIP3    H276373   1.944   4.327  11.261  1.0749  0.8331 -1.3057
18320TIP3   OH276374   5.293   6.434   2.914 -0.0136  0.1701  0.0023
18320TIP3    H176375   5.375   6.483   2.906  0.1818  0.4768  3.2705
18320TIP3    H276376   5.249   6.472   2.990 -2.8258 -0.5486 -1.1894
18321TIP3   OH276377   1.793   0.281   2.888  0.3414  0.2046  0.5492
18321TIP3    H176378   1.705   0.292   2.924  0.5466  1.1824  0.7868
18321TIP3    H276379   1.784   0.216   2.819 -0.2176 -1.0944  1.8174
18322TIP3   OH276380   5.722   5.185   2.461  0.3415  0.1878  0.2533
18322TIP3    H176381   5.633   5.188   2.496 -0.4934 -1.9104 -1.6206
18322TIP3    H276382   5.724   5.252   2.393  0.0596 -0.0626 -0.0018
18323TIP3   OH276383   5.830   6.603  12.137 -0.1366 -0.5954  0.3653
18323TIP3    H176384   5.742   6.635  12.157 -1.1746 -2.7277 -0.6391
18323TIP3    H276385   5.889   6.669  12.174 -2.1450  0.6497  1.4003
18324TIP3   OH276386   6.445   1.839  11.279  0.1632 -0.2701 -0.7469
18324TIP3    H176387   6.390   1.780  11.331  1.0018 -0.0767  0.3547
18324TIP3    H276388   6.438   1.923  11.323 -1.3025  0.5641 -2.5055
18325TIP3   OH276389   0.576   5.432   4.241  0.1439  0.1229 -0.1755
18325TIP3    H176390   0.551   5.359   4.184  0.7005 -1.7489  1.8927
18325TIP3    H276391   0.660   5.405   4.278  0.6127  2.0833  0.2244
18326TIP3   OH276392   0.059   0.459  16.975 -0.0059  0.1643  0.6631
18326TIP3    H176393   0.028   0.515  17.046 -2.2811  0.7003 -0.6928
18326TIP3    H276394   0.037   0.370  17.004 -1.7742  0.4453  0.2715
18327TIP3   OH276395   3.702   6.622   5.336 -0.3509 -0.0206 -0.1513
18327TIP3    H176396   3.778   6.678   5.352 -1.7283  2.3146 -1.3905
18327TIP3    H276397   3.704   6.558   5.406  1.0118  1.9285  1.6594
18328TIP3   OH276398   0.485   5.715   0.039  0.3539 -0.1860  0.3443
18328TIP3    H176399   0.565   5.693  -0.008 -0.0540  0.3395 -0.6046
18328TIP3    H276400   0.425   5.747  -0.028 -0.3596  0.2378  1.1666
18329TIP3   OH276401   5.257   0.774   2.839  0.4001  0.1127 -0.5747
18329TIP3    H176402   5.309   0.838   2.888 -0.6148  0.2843  0.2831
18329TIP3    H276403   5.166   0.798   2.857 -0.0062 -1.9110  0.2160
18330TIP3   OH276404   2.255   4.319   3.904  0.5890 -0.5335  0.2469
18330TIP3    H176405   2.180   4.307   3.962  1.3660  0.0689  1.3993
18330TIP3    H276406   2.242   4.406   3.866  1.4505  0.1769  1.5663
18331TIP3   OH276407   5.016   2.873  14.890  0.3198 -0.2535 -0.4130
18331TIP3    H176408   4.995   2.812  14.961 -2.1052  1.3568  0.3245
18331TIP3    H276409   5.037   2.817  14.816  3.0835 -1.9812  1.5594
18332TIP3   OH276410   0.065   2.322   4.977  0.3260  0.4114 -0.6770
18332TIP3    H176411   0.090   2.414   4.988  0.2584  0.4387 -0.7495
18332TIP3    H276412   0.137   2.273   5.016 -0.4560  0.5239  0.9416
18333TIP3   OH276413   1.756   3.255   2.124  0.0123  0.1896  0.3249
18333TIP3    H176414   1.730   3.165   2.104  1.0499  0.0052 -0.2186
18333TIP3    H276415   1.681   3.308   2.095 -0.5911 -0.4909  0.6255
18334TIP3   OH276416   1.260   6.756  17.043 -0.5551  0.0819  0.7535
18334TIP3    H176417   1.184   6.780  17.096  1.5364  2.6332  2.7037
18334TIP3    H276418   1.325   6.727  17.106  1.8396  2.7960 -0.3591
18335TIP3   OH276419   2.902   1.247  13.833  0.1238  0.4470  0.2624
18335TIP3    H176420   2.907   1.258  13.928 -0.0912  0.2592  0.2971
18335TIP3    H276421   2.988   1.216  13.807 -1.1641 -4.1692  1.0344
18336TIP3   OH276422   6.686   1.602  11.695  0.0676  0.3840  0.0649
18336TIP3    H176423   6.702   1.613  11.788  0.8363 -3.3403  0.4401
18336TIP3    H276424   6.740   1.670  11.653  0.8796  1.1151  2.2385
18337TIP3   OH276425   1.805   6.215   5.122 -0.6304 -0.3988 -0.4417
18337TIP3    H176426   1.803   6.140   5.183 -0.1527  0.7246  0.9993
18337TIP3    H276427   1.896   6.219   5.092 -0.4183  0.1921  0.2579
18338TIP3   OH276428   4.235   5.509   0.755 -0.0623  0.2518  0.4570
18338TIP3    H176429   4.266   5.558   0.831  0.6682  1.3673 -0.5561
18338TIP3    H276430   4.275   5.423   0.765  2.9008  1.4754 -0.5002
18339TIP3   OH276431   3.759   1.357   4.867  0.0746 -0.4923 -0.6805
18339TIP3    H176432   3.673   1.318   4.885  0.6332 -0.7628  1.5381
18339TIP3    H276433   3.815   1.283   4.846  0.7269 -0.7925  1.9014
18340TIP3   OH276434   5.893   6.515   1.338 -0.4571 -0.1499 -0.5185
18340TIP3    H176435   5.846   6.592   1.306  1.0962 -0.1876 -3.0262
18340TIP3    H276436   5.938   6.546   1.417 -2.1270  0.7271  0.1062
18341TIP3   OH276437   5.103   4.203   4.151 -0.0666  0.0147 -0.2774
18341TIP3    H176438   5.066   4.123   4.114 -0.5976 -0.2754  0.8410
18341TIP3    H276439   5.028   4.262   4.161  0.1784  0.3284 -0.2855
18342TIP3   OH276440   6.283   3.648  14.722 -0.0062  0.3007  0.2142
18342TIP3    H176441   6.207   3.697  14.755  0.0282  0.1561  0.5110
18342TIP3    H276442   6.346   3.716  14.697 -0.4998  0.4421 -0.6926
18343TIP3   OH276443   6.658   0.692   2.839 -0.2132 -0.3940 -0.7563
18343TIP3    H176444   6.589   0.627   2.822 -1.9011  0.5010  2.3203
18343TIP3    H276445   6.621   0.775   2.809  0.2733 -0.1995 -0.8201
18344TIP3   OH276446   2.880   2.221   0.099 -0.4861 -0.2638  0.0770
18344TIP3    H176447   2.914   2.183   0.018 -2.9552  2.6440 -2.4283
18344TIP3    H276448   2.958   2.252   0.145  0.8107  0.0937 -2.2744
18345TIP3   OH276449   5.680   2.714   0.682  0.4392  0.1652  0.1472
18345TIP3    H176450   5.634   2.794   0.655  0.0148  0.9043  2.8830
18345TIP3    H276451   5.613   2.661   0.724  1.7658  0.7314  3.0908
18346TIP3   OH276452   4.869   4.467  11.510  0.6474  0.2528 -0.8376
18346TIP3    H176453   4.816   4.506  11.440 -2.9465  0.5566  1.9085
18346TIP3    H276454   4.822   4.386  11.532  1.9452 -0.0288  0.9639
18347TIP3   OH276455   0.909   4.134  16.022  0.1940  0.0501  0.3380
18347TIP3    H176456   0.948   4.187  15.953  0.9266  0.5293  1.1023
18347TIP3    H276457   0.815   4.139  16.007  0.2447  1.6707  0.4742
18348TIP3   OH276458   6.001   3.555   4.257  0.5344  0.0495  0.6053
18348TIP3    H176459   5.917   3.513   4.276 -1.0690  3.0062  0.3233
18348TIP3    H276460   6.012   3.545   4.163 -0.3189  1.0891  0.3907
18349TIP3   OH276461   6.597   5.906  16.981 -0.4488 -0.6151 -0.3603
18349TIP3    H176462   6.623   5.990  16.943 -0.7381  0.0117  0.7727
18349TIP3    H276463   6.659   5.843  16.945  1.6468  0.5784  1.0228
18350TIP3   OH276464   2.457   0.081  13.669 -0.8339  0.3437  0.1167
18350TIP3    H176465   2.510   0.066  13.591 -0.2699  1.7108  0.2216
18350TIP3    H276466   2.454  -0.005  13.712  2.1202  0.4137  0.6093
18351TIP3   OH276467   1.242   2.603   0.977  0.0048  0.4316  0.0631
18351TIP3    H176468   1.290   2.596   1.060  1.9662 -0.3743 -1.0951
18351TIP3    H276469   1.192   2.522   0.972  1.8525 -0.7019 -0.6973
18352TIP3   OH276470   5.002   1.233  14.141 -0.0715 -0.1922 -0.0585
18352TIP3    H176471   4.951   1.300  14.094  0.6152  0.3726 -0.0040
18352TIP3    H276472   4.980   1.151  14.097  2.7638  0.6871 -3.3199
18353TIP3   OH276473   3.733   6.693   1.086  0.2873 -0.2150  0.2812
18353TIP3    H176474   3.769   6.610   1.056 -1.1716 -0.5705 -0.4918
18353TIP3    H276475   3.638   6.680   1.087  0.0633  1.3296  0.4579
18354TIP3   OH276476   5.683   3.012   1.872  0.0467 -0.0141 -0.6751
18354TIP3    H176477   5.594   2.978   1.882  0.5023 -1.0870 -0.2283
18354TIP3    H276478   5.709   3.037   1.961  0.3691 -0.1397 -0.7338
18355TIP3   OH276479   3.518   5.486   6.186 -0.2283  0.3714  0.5095
18355TIP3    H176480   3.507   5.404   6.137 -1.7616  1.5878 -1.2792
18355TIP3    H276481   3.450   5.483   6.253 -1.0091  0.6304 -0.2517
18356TIP3   OH276482   4.987   1.159  17.123  0.1331 -0.3725 -0.1708
18356TIP3    H176483   4.953   1.099  17.189  1.6294 -1.3078 -0.1955
18356TIP3    H276484   4.961   1.246  17.152 -2.0174 -1.0270 -0.0868
18357TIP3   OH276485   6.659   2.929  12.675 -0.8768  0.2588  0.2224
18357TIP3    H176486   6.580   2.919  12.728 -1.6337  1.0701 -0.7156
18357TIP3    H276487   6.702   3.006  12.711 -0.6292 -0.0510  0.5917
18358TIP3   OH276488   4.207   0.448  10.695  0.4060 -0.0602 -0.6965
18358TIP3    H176489   4.302   0.451  10.691  0.5204 -2.7647 -0.8624
18358TIP3    H276490   4.186   0.453  10.788  0.7611 -0.3568 -0.5995
18359TIP3   OH276491   6.086   5.319   5.171  0.2758  0.2371 -0.2578
18359TIP3    H176492   6.024   5.392   5.165 -0.3025 -0.1687  0.7199
18359TIP3    H276493   6.090   5.283   5.082 -2.1412 -0.7691  0.0311
18360TIP3   OH276494   1.669   6.586   1.923 -0.0416 -0.4274 -0.2727
18360TIP3    H176495   1.626   6.510   1.962 -0.3328 -0.7746 -1.2559
18360TIP3    H276496   1.606   6.658   1.934  0.1700 -0.3606  0.5179
18361TIP3   OH276497   0.809   0.325   4.065  0.0349  0.2403 -0.2386
18361TIP3    H176498   0.820   0.382   3.989  2.8236  0.4629  0.2632
18361TIP3    H276499   0.840   0.239   4.036  1.6640  0.4538  0.7409
18362TIP3   OH276500   2.830   6.417  12.509  0.1262 -0.0380 -0.2148
18362TIP3    H176501   2.740   6.388  12.497 -1.0221  1.4555  4.0494
18362TIP3    H276502   2.825   6.513  12.505  1.4572  0.0792  0.5968
18363TIP3   OH276503   1.198   4.358   3.879 -0.2198 -0.4944 -0.0301
18363TIP3    H176504   1.107   4.331   3.888  0.1651 -2.3066 -1.3142
18363TIP3    H276505   1.242   4.319   3.955 -0.2395 -0.9028 -0.2268
18364TIP3   OH276506   4.796   4.860  14.733 -0.2610 -0.3375  0.4953
18364TIP3    H176507   4.749   4.942  14.720 -2.5349 -2.0340 -2.8140
18364TIP3    H276508   4.880   4.873  14.690 -0.6335  0.2730 -0.0563
18365TIP3   OH276509   4.270   2.550  13.866  0.2795  0.4993 -0.4963
18365TIP3    H176510   4.278   2.468  13.915  0.5186  1.2624  0.7419
18365TIP3    H276511   4.226   2.610  13.926 -0.5345  1.0826 -1.6475
18366TIP3   OH276512   1.141   2.297   2.106  0.2286 -0.2678 -0.0090
18366TIP3    H176513   1.082   2.369   2.086 -0.4599 -0.6081  0.7646
18366TIP3    H276514   1.209   2.302   2.039 -0.6794  0.1292 -0.9216
18367TIP3   OH276515   5.759   1.071  12.742 -0.0343 -0.2590 -0.3160
18367TIP3    H176516   5.748   1.015  12.664  1.7458 -2.6531  1.0679
18367TIP3    H276517   5.774   1.009  12.813  0.4587  1.9808  1.5725
18368TIP3   OH276518   3.159   3.738  16.338  0.1741  0.0341 -0.4007
18368TIP3    H176519   3.208   3.703  16.265  0.1943 -2.0795  0.6027
18368TIP3    H276520   3.180   3.681  16.412  0.8283  2.5937  1.5035
18369TIP3   OH276521   3.940   6.567   3.762 -0.3513  0.2975 -0.1374
18369TIP3    H176522   3.992   6.489   3.742 -0.4214 -0.3416  2.0612
18369TIP3    H276523   4.004   6.638   3.768  0.0737 -0.1651  0.8554
18370TIP3   OH276524   3.948   0.508  11.656 -0.1507 -0.1864  0.2857
18370TIP3    H176525   3.947   0.414  11.672  0.5288 -0.1186  0.7550
18370TIP3    H276526   3.869   0.540  11.699 -0.7342 -0.6337 -0.4553
18371TIP3   OH276527   2.534   0.186  14.320  0.5042  0.3977  0.1788
18371TIP3    H176528   2.630   0.183  14.310  0.4871  0.5273 -0.0097
18371TIP3    H276529   2.512   0.100  14.356  0.6470  0.2288 -0.1390
18372TIP3   OH276530   1.176   3.547   3.100  0.3475  0.0017 -0.0480
18372TIP3    H176531   1.179   3.549   3.195  1.8785  2.7766 -0.1106
18372TIP3    H276532   1.223   3.468   3.075  1.7473  0.3488  1.4519
18373TIP3   OH276533   3.200   0.664   3.293 -0.5090  0.6123  0.7103
18373TIP3    H176534   3.163   0.677   3.380 -1.2629 -0.9136  0.6199
18373TIP3    H276535   3.261   0.591   3.303 -0.9470  0.1271 -0.1492
18374TIP3   OH276536   0.979   0.148   1.716  0.0347  0.3799  0.1627
18374TIP3    H176537   0.992   0.060   1.680 -1.7819 -0.3213  1.1739
18374TIP3    H276538   1.002   0.207   1.644  0.8217 -0.9152 -0.6723
18375TIP3   OH276539   6.411   5.808   0.220  0.6109  0.3861 -0.3173
18375TIP3    H176540   6.474   5.816   0.148  0.3580 -0.3293 -0.6333
18375TIP3    H276541   6.454   5.849   0.294 -0.0049  3.0673 -1.4104
18376TIP3   OH276542   3.101   6.638  15.627 -0.1767  0.4790 -0.2343
18376TIP3    H176543   3.093   6.555  15.581 -2.0769  0.3896  0.1962
18376TIP3    H276544   3.189   6.670  15.605 -0.8464  0.2303 -3.5163
18377TIP3   OH276545   0.775   3.320  13.925 -0.5755  0.4736  0.4085
18377TIP3    H176546   0.821   3.383  13.869  0.4589  0.3240  1.0615
18377TIP3    H276547   0.727   3.374  13.988 -0.8839  0.6270  0.0406
18378TIP3   OH276548   0.127   0.966   6.329 -0.2692  0.4238 -0.2743
18378TIP3    H176549   0.168   0.919   6.402  0.1082 -0.7790 -1.2391
18378TIP3    H276550   0.165   1.053   6.332  0.7490 -0.0264  0.1532
18379TIP3   OH276551   4.957   5.206   0.619 -0.4326  0.1145 -0.1502
18379TIP3    H176552   4.965   5.225   0.712 -0.9150  1.2260 -0.3305
18379TIP3    H276553   4.910   5.281   0.583 -0.0257 -0.1927 -1.3349
18380TIP3   OH276554   0.910   2.269   4.083  0.2913  0.3191 -0.7120
18380TIP3    H176555   0.980   2.224   4.036 -0.2282 -0.0935 -1.0985
18380TIP3    H276556   0.835   2.210   4.077  0.0146  0.5830  0.0329
18381TIP3   OH276557   6.325   2.011  12.933  0.4152  0.3786 -0.4157
18381TIP3    H176558   6.395   2.062  12.893  1.5112 -0.8317 -0.0474
18381TIP3    H276559   6.365   1.927  12.955 -0.3660  0.7272  2.5409
18382TIP3   OH276560   6.114   1.876   1.305 -0.9773  0.0329  0.4633
18382TIP3    H176561   6.087   1.861   1.395  0.1266  0.3223  0.8429
18382TIP3    H276562   6.179   1.808   1.287  0.3163  1.2266  0.5568
18383TIP3   OH276563   1.433   0.498  13.415  0.5788 -0.1162 -0.0869
18383TIP3    H176564   1.447   0.436  13.486 -1.2924 -0.6198 -0.1177
18383TIP3    H276565   1.516   0.499  13.367  0.6845 -2.4755  0.0057
18384TIP3   OH276566   6.355   2.339  13.109  0.0515  0.4330  0.4011
18384TIP3    H176567   6.426   2.385  13.064 -0.6034  1.0875  0.0356
18384TIP3    H276568   6.400   2.273  13.162  0.8690  0.1477 -0.6254
18385TIP3   OH276569   3.683   3.075  12.848  0.6938 -0.3727  0.0316
18385TIP3    H176570   3.723   3.128  12.917 -1.0346  0.5745  0.3261
18385TIP3    H276571   3.589   3.083  12.862  0.3593 -2.3781 -0.7885
18386TIP3   OH276572   4.543   1.354  13.333  0.2383 -0.1589 -0.2288
18386TIP3    H176573   4.541   1.299  13.255 -0.5058  0.2000 -0.4753
18386TIP3    H276574   4.493   1.432  13.309  0.6579  0.2987  0.3530
18387TIP3   OH276575   4.126   2.188  15.866  0.1242 -0.5831  0.3323
18387TIP3    H176576   4.124   2.182  15.962  0.8028 -1.0722  0.3223
18387TIP3    H276577   4.214   2.158  15.843  0.6053  1.2895 -0.3250
18388TIP3   OH276578   0.940   0.383   3.597  0.1808 -0.7952  0.0839
18388TIP3    H176579   0.877   0.313   3.613  1.6486 -1.8647  1.3344
18388TIP3    H276580   0.941   0.434   3.678 -1.8037  1.4839 -1.2446
18389TIP3   OH276581   1.566   1.663  12.391  0.0733  0.2731 -0.3239
18389TIP3    H176582   1.627   1.609  12.442 -0.6905 -0.4595 -0.1906
18389TIP3    H276583   1.485   1.663  12.443  0.7949  3.5761  0.9741
18390TIP3   OH276584   5.027   1.740   4.119  0.3969 -0.1059 -0.0979
18390TIP3    H176585   5.028   1.654   4.079  1.1181 -0.2455  0.2112
18390TIP3    H276586   4.967   1.731   4.193  0.7486 -0.4400  0.1479
18391TIP3   OH276587   4.408   3.350   1.476  0.1182  0.8160 -0.5282
18391TIP3    H176588   4.339   3.284   1.480  0.2533  0.7457  0.8829
18391TIP3    H276589   4.479   3.308   1.428 -0.9200  0.9917 -2.2511
18392TIP3   OH276590   2.532   2.120   5.096 -0.0634  0.2315  0.1454
18392TIP3    H176591   2.453   2.174   5.102 -0.2904 -0.0133 -0.6073
18392TIP3    H276592   2.551   2.114   5.003  0.1758 -0.6738  0.2418
18393TIP3   OH276593   2.430   1.426   1.458  0.0471  0.1598 -0.0291
18393TIP3    H176594   2.503   1.474   1.419 -0.2994 -1.2408 -2.5506
18393TIP3    H276595   2.468   1.344   1.487  0.1196  0.8326  1.8372
18394TIP3   OH276596   0.537   1.667   2.763  0.1083 -0.1700  0.3051
18394TIP3    H176597   0.480   1.625   2.827 -0.1810  0.2284  0.3141
18394TIP3    H276598   0.528   1.614   2.684 -0.8288  0.2921  0.0909
18395TIP3   OH276599   6.336   2.783   4.355  0.0890 -0.1353 -0.2493
18395TIP3    H176600   6.347   2.709   4.295  1.4800  0.3587 -0.6423
18395TIP3    H276601   6.420   2.789   4.400 -0.6947 -0.0235  1.2143
18396TIP3   OH276602   6.199   6.439  15.188  0.0260 -0.2418 -0.5031
18396TIP3    H176603   6.123   6.481  15.147 -0.2045 -1.0131 -0.8832
18396TIP3    H276604   6.174   6.347  15.195  0.7245 -0.4082 -0.1453
18397TIP3   OH276605   6.534   3.688   0.786 -0.1045  0.4626 -0.0035
18397TIP3    H176606   6.511   3.757   0.848 -0.4587  1.6121 -1.3769
18397TIP3    H276607   6.625   3.668   0.806  0.5837  2.6510 -0.7681
18398TIP3   OH276608   1.804   6.526   0.109 -0.4058 -0.0748 -0.7574
18398TIP3    H176609   1.885   6.538   0.059  0.3578 -1.6326  0.0476
18398TIP3    H276610   1.825   6.455   0.170 -2.0421  0.2543  0.2089
18399TIP3   OH276611   6.250   6.074   0.673  0.2187 -0.1417  0.2491
18399TIP3    H176612   6.214   6.090   0.761 -0.7773  0.7998 -0.3108
18399TIP3    H276613   6.195   6.005   0.637 -0.1405  0.3155 -0.0824
18400TIP3   OH276614   5.127   0.584   2.619 -0.0037  0.0259  0.5700
18400TIP3    H176615   5.088   0.580   2.707  2.9617  0.3816  1.9663
18400TIP3    H276616   5.214   0.620   2.633  0.3895  0.4803 -2.6191
18401TIP3   OH276617   0.860   2.553  16.090 -0.1907 -0.1465 -0.4765
18401TIP3    H176618   0.894   2.603  16.164 -0.0065 -0.9885  0.0242
18401TIP3    H276619   0.796   2.493  16.129  0.7200 -1.3703 -0.8281
18402TIP3   OH276620   2.890   1.685  12.875 -0.1712 -0.2020  0.6392
18402TIP3    H176621   2.852   1.651  12.794 -0.6979  1.4852  0.1494
18402TIP3    H276622   2.882   1.780  12.867 -2.1364 -0.0744  3.6048
18403TIP3   OH276623   5.935   2.550  14.109  0.0588  0.2441  0.7583
18403TIP3    H176624   5.951   2.468  14.063  1.7572 -0.9375  3.2990
18403TIP3    H276625   5.847   2.577  14.082 -0.7159 -2.6563  0.2618
18404TIP3   OH276626   6.054   0.743   4.353  0.0809 -0.0824 -0.1259
18404TIP3    H176627   6.084   0.711   4.438 -0.3251 -1.7872 -0.6124
18404TIP3    H276628   5.966   0.707   4.344  0.1482  0.0380 -1.3101
18405TIP3   OH276629   5.958   3.147   4.434  0.4165 -0.1687 -0.5923
18405TIP3    H176630   5.929   3.180   4.519 -0.0051  2.1852 -1.6223
18405TIP3    H276631   6.052   3.133   4.444  0.7246  1.9887 -0.3177
18406TIP3   OH276632   2.956   2.497   3.936 -1.5079  0.7965  0.3190
18406TIP3    H176633   3.000   2.467   3.856 -0.1535 -0.5016  1.5240
18406TIP3    H276634   2.924   2.416   3.977 -1.6638  1.4029  1.3905
18407TIP3   OH276635   1.639   5.150  14.140 -0.1478 -0.6877  0.1892
18407TIP3    H176636   1.582   5.087  14.096 -0.2939 -0.7247  0.4292
18407TIP3    H276637   1.592   5.174  14.220 -0.6881  0.7342 -0.5368
18408TIP3   OH276638   0.350   3.107   5.503 -0.3202 -0.3046 -0.4680
18408TIP3    H176639   0.300   3.070   5.576 -1.5691 -1.2323 -1.7643
18408TIP3    H276640   0.438   3.072   5.515 -1.0437 -2.2723 -0.6256
18409TIP3   OH276641   1.932   3.958   2.293 -0.0717 -0.5374  0.1464
18409TIP3    H176642   1.863   3.988   2.232  0.7521  1.0031 -0.0492
18409TIP3    H276643   1.974   3.885   2.247 -2.4489 -2.4526  0.8496
18410TIP3   OH276644   6.608   6.106  15.285  0.2122 -0.1738  0.1031
18410TIP3    H176645   6.663   6.111  15.364  0.4858  0.3051 -0.1135
18410TIP3    H276646   6.660   6.056  15.223  0.9178  1.2926 -0.5127
18411TIP3   OH276647   3.835   2.124   2.985  0.2965  0.2874 -0.5053
18411TIP3    H176648   3.821   2.071   2.906 -0.8323 -0.4005  0.1478
18411TIP3    H276649   3.764   2.188   2.983  1.5242  1.6426 -1.1693
18412TIP3   OH276650   1.069   3.478   1.985  0.2962 -0.4109  0.6233
18412TIP3    H176651   1.007   3.510   1.920  0.4367 -3.4941 -1.1833
18412TIP3    H276652   1.015   3.432   2.050  0.4870 -1.4536  0.0664
18413TIP3   OH276653   0.772   2.766   1.508 -0.9189 -0.1379 -0.5875
18413TIP3    H176654   0.685   2.726   1.511 -0.6651 -0.6160  0.6280
18413TIP3    H276655   0.825   2.713   1.568 -0.5303  1.9223  0.9271
18414TIP3   OH276656   6.468   1.779  15.632  0.0588 -0.2303 -0.6010
18414TIP3    H176657   6.457   1.851  15.694 -0.3049 -1.5863  0.9491
18414TIP3    H276658   6.562   1.762  15.631  0.0198 -0.4796 -0.1027
18415TIP3   OH276659   4.672   4.559  11.347 -0.0528  0.3523 -0.1848
18415TIP3    H176660   4.579   4.573  11.364 -0.2840  0.8728 -1.8185
18415TIP3    H276661   4.710   4.647  11.345  0.3386  0.1815 -0.3178
18416TIP3   OH276662   4.982   6.530   6.358  0.2661  0.0204  0.1117
18416TIP3    H176663   4.947   6.559   6.274 -0.2397 -0.8758 -0.0058
18416TIP3    H276664   5.071   6.501   6.339 -0.2634 -1.3360 -0.3730
18417TIP3   OH276665   2.603   4.513  13.194 -0.0439 -0.3156 -0.5382
18417TIP3    H176666   2.509   4.499  13.181 -0.0732 -0.0180 -0.6531
18417TIP3    H276667   2.644   4.436  13.154 -0.1759  0.2335 -1.7471
18418TIP3   OH276668   0.606   4.371   5.265 -0.8729 -0.2992  0.1193
18418TIP3    H176669   0.530   4.427   5.248 -0.4456  0.3900  0.4630
18418TIP3    H276670   0.635   4.343   5.179  0.8469  2.5929 -0.3226
18419TIP3   OH276671   2.238   0.959   0.406  0.5095 -0.0732 -0.7201
18419TIP3    H176672   2.188   0.877   0.410 -0.5194  0.5139 -1.5807
18419TIP3    H276673   2.223   0.993   0.318  2.2216  0.2511 -0.9127
18420TIP3   OH276674   0.843   5.921  13.827 -0.1053 -0.2939  0.5173
18420TIP3    H176675   0.765   5.891  13.874  0.2945  0.1669  1.4851
18420TIP3    H276676   0.904   5.947  13.896  1.1445 -1.2306 -0.2116
18421TIP3   OH276677   1.821   2.352   1.870  0.2308  0.1677 -0.0096
18421TIP3    H176678   1.912   2.355   1.838 -0.0689  0.6674 -0.8299
18421TIP3    H276679   1.806   2.260   1.891  0.9986  0.1159  0.3286
18422TIP3   OH276680   1.911   4.275   5.294 -0.0076  0.3272 -0.2671
18422TIP3    H176681   1.872   4.244   5.375  0.9377 -0.8433 -0.2300
18422TIP3    H276682   1.880   4.213   5.228 -1.0311  1.4607 -0.8656
18423TIP3   OH276683   1.199   1.019   0.273  0.3036 -0.5254  0.2786
18423TIP3    H176684   1.218   1.085   0.339  2.0670 -0.9425  0.1952
18423TIP3    H276685   1.128   1.057   0.221 -0.2872  0.2988  1.6727
18424TIP3   OH276686   6.320   4.150   3.637 -0.5161  0.3665  0.3541
18424TIP3    H176687   6.314   4.220   3.702 -2.7554  0.4210  0.1406
18424TIP3    H276688   6.348   4.073   3.687 -0.1487  0.9012  0.9793
18425TIP3   OH276689   6.542   0.422  11.556  0.2507 -0.2466  0.6929
18425TIP3    H176690   6.580   0.334  11.559 -0.4503 -0.5681  0.3007
18425TIP3    H276691   6.447   0.407  11.548  0.2318  0.5383 -0.6866
18426TIP3   OH276692   4.310   2.980  13.217  0.3548  0.2114 -0.0171
18426TIP3    H176693   4.268   3.024  13.144  0.5479  1.7077  0.7387
18426TIP3    H276694   4.365   3.048  13.257  0.8781 -0.8003  1.0150
18427TIP3   OH276695   0.491   5.875   2.507  0.4583  0.2684  0.0897
18427TIP3    H176696   0.495   5.794   2.455  1.0240  0.5206 -0.2538
18427TIP3    H276697   0.530   5.851   2.591 -1.3795 -0.4216  0.7814
18428TIP3   OH276698   5.714   2.313  16.916  0.0035  0.6758  0.2091
18428TIP3    H176699   5.633   2.289  16.871 -0.5083 -0.7448  1.7957
18428TIP3    H276700   5.699   2.402  16.947 -0.0638  1.2496 -1.4517
18429TIP3   OH276701   1.904   2.560  15.344 -0.2534  0.9483 -0.0420
18429TIP3    H176702   1.850   2.522  15.275  1.1397  0.9468 -1.1489
18429TIP3    H276703   1.876   2.651  15.349 -0.4811  0.9025 -0.4868
18430TIP3   OH276704   4.467   0.395   6.519 -0.2968  0.3030 -0.0796
18430TIP3    H176705   4.440   0.320   6.466 -0.9507  1.1358 -0.9294
18430TIP3    H276706   4.393   0.412   6.577  0.1149 -0.1156  0.5856
18431TIP3   OH276707   6.145   5.916   0.254  1.0408 -0.0684 -0.6727
18431TIP3    H176708   6.237   5.894   0.263  1.0182 -0.5790 -1.5986
18431TIP3    H276709   6.144   6.008   0.227  1.1421  1.0888  3.0571
18432TIP3   OH276710   5.718   2.651  14.008 -0.4089 -0.3302 -0.3522
18432TIP3    H176711   5.681   2.719  13.952  0.0963  1.8939  1.9412
18432TIP3    H276712   5.649   2.584  14.013 -1.7766  1.0288 -0.8626
18433TIP3   OH276713   2.113   6.410   2.677 -0.0055 -0.1355 -0.0137
18433TIP3    H176714   2.086   6.451   2.759 -0.8580 -1.7122  0.5116
18433TIP3    H276715   2.036   6.416   2.620  0.1853 -0.1167 -0.2728
18434TIP3   OH276716   5.825   0.847   4.125  0.2326  0.0022  0.3334
18434TIP3    H176717   5.916   0.868   4.142  0.5536 -0.8616 -0.2965
18434TIP3    H276718   5.780   0.932   4.129  0.7828  0.2346  2.2493
18435TIP3   OH276719   1.389   5.332  12.416 -0.2369  0.1869  0.0389
18435TIP3    H176720   1.480   5.356  12.434  0.0601  0.7881 -2.1217
18435TIP3    H276721   1.392   5.238  12.395 -0.4496 -0.2930  2.0366
18436TIP3   OH276722   4.195   0.580   3.452 -0.7562  0.0597  0.7160
18436TIP3    H176723   4.243   0.517   3.399 -1.0804 -0.3439  0.9025
18436TIP3    H276724   4.258   0.609   3.519 -1.1476 -1.4094  1.7372
18437TIP3   OH276725   6.106   0.606   0.768 -0.5152 -0.1484  0.2275
18437TIP3    H176726   6.086   0.696   0.793 -0.4002  0.2873 -1.1910
18437TIP3    H276727   6.035   0.553   0.805 -1.3224  0.6927 -0.1280
18438TIP3   OH276728   0.118   2.290   1.084 -0.3573 -0.4866 -0.0127
18438TIP3    H176729   0.076   2.280   0.998  1.2228  0.1258 -0.8790
18438TIP3    H276730   0.175   2.214   1.091 -0.4300 -0.4950  0.4654
18439TIP3   OH276731   0.766   1.264   0.540  0.1140  0.2361 -0.0889
18439TIP3    H176732   0.791   1.333   0.602  0.5191  1.0055 -1.0852
18439TIP3    H276733   0.673   1.278   0.525  0.1294  0.3763 -0.0549
18440TIP3   OH276734   1.999   4.164  12.385 -0.1600  0.3856  0.1297
18440TIP3    H176735   1.947   4.139  12.461  0.9035  1.6153  1.2771
18440TIP3    H276736   1.957   4.243  12.351 -1.7549 -1.1996 -1.7234
18441TIP3   OH276737   1.561   6.572   1.096 -0.2478 -0.2448 -0.0990
18441TIP3    H176738   1.484   6.530   1.134 -0.8969  1.3400  0.4040
18441TIP3    H276739   1.583   6.641   1.159  0.6625  0.2800 -0.9891
18442TIP3   OH276740   2.249   5.485   1.720  0.6827 -0.5828 -0.4914
18442TIP3    H176741   2.253   5.540   1.642 -0.9499 -0.7014 -0.6764
18442TIP3    H276742   2.169   5.433   1.709 -1.3890  1.7034  2.6971
18443TIP3   OH276743   3.609   5.672  11.323  0.0712  0.1219 -0.3669
18443TIP3    H176744   3.654   5.589  11.340  0.0208 -0.0552 -1.0877
18443TIP3    H276745   3.553   5.684  11.400 -1.1002 -1.3207 -0.9555
18444TIP3   OH276746   3.267   2.040  12.787 -0.0500 -0.1789 -0.1362
18444TIP3    H176747   3.187   2.083  12.756  0.2125  1.5633  1.5731
18444TIP3    H276748   3.247   2.013  12.876  0.9053 -0.7315 -0.0816
18445TIP3   OH276749   2.406   0.952   2.068  0.0652  0.0908 -0.0649
18445TIP3    H176750   2.478   0.947   2.131  0.3225 -0.6479 -0.4221
18445TIP3    H276751   2.333   0.987   2.119 -0.0682 -1.6354  0.9719
18446TIP3   OH276752   4.608   6.286   0.492  0.5287 -0.1758 -0.4896
18446TIP3    H176753   4.685   6.258   0.441  0.2253 -1.8078 -0.1043
18446TIP3    H276754   4.561   6.204   0.510 -1.2467  0.7881 -0.6178
18447TIP3   OH276755   2.777   3.546   5.583 -0.9876 -0.2377  0.0940
18447TIP3    H176756   2.845   3.504   5.636  1.7949 -0.1631 -3.1828
18447TIP3    H276757   2.759   3.629   5.627  2.3267  0.5074  0.2006
18448TIP3   OH276758   1.463   6.485  14.997 -0.2618 -0.0653  0.2299
18448TIP3    H176759   1.428   6.410  14.949  0.6332  0.7460 -1.7126
18448TIP3    H276760   1.408   6.559  14.971  0.3656  0.4258  0.2840
18449TIP3   OH276761   4.545   3.652   0.375  0.2220 -0.1373  0.3730
18449TIP3    H176762   4.477   3.611   0.322 -2.1731  1.9052  1.7211
18449TIP3    H276763   4.502   3.670   0.459  1.6607  3.3739  0.4495
18450TIP3   OH276764   4.869   6.420  13.455 -0.1484  0.1567  0.3510
18450TIP3    H176765   4.910   6.505  13.440 -0.1141 -0.0910 -1.0858
18450TIP3    H276766   4.823   6.401  13.373  0.6725 -1.6625  0.2836
18451TIP3   OH276767   2.935   2.043  12.264  0.8706 -0.5659  0.6845
18451TIP3    H176768   2.842   2.021  12.268  0.5517  0.7949  1.4032
18451TIP3    H276769   2.977   1.966  12.227 -0.3397 -1.8160  1.8362
18452TIP3   OH276770   2.451   0.520   1.263  0.4810 -0.2173 -0.0024
18452TIP3    H176771   2.427   0.492   1.175 -0.2238 -0.9151  0.3979
18452TIP3    H276772   2.377   0.573   1.292  1.6549  1.8017 -0.6202
18453TIP3   OH276773   3.991   1.413   4.071 -0.1928 -0.0460  0.0907
18453TIP3    H176774   3.909   1.405   4.120  0.9342  2.5684  2.5697
18453TIP3    H276775   3.972   1.375   3.985 -2.6620 -3.4937  2.0465
18454TIP3   OH276776   5.946   0.010  16.010  0.0425  0.0913  0.2906
18454TIP3    H176777   5.872  -0.039  15.973  1.4635 -1.3197 -0.7572
18454TIP3    H276778   5.934   0.099  15.977  0.0049 -0.6263 -1.7038
18455TIP3   OH276779   4.953   3.828   0.882  0.9484 -0.1242 -0.8066
18455TIP3    H176780   4.999   3.801   0.961 -2.2778  0.7194  1.4736
18455TIP3    H276781   4.970   3.922   0.874  1.0049 -0.1431 -0.9063
18456TIP3   OH276782   0.178   3.606  13.518 -0.2035 -0.0832 -0.2360
18456TIP3    H176783   0.214   3.518  13.508  0.2054 -0.1206  1.4442
18456TIP3    H276784   0.255   3.663  13.517  0.1400 -0.2631  4.6458
18457TIP3   OH276785   4.613   4.011  14.457 -0.1280  0.1905  0.2719
18457TIP3    H176786   4.705   3.987  14.460 -0.0395  0.3649 -0.9208
18457TIP3    H276787   4.569   3.932  14.425 -0.4924 -0.1388  1.5500
18458TIP3   OH276788   5.632   1.144  16.621  0.0237  0.1827  0.1014
18458TIP3    H176789   5.617   1.238  16.633 -2.4280 -0.2589  0.7706
18458TIP3    H276790   5.548   1.110  16.591  0.9123 -1.8111 -0.2306
18459TIP3   OH276791   4.561   3.095   2.911 -0.3519  0.0500  0.2407
18459TIP3    H176792   4.574   3.075   2.818 -0.4214 -1.0640  0.4641
18459TIP3    H276793   4.469   3.074   2.928  0.1093 -1.4965  0.9708
18460TIP3   OH276794   3.791   1.459   0.989 -0.3762 -0.4718 -0.4052
18460TIP3    H176795   3.825   1.408   1.062 -0.7893 -1.8311 -1.1499
18460TIP3    H276796   3.777   1.547   1.025  1.2583 -0.6105  0.6361
18461TIP3   OH276797   0.590   5.930   5.767 -0.5804  0.5787 -0.6742
18461TIP3    H176798   0.519   5.867   5.757  1.8071 -2.1862 -1.2960
18461TIP3    H276799   0.634   5.903   5.848  0.3256  1.5858 -0.8219
18462TIP3   OH276800   1.604   3.480   1.955 -0.5502 -0.8325 -0.5259
18462TIP3    H176801   1.523   3.432   1.973  0.5430 -2.6895 -0.3664
18462TIP3    H276802   1.628   3.454   1.867 -0.2438 -0.0967 -0.6631
18463TIP3   OH276803   2.209   5.639  13.374 -0.0795  0.1478 -0.1900
18463TIP3    H176804   2.144   5.700  13.340 -2.3490 -1.6182  0.7973
18463TIP3    H276805   2.233   5.585  13.298 -0.9143 -0.1628 -0.2377
18464TIP3   OH276806   5.379   0.628  16.885  0.2169  0.0205 -0.2989
18464TIP3    H176807   5.412   0.636  16.974  0.5873 -0.2125 -0.4143
18464TIP3    H276808   5.383   0.717  16.850 -2.5935  0.6625  0.8516
18465TIP3   OH276809   2.039   1.988   1.738 -0.2583  0.6784  0.1436
18465TIP3    H176810   2.032   2.083   1.753 -1.1256  0.5414  0.6879
18465TIP3    H276811   2.132   1.972   1.729 -0.1340  1.6593 -0.3945
18466TIP3   OH276812   6.256   6.406  13.954  0.0121  0.2139  0.3222
18466TIP3    H176813   6.214   6.364  13.879 -0.6204  0.1343  0.7228
18466TIP3    H276814   6.345   6.369  13.955  0.0861  0.3666 -0.5050
18467TIP3   OH276815   5.392   5.901   2.922  0.3903 -0.3170  0.1973
18467TIP3    H176816   5.368   5.977   2.974  0.0794 -1.2268  1.4000
18467TIP3    H276817   5.415   5.937   2.836 -1.4414  0.9468  0.2188
18468TIP3   OH276818   1.843   1.614   2.685  0.1529  0.7869 -0.0774
18468TIP3    H176819   1.791   1.594   2.762 -1.1242 -2.5883 -1.7452
18468TIP3    H276820   1.778   1.630   2.616  1.3091  1.0047 -1.1258
18469TIP3   OH276821   6.349   0.312  12.699 -0.1511 -0.2443 -0.4756
18469TIP3    H176822   6.417   0.291  12.634 -1.8207  0.1711 -2.4013
18469TIP3    H276823   6.301   0.230  12.709  0.0289 -0.2732  0.1600
18470TIP3   OH276824   5.845   4.201   3.827  0.0794  0.2968  0.1580
18470TIP3    H176825   5.865   4.277   3.773 -2.4580  1.3223  0.5714
18470TIP3    H276826   5.750   4.195   3.826  0.2057 -2.5100  0.6670
18471TIP3   OH276827   6.417   0.389  15.663 -0.0543  0.3637  0.5230
18471TIP3    H176828   6.457   0.396  15.749  1.9348 -1.5558 -0.1770
18471TIP3    H276829   6.491   0.373  15.604 -1.5243  0.2021 -1.3268
18472TIP3   OH276830   2.815   6.000   1.359 -0.1884  0.3297 -0.0765
18472TIP3    H176831   2.842   5.925   1.412 -0.3794  1.1846  1.2699
18472TIP3    H276832   2.897   6.046   1.339 -0.2555  0.8516  0.8074
18473TIP3   OH276833   2.057   3.031   1.542 -0.7227  0.1747  0.9114
18473TIP3    H176834   2.065   3.071   1.455  0.5693 -1.6488  0.1802
18473TIP3    H276835   2.104   3.091   1.601  0.7533  0.0058 -0.0872
18474TIP3   OH276836   5.482   0.397  16.753 -0.1223 -0.0260 -0.8598
18474TIP3    H176837   5.431   0.327  16.793 -0.1706  1.8114  2.4443
18474TIP3    H276838   5.439   0.478  16.780  1.6086  1.4005 -2.2034
18475TIP3   OH276839   5.514   3.335   6.027 -0.2427  0.0685  0.9294
18475TIP3    H176840   5.531   3.324   5.933 -0.4470 -0.0540  0.9069
18475TIP3    H276841   5.473   3.252   6.054 -0.4676  0.2204  1.0597
18476TIP3   OH276842   3.840   4.694  10.986 -0.0357  0.2993  0.7062
18476TIP3    H176843   3.879   4.608  11.001  0.7229  0.7268  1.2307
18476TIP3    H276844   3.843   4.706  10.891  1.7136  0.5873  0.7789
18477TIP3   OH276845   0.105   3.055   2.512 -0.6878 -0.2105 -0.0605
18477TIP3    H176846   0.194   3.090   2.506 -1.0224  0.4420 -1.5391
18477TIP3    H276847   0.053   3.115   2.459 -1.4966 -2.3033 -1.6901
18478TIP3   OH276848   1.863   4.824   3.610  0.3871  0.6071 -0.1196
18478TIP3    H176849   1.884   4.894   3.671 -1.0616  2.9197 -2.1711
18478TIP3    H276850   1.948   4.793   3.579  1.0411  2.0846  0.1297
18479TIP3   OH276851   5.121   6.301  14.591  0.7816  0.1555  0.2133
18479TIP3    H176852   5.106   6.369  14.526 -1.1464 -1.2276 -0.8377
18479TIP3    H276853   5.215   6.283  14.587  0.7718  0.4644 -1.8034
18480TIP3   OH276854   0.365   0.954   0.165  0.5478  0.0571 -0.0213
18480TIP3    H176855   0.371   1.001   0.082  2.1464  2.7631  1.5593
18480TIP3    H276856   0.435   0.889   0.161 -0.6600 -1.1775 -1.5776
18481TIP3   OH276857   0.729   1.548   5.632 -0.0809 -0.0251 -0.7125
18481TIP3    H176858   0.815   1.510   5.649  0.4068  1.6132  0.5768
18481TIP3    H276859   0.671   1.473   5.621  1.1959 -1.1332  0.0472
18482TIP3   OH276860   1.683   1.446   4.197  0.1256  1.0356 -0.1185
18482TIP3    H176861   1.661   1.375   4.257  2.9287  0.0230 -0.2294
18482TIP3    H276862   1.628   1.519   4.225 -1.2871 -0.5462  1.3170
18483TIP3   OH276863   1.943   4.073   2.530  0.3740  0.2809 -0.0345
18483TIP3    H176864   2.002   4.147   2.514 -2.5545  3.1032  1.6027
18483TIP3    H276865   1.902   4.058   2.445  0.6787  0.8296 -0.2862
18484TIP3   OH276866   5.267   2.972   1.002  0.3656 -0.6825  0.6740
18484TIP3    H176867   5.324   2.938   0.933 -0.4577  0.7063 -0.7128
18484TIP3    H276868   5.216   2.896   1.031  0.0705 -1.1062 -0.9015
18485TIP3   OH276869   6.341   2.307  14.820 -0.0086  0.6511 -0.2643
18485TIP3    H176870   6.383   2.318  14.734 -0.2739  3.4351 -0.1023
18485TIP3    H276871   6.253   2.343  14.808 -1.6137 -2.9808  0.0351
18486TIP3   OH276872   0.355   6.425  15.803 -0.0508  0.0512  0.3272
18486TIP3    H176873   0.422   6.361  15.779  0.6789  0.7207  0.5501
18486TIP3    H276874   0.274   6.390  15.765  0.4738 -0.6101 -0.2082
18487TIP3   OH276875   2.716   4.179  13.468 -0.4854 -0.3482  0.6386
18487TIP3    H176876   2.724   4.113  13.537  0.3460 -0.2807  0.6168
18487TIP3    H276877   2.677   4.255  13.511  0.2869 -0.2087  1.1060
18488TIP3   OH276878   0.130   0.504  13.893  0.3056  0.2521 -0.4513
18488TIP3    H176879   0.133   0.542  13.805 -1.3818 -0.8189 -0.9891
18488TIP3    H276880   0.207   0.449  13.898  0.9513  1.1020 -0.8935
18489TIP3   OH276881   4.649   1.617   3.139 -0.4036  0.2826  0.0759
18489TIP3    H176882   4.592   1.561   3.088  1.0428 -0.3450 -0.8946
18489TIP3    H276883   4.649   1.701   3.094 -3.1009  1.3211  1.9050
18490TIP3   OH276884   6.051   1.407   2.572  0.2999  0.0304  0.7070
18490TIP3    H176885   6.046   1.451   2.657  1.4316  1.3828  0.0991
18490TIP3    H276886   6.138   1.368   2.570  0.2760  0.0007  0.1633
18491TIP3   OH276887   2.832   0.454  13.560  0.0599  0.2181 -0.6181
18491TIP3    H176888   2.748   0.497  13.571 -1.6284 -2.5487 -1.9866
18491TIP3    H276889   2.884   0.515  13.507 -0.1668  2.9928  2.2165
18492TIP3   OH276890   3.111   6.256   1.750 -0.2173 -0.7474 -0.5549
18492TIP3    H176891   3.037   6.317   1.755 -1.2018 -2.0237  1.2870
18492TIP3    H276892   3.184   6.303   1.790 -0.9228 -0.7034  0.7030
18493TIP3   OH276893   5.535   2.231  11.970  0.4026  0.0232 -0.7854
18493TIP3    H176894   5.612   2.267  12.014 -1.0956  0.5421  1.4810
18493TIP3    H276895   5.470   2.301  11.972 -1.4789 -1.6933  0.8908
18494TIP3   OH276896   1.351   2.224  13.126 -0.1068  0.3233  0.3935
18494TIP3    H176897   1.375   2.150  13.182 -0.0240 -2.0019 -2.6173
18494TIP3    H276898   1.256   2.218  13.118 -0.0172  0.0484 -0.5032
18495TIP3   OH276899   4.027   4.317   1.600 -0.1024  0.2832  0.4734
18495TIP3    H176900   4.042   4.405   1.634  1.3607 -0.1817  1.0663
18495TIP3    H276901   4.023   4.262   1.678 -4.5668  0.2709  0.3567
18496TIP3   OH276902   1.123   1.568  12.957  0.2645 -0.1839 -0.1403
18496TIP3    H176903   1.191   1.504  12.978  2.1538  1.2666 -1.6554
18496TIP3    H276904   1.101   1.550  12.865  0.9115  1.4120 -0.6178
18497TIP3   OH276905   0.568   0.531   4.010  0.0265 -0.3146 -0.4580
18497TIP3    H176906   0.565   0.544   3.916  0.6797 -3.5685 -0.9914
18497TIP3    H276907   0.662   0.534   4.032 -0.1762  1.3879  0.2673
18498TIP3   OH276908   2.745   2.655  13.401 -0.2843  0.3944 -0.3991
18498TIP3    H176909   2.678   2.648  13.333  0.1329 -0.8736 -0.6949
18498TIP3    H276910   2.801   2.727  13.372 -1.5056  1.4386 -0.1639
18499TIP3   OH276911   5.978   1.983   3.885 -0.3371  0.1400 -0.8595
18499TIP3    H176912   5.983   2.065   3.934 -0.8497  1.3770 -2.8138
18499TIP3    H276913   5.899   1.940   3.919 -0.0937  0.4768  0.1433
18500TIP3   OH276914   6.245   2.466  17.098 -0.0756  0.0896 -0.2448
18500TIP3    H176915   6.320   2.447  17.154 -0.7260  1.5125  1.1629
18500TIP3    H276916   6.260   2.414  17.020  1.7763 -0.5640  0.5027
18501TIP3   OH276917   4.734   4.650  17.191  0.0992 -0.2689 -0.0371
18501TIP3    H176918   4.661   4.590  17.178  1.3221 -1.8473  0.2677
18501TIP3    H276919   4.717   4.722  17.130 -0.6886 -1.5774 -1.3975
18502TIP3   OH276920   2.587   5.114  14.588 -0.0821  0.9922 -0.2438
18502TIP3    H176921   2.492   5.104  14.595  0.0671  0.1333  0.6059
18502TIP3    H276922   2.613   5.051  14.520 -0.0835  1.0434 -0.2908
18503TIP3   OH276923   0.778   1.301   3.445 -0.2709 -0.3792  0.8553
18503TIP3    H176924   0.766   1.350   3.364 -2.1227  0.6096  1.7087
18503TIP3    H276925   0.845   1.235   3.423  0.9535  1.3558 -0.8018
18504TIP3   OH276926   6.417   1.905   3.539  0.3311 -0.5224  0.8778
18504TIP3    H176927   6.465   1.885   3.458 -0.0714  0.7071  0.3104
18504TIP3    H276928   6.446   1.839   3.602  1.3569 -0.9238 -0.0020
18505TIP3   OH276929   5.986   3.737  14.664  0.3750 -0.0972 -0.6458
18505TIP3    H176930   6.042   3.727  14.587 -0.6152 -0.0416 -1.3958
18505TIP3    H276931   6.002   3.658  14.716  0.6744 -0.3912 -1.1732
18506TIP3   OH276932   0.648   1.253  17.222  0.0593  0.4438 -0.0296
18506TIP3    H176933   0.717   1.199  17.185 -2.4076 -2.7421 -0.1212
18506TIP3    H276934   0.663   1.250  17.317  0.8880  0.9812 -0.1402
18507TIP3   OH276935   0.477   3.816  15.571  0.1066  0.4391  0.2761
18507TIP3    H176936   0.493   3.874  15.645 -0.3721  1.2290 -0.2415
18507TIP3    H276937   0.530   3.852  15.500  0.2916 -0.1165  0.1242
18508TIP3   OH276938   5.870   6.198   4.477  0.5970  0.0828 -0.8014
18508TIP3    H176939   5.859   6.107   4.451 -4.1461  0.5460 -0.7774
18508TIP3    H276940   5.878   6.246   4.395 -0.8484  0.0718 -0.9496
18509TIP3   OH276941   1.042   1.491  16.134 -0.1857 -0.6792 -0.0178
18509TIP3    H176942   0.989   1.413  16.119 -0.6682 -0.3486 -0.0227
18509TIP3    H276943   1.085   1.475  16.218 -1.9196 -0.0382  1.0184
18510TIP3   OH276944   1.069   4.603  11.127  0.1205  0.1465 -0.3207
18510TIP3    H176945   1.004   4.607  11.197  0.8743  0.9025  0.3440
18510TIP3    H276946   1.139   4.662  11.155  0.4672  0.4112 -1.6794
18511TIP3   OH276947   4.529   1.850   3.048 -0.1888 -0.7787 -0.3834
18511TIP3    H176948   4.607   1.904   3.039 -0.5383 -0.3869 -1.0677
18511TIP3    H276949   4.505   1.827   2.958 -0.7866 -0.9987 -0.1691
18512TIP3   OH276950   1.429   6.721  13.900 -0.1686 -0.5144  0.4146
18512TIP3    H176951   1.385   6.702  13.817  0.8057 -0.6896 -0.0760
18512TIP3    H276952   1.411   6.645  13.955 -0.2200 -0.7222  0.1117
18513TIP3   OH276953   1.621   5.091   6.375  0.0375 -0.6924 -0.3107
18513TIP3    H176954   1.699   5.146   6.385  0.8093 -2.1855  2.3523
18513TIP3    H276955   1.617   5.072   6.281  1.7058  1.0453 -0.7800
18514TIP3   OH276956   0.089   1.008  12.204  0.2860 -0.9866  0.0959
18514TIP3    H176957   0.149   1.049  12.141 -2.4106  0.0583 -1.8816
18514TIP3    H276958   0.079   1.073  12.273 -1.5042  0.4715 -1.4767
18515TIP3   OH276959   2.707   4.698  11.609 -0.3632  0.4885 -0.5084
18515TIP3    H176960   2.727   4.776  11.557  0.2488  0.4249 -0.3700
18515TIP3    H276961   2.681   4.733  11.694 -0.6996  0.5649 -0.6398
18516TIP3   OH276962   1.055   1.200   3.365  0.0632  0.1191 -0.1983
18516TIP3    H176963   1.115   1.226   3.295  0.3539 -0.7255 -0.2664
18516TIP3    H276964   1.040   1.107   3.350  2.2898 -0.7429  2.4580
18517TIP3   OH276965   3.912   2.871  13.923  0.9072  0.2838 -0.6615
18517TIP3    H176966   3.871   2.951  13.888  1.6375 -0.6710 -3.8672
18517TIP3    H276967   3.852   2.801  13.897  1.3514 -0.4361  0.2594
18518TIP3   OH276968   3.648   4.654  15.764  0.1185 -0.2921  0.2062
18518TIP3    H176969   3.572   4.684  15.813  0.2714 -1.6158  1.2944
18518TIP3    H276970   3.707   4.617  15.830  1.6016  0.4595 -0.6482
18519TIP3   OH276971   0.633   0.853   0.279  0.4297 -0.1926  0.2395
18519TIP3    H176972   0.711   0.909   0.286 -0.5503  1.4498 -1.5868
18519TIP3    H276973   0.591   0.859   0.365  2.2150 -1.0239  1.2228
18520TIP3   OH276974   6.777   2.998  13.963  0.5043  0.4457 -0.3478
18520TIP3    H176975   6.835   2.989  14.039  1.6471 -1.1674 -1.3798
18520TIP3    H276976   6.744   3.087  13.969  1.3577  0.6719  1.4955
18521TIP3   OH276977   2.337   4.261   2.481  0.2994  0.0889  0.0794
18521TIP3    H176978   2.362   4.268   2.573  0.6505 -1.1385  0.0919
18521TIP3    H276979   2.410   4.215   2.440 -0.8178 -1.3395 -0.3692
18522TIP3   OH276980   6.384   1.462  11.140 -0.5235 -0.1262 -0.0787
18522TIP3    H176981   6.339   1.509  11.070 -0.5357 -0.3274 -0.2052
18522TIP3    H276982   6.315   1.438  11.202 -0.5454 -0.1638 -0.1191
18523TIP3   OH276983   5.826   6.703  11.449  0.5285  0.3878 -0.4609
18523TIP3    H176984   5.778   6.764  11.505  0.4304 -1.2432  1.3140
18523TIP3    H276985   5.757   6.660  11.398  0.4701  0.8412 -0.7614
18524TIP3   OH276986   4.972   6.078   2.063 -0.3230  0.1860 -0.4242
18524TIP3    H176987   4.900   6.068   2.000  1.0117  0.4428 -2.0297
18524TIP3    H276988   5.029   6.004   2.045  0.5915  0.8363 -0.2212
18525TIP3   OH276989   0.561   2.827  16.344  0.2857  0.3392 -0.8990
18525TIP3    H176990   0.476   2.868  16.363  0.5057 -0.5458  2.4032
18525TIP3    H276991   0.546   2.734  16.356  1.5984  0.1399 -0.7105
18526TIP3   OH276992   5.940   6.522  16.588  0.3912 -0.3736 -0.4167
18526TIP3    H176993   6.030   6.541  16.561  0.4608 -0.6966 -0.4142
18526TIP3    H276994   5.949   6.455  16.656  0.2893  1.3150  1.2884
18527TIP3   OH276995   6.206   2.927   0.718  0.1520  0.2765 -0.2626
18527TIP3    H176996   6.192   3.021   0.721  2.0425  0.5458  1.2601
18527TIP3    H276997   6.255   2.913   0.637  0.2180  0.6720 -0.2928
18528TIP3   OH276998   5.685   0.464   2.401  0.3955  0.0478  0.5684
18528TIP3    H176999   5.618   0.478   2.468  0.5027 -0.2753  0.7473
18528TIP3    H277000   5.718   0.551   2.381  0.8981  0.0788  1.4925
18529TIP3   OH277001   2.149   1.697  16.917 -0.3433 -0.2355 -0.1506
18529TIP3    H177002   2.115   1.770  16.865  0.2367  0.2056  0.0864
18529TIP3    H277003   2.133   1.723  17.008  0.2127 -0.2342 -0.0523
18530TIP3   OH277004   6.289   4.016   5.727  0.0269 -0.2900  0.0424
18530TIP3    H177005   6.301   3.986   5.637 -1.3938  2.9678 -1.3127
18530TIP3    H277006   6.367   4.070   5.744 -0.1235 -0.2051  0.4483
18531TIP3   OH277007   2.223   0.947   6.091  0.5335  0.3664 -0.0529
18531TIP3    H177008   2.305   0.973   6.049  0.6370  0.2143  0.0553
18531TIP3    H277009   2.208   0.858   6.061  1.8622 -0.6408  2.1038
18532TIP3   OH277010   3.466   3.409  13.142 -0.0688  0.1293  0.7357
18532TIP3    H177011   3.467   3.494  13.187  1.3058 -0.2141  1.3492
18532TIP3    H277012   3.377   3.376  13.156 -0.6282  1.4619  0.4799
18533TIP3   OH277013   4.526   2.083  15.650 -0.5791 -0.3623  0.0663
18533TIP3    H177014   4.554   2.028  15.723 -0.8381  1.1582  1.3469
18533TIP3    H277015   4.431   2.073  15.646 -0.6061 -0.1638  0.1796
18534TIP3   OH277016   0.397   6.773   3.768  0.1277  0.4046 -0.3360
18534TIP3    H177017   0.374   6.829   3.843  1.6206  0.7630 -0.1162
18534TIP3    H277018   0.473   6.723   3.799  0.1850 -0.1150 -1.3078
18535TIP3   OH277019   4.562   5.796  14.532  0.5371 -0.0025  0.5582
18535TIP3    H177020   4.513   5.745  14.467 -0.8090  0.7514  0.9634
18535TIP3    H277021   4.607   5.730  14.585  0.3355 -0.6870 -0.1107
18536TIP3   OH277022   6.299   0.534   2.975 -0.6536 -0.3351 -0.7079
18536TIP3    H177023   6.304   0.507   2.884 -3.5895  0.7484 -1.2287
18536TIP3    H277024   6.216   0.499   3.007 -1.0020  1.6921  0.7174
18537TIP3   OH277025   6.180   5.096   2.460 -0.1126  0.1374  0.3242
18537TIP3    H177026   6.232   5.019   2.440  0.1433  0.1088  1.0848
18537TIP3    H277027   6.103   5.089   2.404  0.0874 -0.4792  0.1312
18538TIP3   OH277028   2.065   2.119   3.322 -0.7713 -0.0868  0.2125
18538TIP3    H177029   1.969   2.111   3.317 -0.8282 -0.6574  1.8900
18538TIP3    H277030   2.098   2.052   3.263 -1.4063 -1.0360  0.9247
18539TIP3   OH277031   3.785   4.200   1.522 -0.5141 -0.1410  0.2959
18539TIP3    H177032   3.870   4.235   1.547  0.0753 -2.9996  2.4959
18539TIP3    H277033   3.779   4.217   1.428  1.9453  1.1649  0.3285
18540TIP3   OH277034   4.140   2.376  13.381  0.4459  0.1953 -0.1092
18540TIP3    H177035   4.214   2.436  13.384  1.0247 -0.4659 -1.0781
18540TIP3    H277036   4.089   2.398  13.459  1.6019  0.7242  0.5168
18541TIP3   OH277037   3.449   3.981  17.042  0.2545  0.5423 -0.1185
18541TIP3    H177038   3.538   4.009  17.063  0.9244 -1.1222 -0.7096
18541TIP3    H277039   3.423   4.039  16.969  0.7426  1.2038  0.2266
18542TIP3   OH277040   4.917   5.917   3.068 -0.8650  0.0853  0.5722
18542TIP3    H177041   4.981   5.855   3.033 -0.1710  1.7192 -1.1241
18542TIP3    H277042   4.832   5.880   3.043 -0.4369  0.1122 -0.9602
18543TIP3   OH277043   4.657   6.023  15.943  0.1607 -0.1253  0.0995
18543TIP3    H177044   4.652   5.959  15.871 -0.4201 -0.1595  0.1682
18543TIP3    H277045   4.610   6.099  15.910  0.8691  0.2763  0.0127
18544TIP3   OH277046   0.040   1.588  16.032 -0.3121  0.3712 -0.1016
18544TIP3    H177047   0.008   1.526  16.097  1.7054 -1.5768 -0.9311
18544TIP3    H277048  -0.038   1.640  16.009 -1.2166  0.5923  3.2286
18545TIP3   OH277049   5.776   6.166  10.516 -0.0665  0.2071  0.2572
18545TIP3    H177050   5.794   6.087  10.464  0.9868  0.5805  0.0369
18545TIP3    H277051   5.861   6.192  10.550 -0.3370  1.5077 -0.0332
18546TIP3   OH277052   2.220   0.265   3.498 -0.2901 -0.5069  0.0784
18546TIP3    H177053   2.179   0.179   3.511 -0.3373 -0.4396  0.4001
18546TIP3    H277054   2.313   0.249   3.517  0.0680 -0.9608 -2.0169
18547TIP3   OH277055   3.255   6.709   1.214  0.1602 -0.2419 -0.8885
18547TIP3    H177056   3.255   6.797   1.251  1.5947 -1.0574  1.1783
18547TIP3    H277057   3.168   6.673   1.235  0.3395 -0.0660  0.1831
18548TIP3   OH277058   3.569   0.307  13.606  0.0469 -0.1775 -0.0403
18548TIP3    H177059   3.623   0.243  13.652  0.4802  0.5512  0.4730
18548TIP3    H277060   3.564   0.382  13.665 -1.1362 -0.0445 -0.2836
18549TIP3   OH277061   5.812   2.003   5.263 -0.3141 -0.0753  0.2004
18549TIP3    H177062   5.810   1.980   5.356 -2.2704 -0.0419  0.1909
18549TIP3    H277063   5.862   1.933   5.221  1.8863  0.6871  1.4540
18550TIP3   OH277064   5.538   5.692   6.137  0.2177 -0.3953  0.2211
18550TIP3    H177065   5.624   5.719   6.103  0.8889  2.6591  3.8977
18550TIP3    H277066   5.558   5.620   6.197  0.3173  0.6656  1.4792
18551TIP3   OH277067   6.493   2.434  11.779  0.0695  0.1491 -0.4141
18551TIP3    H177068   6.580   2.474  11.772  0.3115 -0.3920 -0.4982
18551TIP3    H277069   6.497   2.357  11.722 -0.8446  0.7856 -1.3640
18552TIP3   OH277070   4.844   3.314   4.444 -0.5671 -0.0231  0.3220
18552TIP3    H177071   4.899   3.329   4.520 -1.0397  0.1841  0.6195
18552TIP3    H277072   4.761   3.283   4.479 -0.8193  0.1591 -0.1027
18553TIP3   OH277073   3.534   1.271  12.825 -0.2135 -0.5779 -0.6141
18553TIP3    H177074   3.486   1.323  12.890  0.3045 -1.9676  0.9170
18553TIP3    H277075   3.489   1.187  12.824  0.3323 -0.8586 -1.4082
18554TIP3   OH277076   0.977   2.074   2.702  0.4132  0.4553  0.6187
18554TIP3    H177077   1.008   2.162   2.724  0.5153  0.7589 -0.6851
18554TIP3    H277078   1.048   2.016   2.728  0.9856  0.9073  0.0673
18555TIP3   OH277079   5.299   3.380   2.147  0.4871 -0.0991 -0.5203
18555TIP3    H177080   5.312   3.433   2.068  1.7180 -2.3503 -1.8827
18555TIP3    H277081   5.387   3.354   2.173 -0.0158 -0.4227  0.8725
18556TIP3   OH277082   6.504   1.235  13.182 -0.0439  0.4419  0.1365
18556TIP3    H177083   6.564   1.216  13.255 -0.5209 -1.0226  0.1609
18556TIP3    H277084   6.562   1.242  13.106  0.1570 -1.4876  0.0656
18557TIP3   OH277085   2.054   4.050  14.509  0.3747  0.4268 -0.6105
18557TIP3    H177086   2.102   4.123  14.547 -0.5404  1.4090 -1.3233
18557TIP3    H277087   2.120   3.981  14.497  1.2234  1.1086  0.1196
18558TIP3   OH277088   3.244   3.303   0.564 -0.4309 -0.7235  0.0431
18558TIP3    H177089   3.168   3.247   0.578 -1.2067  0.5065  0.8287
18558TIP3    H277090   3.249   3.357   0.643 -0.9807  1.8045 -1.5679
18559TIP3   OH277091   1.429   6.648   2.970  0.0960  0.6744  0.5087
18559TIP3    H177092   1.460   6.628   3.058 -3.6860  1.7496  2.1716
18559TIP3    H277093   1.423   6.562   2.927 -0.0190 -0.0675  1.9805
18560TIP3   OH277094   5.657   2.633   2.602  0.2230  0.1058 -0.3726
18560TIP3    H177095   5.680   2.581   2.678  2.1381  0.0291 -0.9750
18560TIP3    H277096   5.650   2.723   2.635 -0.9253 -0.2097  0.2536
18561TIP3   OH277097   2.173   0.732   2.319  0.1138  0.0019  0.0290
18561TIP3    H177098   2.238   0.768   2.380 -1.5049  2.5312  0.3698
18561TIP3    H277099   2.224   0.699   2.246  1.9851 -1.2856  1.8384
18562TIP3   OH277100   1.327   5.671  12.947  0.5170 -0.0215 -0.3107
18562TIP3    H177101   1.413   5.699  12.979  0.7706 -1.6844  0.5091
18562TIP3    H277102   1.270   5.745  12.967  1.6499  0.9004 -0.4084
18563TIP3   OH277103   2.061   6.637   3.968  0.0018  0.3223  0.5788
18563TIP3    H177104   2.124   6.688   3.917  1.1074  0.5171  2.1021
18563TIP3    H277105   1.977   6.656   3.927  0.9397 -0.2043 -1.7058
18564TIP3   OH277106   2.690   1.069   3.207 -0.2722  0.3525  0.3903
18564TIP3    H177107   2.645   1.112   3.134 -0.6352 -0.4586  0.1356
18564TIP3    H277108   2.783   1.074   3.184 -0.3798  0.1482 -0.1048
18565TIP3   OH277109   5.234   5.134  11.560  0.2258  0.1701  0.2334
18565TIP3    H177110   5.280   5.186  11.627 -0.7235  0.5700  0.5747
18565TIP3    H277111   5.160   5.095  11.606 -1.1841  1.4895 -0.8688
18566TIP3   OH277112   2.425   3.396  13.615  0.0574 -0.3340 -0.4053
18566TIP3    H177113   2.420   3.301  13.623 -0.2972 -0.2693  0.1642
18566TIP3    H277114   2.441   3.412  13.522  1.8315 -1.0148 -0.2371
18567TIP3   OH277115   0.841   4.528   5.460  0.0304  0.2488 -0.2387
18567TIP3    H177116   0.794   4.471   5.399  0.5195 -1.6505  1.0993
18567TIP3    H277117   0.910   4.473   5.496  0.1423  1.5005  1.5582
18568TIP3   OH277118   4.136   4.029  13.714  0.0541 -0.0090 -0.4715
18568TIP3    H177119   4.047   4.060  13.703 -1.3088 -3.3677  0.5242
18568TIP3    H277120   4.147   4.019  13.809  1.5941  0.6547 -0.5600
18569TIP3   OH277121   1.952   3.068   0.893  0.0697  0.1659 -0.8175
18569TIP3    H177122   1.889   3.005   0.858  1.3173 -0.6930 -1.5656
18569TIP3    H277123   1.940   3.063   0.988 -1.5797  0.6466 -0.9862
18570TIP3   OH277124   3.670   5.246   1.257  0.3975  0.1597  0.0558
18570TIP3    H177125   3.712   5.163   1.234 -1.1022 -0.8606  0.9174
18570TIP3    H277126   3.629   5.275   1.176  0.3329 -0.3018 -0.0787
18571TIP3   OH277127   5.153   1.668  13.496 -0.4636 -0.0600 -0.1574
18571TIP3    H177128   5.067   1.698  13.466 -1.7512 -0.4747  2.8746
18571TIP3    H277129   5.208   1.746  13.495 -1.0453  0.3515 -1.4667
18572TIP3   OH277130   4.616   0.008   2.996  0.3111 -0.8216  0.2831
18572TIP3    H177131   4.694   0.057   3.022 -0.7726  0.9886  0.2603
18572TIP3    H277132   4.617  -0.070   3.052  0.5666  0.6437  2.3933
18573TIP3   OH277133   4.818   2.460  14.446  0.2783 -0.3000 -0.3215
18573TIP3    H177134   4.785   2.395  14.509  0.9217 -0.7460 -0.4425
18573TIP3    H277135   4.911   2.440  14.437  0.2892  0.0678 -1.0580
18574TIP3   OH277136   0.165   6.145   5.247  0.2651  0.3021  1.0928
18574TIP3    H177137   0.233   6.089   5.209 -0.8966 -0.6634  0.4294
18574TIP3    H277138   0.163   6.222   5.191 -0.9987 -0.8338 -0.4576
18575TIP3   OH277139   6.442   6.727  12.197  0.4417 -0.0064  0.3255
18575TIP3    H177140   6.389   6.648  12.208 -1.2483  1.3569  2.2912
18575TIP3    H277141   6.400   6.774  12.124 -0.0864  0.3098  0.8352
18576TIP3   OH277142   3.061   1.684   2.066 -0.5544 -0.1744 -0.0683
18576TIP3    H177143   3.145   1.721   2.037  0.6661 -2.2087  0.6885
18576TIP3    H277144   3.009   1.676   1.986 -0.3867  1.9663 -0.4175
18577TIP3   OH277145   0.106   6.476   5.803  0.0666 -0.3593  0.4368
18577TIP3    H177146   0.141   6.547   5.857  0.6776 -0.7804  0.6002
18577TIP3    H277147   0.067   6.415   5.865  0.0857 -0.4676  0.3432
18578TIP3   OH277148   5.731   4.043   0.959  1.0930 -0.1909  0.1712
18578TIP3    H177149   5.773   4.127   0.943 -0.0223  0.0566 -1.5776
18578TIP3    H277150   5.697   4.017   0.873 -0.9126 -1.1489  1.2421
18579TIP3   OH277151   3.881   1.202   5.847  0.5387 -0.3999 -0.3689
18579TIP3    H177152   3.805   1.166   5.893 -0.6470 -1.2946 -2.9142
18579TIP3    H277153   3.897   1.287   5.888 -3.0917  0.6853 -1.0688
18580TIP3   OH277154   5.445   0.979  10.882  0.2200  0.0743  0.1097
18580TIP3    H177155   5.431   0.885  10.875 -0.0697  0.2189 -1.2755
18580TIP3    H277156   5.432   1.012  10.794  0.0710  1.4536  0.6420
18581TIP3   OH277157   2.389   3.708   6.332 -0.5366 -0.2834  0.0102
18581TIP3    H177158   2.476   3.726   6.366 -0.0470 -0.1921 -1.2751
18581TIP3    H277159   2.396   3.621   6.292 -0.8866 -0.0353 -0.5930
18582TIP3   OH277160   0.104   0.037   6.463 -0.4487 -0.2174 -0.2562
18582TIP3    H177161   0.139  -0.047   6.432 -0.7426  0.4983 -2.6329
18582TIP3    H277162   0.175   0.099   6.449 -1.1806  0.4375 -1.0741
18583TIP3   OH277163   2.150   5.946  16.120  0.1756 -0.2124 -0.5106
18583TIP3    H177164   2.122   5.864  16.079 -0.3523 -0.3279  0.0778
18583TIP3    H277165   2.245   5.948  16.105  0.2190 -1.0109 -0.3881
18584TIP3   OH277166   0.366   1.842  13.023 -0.3169  0.3959 -0.1092
18584TIP3    H177167   0.389   1.817  13.113 -3.9191 -1.1706  0.4521
18584TIP3    H277168   0.370   1.761  12.973  0.5008  1.0479 -1.1405
18585TIP3   OH277169   2.204   2.056   0.136  0.1984  0.0243 -0.4300
18585TIP3    H177170   2.201   2.088   0.046 -0.7057  3.8723  0.8579
18585TIP3    H277171   2.118   2.017   0.152 -0.0649  0.4335 -0.8596
18586TIP3   OH277172   5.309   3.453  15.396  0.0043  0.2118 -0.2678
18586TIP3    H177173   5.326   3.450  15.302 -0.5415 -0.3241 -0.3516
18586TIP3    H277174   5.253   3.529  15.408  2.1640  1.8098 -0.0270
18587TIP3   OH277175   0.817   3.081  14.284  0.0370  0.4742 -0.2714
18587TIP3    H177176   0.831   3.139  14.359 -1.3124 -0.3250  0.6116
18587TIP3    H277177   0.730   3.104  14.251 -0.6348 -1.2182  0.2579
18588TIP3   OH277178   0.948   1.224   2.916  0.1918 -0.0938 -0.7887
18588TIP3    H177179   0.873   1.168   2.936  0.0589  0.6731  0.8884
18588TIP3    H277180   0.958   1.217   2.821 -1.5908 -0.7104 -0.9475
18589TIP3   OH277181   3.423   3.620  12.034  1.1300  0.3266  0.6731
18589TIP3    H177182   3.447   3.626  11.942 -1.7038 -0.2787 -0.1232
18589TIP3    H277183   3.420   3.711  12.064 -2.0165  0.8027 -0.9403
18590TIP3   OH277184   5.583   5.637  15.278 -0.0216 -0.3394  0.1367
18590TIP3    H177185   5.558   5.729  15.279 -2.3081 -0.8843 -1.6748
18590TIP3    H277186   5.676   5.636  15.302 -0.4080  2.2704  1.8329
18591TIP3   OH277187   4.448   6.660  11.671 -0.2654  0.5152 -0.4095
18591TIP3    H177188   4.375   6.599  11.662  1.8402 -2.1750  0.0379
18591TIP3    H277189   4.418   6.724  11.736 -1.9593 -0.9471  0.2899
18592TIP3   OH277190   6.748   3.142  12.814  0.3201 -0.1129  0.2971
18592TIP3    H177191   6.763   3.095  12.896 -0.8021  0.1807  0.6814
18592TIP3    H277192   6.786   3.228  12.829  2.1966 -0.8196 -0.3331
18593TIP3   OH277193   6.214   1.623   0.601  0.2153 -0.2107  0.2497
18593TIP3    H177194   6.211   1.682   0.525  0.4519  0.6532  0.9070
18593TIP3    H277195   6.308   1.612   0.618  0.1407  0.4841  1.1055
18594TIP3   OH277196   2.085   1.476  12.962  0.2894  0.2984  0.6544
18594TIP3    H177197   2.099   1.518  12.877 -0.5184  0.4102  0.5747
18594TIP3    H277198   2.159   1.416  12.971  1.6530  1.9688  0.9302
18595TIP3   OH277199   0.487   3.889  13.240  0.0781 -0.2540  0.0864
18595TIP3    H177200   0.536   3.877  13.322  0.7855  2.1396  0.0761
18595TIP3    H277201   0.553   3.883  13.171 -0.4477 -1.8399 -0.2857
18596TIP3   OH277202   0.398   0.039   3.484 -0.6326 -0.4348  0.1632
18596TIP3    H177203   0.369   0.057   3.573 -0.3308 -0.4278  0.2614
18596TIP3    H277204   0.319   0.011   3.438 -1.4433  2.5144 -0.3773
18597TIP3   OH277205   6.368   1.289  16.638  0.4405 -0.1391 -0.1273
18597TIP3    H177206   6.350   1.372  16.683  0.6159 -0.0154 -0.2830
18597TIP3    H277207   6.399   1.316  16.551  1.4674 -0.3369  0.1667
18598TIP3   OH277208   3.585   3.026   1.643  0.2513 -0.2697  0.1597
18598TIP3    H177209   3.535   3.107   1.654  2.4368  1.1656 -0.1886
18598TIP3    H277210   3.616   3.029   1.553 -0.0225 -1.7423  0.0049
18599TIP3   OH277211   6.182   4.779  12.008  0.2802 -0.1517 -0.3014
18599TIP3    H177212   6.097   4.786  11.964 -0.9078 -1.8962  1.6161
18599TIP3    H277213   6.170   4.824  12.091  0.9146 -1.2992  0.4260
18600TIP3   OH277214   5.875   2.639  12.482  0.4680 -0.2885 -0.0078
18600TIP3    H177215   5.937   2.632  12.554  0.8637 -2.2103 -0.5049
18600TIP3    H277216   5.882   2.555  12.436 -1.1495  0.1854 -1.1636
18601TIP3   OH277217   5.322   6.214  11.814 -0.6871 -0.0552  0.9157
18601TIP3    H177218   5.237   6.180  11.787 -0.6156  0.9670 -0.6607
18601TIP3    H277219   5.386   6.161  11.767 -0.5766  2.1873 -1.5490
18602TIP3   OH277220   3.087   0.478  16.714 -0.6426 -0.2791 -0.4147
18602TIP3    H177221   3.052   0.566  16.700 -0.1795 -0.2205 -1.2190
18602TIP3    H277222   3.056   0.454  16.802 -0.6107  0.7571 -0.1140
18603TIP3   OH277223   1.922   3.684  16.262 -0.7766 -0.2206 -1.2031
18603TIP3    H177224   1.941   3.771  16.296  0.8498  0.0549 -2.7513
18603TIP3    H277225   1.932   3.626  16.337 -0.0949  0.7284 -0.5570
18604TIP3   OH277226   2.379   4.695  15.574 -0.0933  0.2503  0.0846
18604TIP3    H177227   2.360   4.753  15.500  0.6104  0.6848  0.2347
18604TIP3    H277228   2.400   4.610  15.534 -0.6690  0.2216 -0.1596
18605TIP3   OH277229   1.227   2.047   4.946 -0.4953  0.8277  0.1918
18605TIP3    H177230   1.212   2.098   4.867 -0.7313  0.7102  0.1613
18605TIP3    H277231   1.276   1.970   4.917  0.4314  1.3535  0.3361
18606TIP3   OH277232   6.265   2.485   5.881  0.4408  0.1140  0.1291
18606TIP3    H177233   6.193   2.443   5.928  0.8648  1.1868  1.7856
18606TIP3    H277234   6.344   2.443   5.915  0.7649  1.0627  0.5701
18607TIP3   OH277235   6.030   4.562   2.348  0.2381  0.4562  0.3504
18607TIP3    H177236   6.032   4.503   2.272 -0.5883 -0.1766  0.8199
18607TIP3    H277237   6.034   4.650   2.310  1.7646  0.1134 -0.3440
18608TIP3   OH277238   5.091   5.592  14.952  0.5914 -0.3196  0.0822
18608TIP3    H177239   5.092   5.655  15.024  0.4565  0.2019 -0.3655
18608TIP3    H277240   5.160   5.622  14.893  0.2025 -0.2942 -0.3731
18609TIP3   OH277241   4.970   4.265   5.162 -0.3843  0.4835  0.0973
18609TIP3    H177242   5.055   4.225   5.141 -0.6181  0.3625 -0.6228
18609TIP3    H277243   4.969   4.346   5.112  0.2885  1.6337  1.9299
18610TIP3   OH277244   3.441   6.681   3.677 -0.1851 -0.0570  0.0847
18610TIP3    H177245   3.527   6.717   3.656 -0.8477  0.3784 -1.9990
18610TIP3    H277246   3.428   6.702   3.770  1.3980  1.0082  0.0765
18611TIP3   OH277247   6.356   4.475   1.747  0.2008 -0.0591 -0.4637
18611TIP3    H177248   6.417   4.549   1.749  1.4360 -1.0629  0.6694
18611TIP3    H277249   6.409   4.402   1.712 -0.9980 -0.3999 -1.5880
18612TIP3   OH277250   5.931   3.542  12.731 -0.0999  0.5076 -0.0375
18612TIP3    H177251   5.878   3.533  12.652  0.3034 -1.4491 -0.0964
18612TIP3    H277252   5.999   3.605  12.707  0.4347 -0.6003 -1.4916
18613TIP3   OH277253   3.131   6.123  13.758 -0.5668  0.3518 -0.1828
18613TIP3    H177254   3.052   6.122  13.812 -1.4926 -0.3420 -1.5456
18613TIP3    H277255   3.153   6.031  13.745 -1.1289  0.4712 -2.1155
18614TIP3   OH277256   2.643   1.874   4.628  0.1854 -0.2302 -0.1399
18614TIP3    H177257   2.723   1.922   4.653  0.1328 -0.8311  1.2158
18614TIP3    H277258   2.617   1.913   4.545  2.6494 -0.9098 -1.2851
18615TIP3   OH277259   2.503   4.478  11.307  0.2187 -0.5317  0.0523
18615TIP3    H177260   2.562   4.406  11.284  1.1207 -0.3474  1.6839
18615TIP3    H277261   2.498   4.531  11.228  1.3092 -1.1998 -0.4795
18616TIP3   OH277262   0.003   2.900   1.016 -0.2034 -0.0223 -0.0971
18616TIP3    H177263  -0.031   2.990   1.016 -1.7098 -0.5670  1.5527
18616TIP3    H277264  -0.069   2.847   0.983 -0.7050 -1.0794  2.6138
18617TIP3   OH277265   3.089   0.576  16.273  0.3519  0.1567  0.2865
18617TIP3    H177266   3.170   0.555  16.321  1.1868  1.3074 -0.5792
18617TIP3    H277267   3.120   0.614  16.191 -1.0473 -1.9947 -1.2962
18618TIP3   OH277268   6.149   3.625   6.337 -0.2814  0.4562  0.2177
18618TIP3    H177269   6.229   3.677   6.332  1.2391 -1.7290  1.0391
18618TIP3    H277270   6.141   3.601   6.429 -2.1175  1.0013  0.2102
18619TIP3   OH277271   0.543   3.251   0.215 -0.3812  0.4199  0.2585
18619TIP3    H177272   0.493   3.333   0.212 -1.0237  0.0317  0.0680
18619TIP3    H277273   0.498   3.193   0.153  0.1929 -0.0072  0.2317
18620TIP3   OH277274   2.947   5.151  13.063  0.1209 -0.3615  0.6570
18620TIP3    H177275   3.030   5.104  13.064 -0.6051 -1.7022 -0.3073
18620TIP3    H277276   2.944   5.194  12.978 -0.0593 -0.0975  0.7954
18621TIP3   OH277277   0.162   1.313  11.297 -0.2895 -0.2468 -0.4190
18621TIP3    H177278   0.085   1.366  11.317 -0.6993 -0.3673 -1.6416
18621TIP3    H277279   0.235   1.362  11.334 -0.9763 -0.2654  0.9919
18622TIP3   OH277280   1.249   4.982  12.399  0.1747 -0.9959  0.4584
18622TIP3    H177281   1.328   5.009  12.352 -0.1147  0.7139  0.9203
18622TIP3    H277282   1.280   4.934  12.475  0.7464 -1.1310  0.1348
18623TIP3   OH277283   2.367   5.993   5.301  0.1101  0.1842  0.5866
18623TIP3    H177284   2.271   5.998   5.301  0.0369 -1.0127 -0.5974
18623TIP3    H277285   2.394   6.058   5.367 -1.4583  1.3862  0.0924
18624TIP3   OH277286   4.214   3.239   4.083 -0.0152 -0.0075 -0.1022
18624TIP3    H177287   4.171   3.160   4.114  0.9227 -0.6470 -0.4354
18624TIP3    H277288   4.276   3.261   4.152  0.3440 -0.0536 -0.4108
18625TIP3   OH277289   6.300   2.371  13.761 -0.0503  0.0631  0.0637
18625TIP3    H177290   6.344   2.453  13.786 -0.7815 -0.1410  2.0830
18625TIP3    H277291   6.210   2.397  13.740  0.0336 -0.0662 -0.4835
18626TIP3   OH277292   1.353   1.261  10.872 -0.2862 -0.4447  0.3210
18626TIP3    H177293   1.287   1.328  10.852  1.2651  1.1768  0.5671
18626TIP3    H277294   1.402   1.251  10.790  0.6785  0.0871  0.8272
18627TIP3   OH277295   6.093   0.529  13.921  0.4264 -0.4629  0.2057
18627TIP3    H177296   6.142   0.454  13.889 -0.2220 -0.2707 -1.2734
18627TIP3    H277297   6.079   0.583  13.844 -1.4834 -0.1577  0.7428
18628TIP3   OH277298   2.716   5.717  12.488 -0.4212  0.9037 -0.7462
18628TIP3    H177299   2.737   5.689  12.577 -0.0575 -1.3565 -1.5255
18628TIP3    H277300   2.643   5.779  12.499 -1.7001 -0.8428  0.9840
18629TIP3   OH277301   6.457   5.706  14.499  0.1497 -0.2957  0.0882
18629TIP3    H177302   6.493   5.699  14.587  1.6986 -2.1251 -0.6602
18629TIP3    H277303   6.466   5.619  14.461  0.4694  0.6965 -2.2512
18630TIP3   OH277304   3.291   1.931   3.807  0.5431  0.2726 -0.1651
18630TIP3    H177305   3.201   1.918   3.778  1.2637  1.2569 -2.9246
18630TIP3    H277306   3.341   1.862   3.763  0.9226 -1.4661  2.8113
18631TIP3   OH277307   6.674   6.126  12.034  0.4798  0.2577 -0.5090
18631TIP3    H177308   6.649   6.037  12.060 -0.4091  0.5288 -0.4374
18631TIP3    H277309   6.622   6.183  12.090 -0.1450  0.8359 -1.6796
18632TIP3   OH277310   2.050   2.403   0.825 -0.6339  0.4306  0.0732
18632TIP3    H177311   2.075   2.492   0.852  0.8177 -0.0438  0.3433
18632TIP3    H277312   2.009   2.415   0.739  2.2201  1.0848 -1.2597
18633TIP3   OH277313   5.246   3.948   6.327 -0.3487  0.2231 -0.3519
18633TIP3    H177314   5.189   4.010   6.280  0.5331 -0.6603 -2.6525
18633TIP3    H277315   5.333   3.987   6.321 -0.5173  1.1181  2.3761
18634TIP3   OH277316   0.280   6.348  14.351 -0.0884 -0.3106  0.0612
18634TIP3    H177317   0.345   6.380  14.289 -0.7080  0.1698 -0.3511
18634TIP3    H277318   0.328   6.289  14.409  0.6320 -0.2419 -0.4642
18635TIP3   OH277319   3.364   1.093  15.530 -0.6960  0.3820 -0.2608
18635TIP3    H177320   3.357   1.142  15.448 -0.9403 -4.7394 -3.5802
18635TIP3    H277321   3.458   1.079  15.542 -0.6701  0.9754  0.1950
18636TIP3   OH277322   3.389   1.941  14.430  0.3540 -0.6780 -0.2116
18636TIP3    H177323   3.403   2.033  14.406  1.1279 -0.8160 -0.3021
18636TIP3    H277324   3.446   1.927  14.505  0.3449 -1.1280 -0.2864
18637TIP3   OH277325   2.761   4.392  16.911  0.1523 -0.1694 -0.0186
18637TIP3    H177326   2.804   4.355  16.834  1.3328  0.2265  0.4466
18637TIP3    H277327   2.818   4.368  16.984 -0.5028  0.2216  0.6203
18638TIP3   OH277328   1.905   2.666  16.148 -0.4536 -0.1755 -0.1546
18638TIP3    H177329   1.878   2.690  16.060 -1.8366 -1.0662  0.0086
18638TIP3    H277330   1.990   2.623  16.136 -0.1308  0.6713 -0.9246
18639TIP3   OH277331   3.879   3.865   2.900 -0.4140  0.0253  0.0375
18639TIP3    H177332   3.944   3.819   2.953 -1.8938 -0.5127  1.3895
18639TIP3    H277333   3.929   3.936   2.859  0.8741  0.1283  1.7183
18640TIP3   OH277334   0.497   6.055   4.626  0.1932  0.2645 -0.1910
18640TIP3    H177335   0.471   6.065   4.534 -2.5832  2.1841  0.7402
18640TIP3    H277336   0.514   6.144   4.656  1.9747 -0.4362  0.9633
18641TIP3   OH277337   6.213   4.724  15.415  0.1405 -0.4920  0.0998
18641TIP3    H177338   6.165   4.800  15.448 -1.4283 -1.3569 -0.1609
18641TIP3    H277339   6.288   4.761  15.369 -0.3293  0.8804  0.4208
18642TIP3   OH277340   1.741   6.148  12.440 -0.2805 -0.2421 -0.0040
18642TIP3    H177341   1.765   6.223  12.495 -0.5015  0.1442 -0.4303
18642TIP3    H277342   1.801   6.078  12.467 -0.7669 -0.2373  1.1489
18643TIP3   OH277343   3.313   3.018   4.146 -0.2256  0.0396 -0.3012
18643TIP3    H177344   3.236   2.986   4.099  0.0797  0.2834 -0.9780
18643TIP3    H277345   3.329   3.105   4.109  1.6334 -0.8615 -1.6792
18644TIP3   OH277346   2.183   5.670  12.296  0.2215  0.1923 -0.2404
18644TIP3    H177347   2.206   5.578  12.306 -0.8063 -0.1623 -1.0716
18644TIP3    H277348   2.266   5.717  12.301  0.7721 -0.8024 -0.0968
18645TIP3   OH277349   1.764   5.458   2.241 -0.3469  0.3697 -0.3394
18645TIP3    H177350   1.808   5.446   2.157 -2.0246 -2.7779 -0.8387
18645TIP3    H277351   1.681   5.499   2.218 -0.9185 -0.7328 -0.2659
18646TIP3   OH277352   1.110   3.223  11.301 -0.2334 -0.5716  0.0638
18646TIP3    H177353   1.034   3.236  11.358  0.5062 -2.0702  1.4215
18646TIP3    H277354   1.117   3.128  11.291  0.1336 -0.3648 -1.8877
18647TIP3   OH277355   5.193   2.581  11.308  0.1769 -1.1257 -0.7197
18647TIP3    H177356   5.187   2.593  11.403  1.0319 -0.5516 -0.7373
18647TIP3    H277357   5.173   2.668  11.272 -0.1483 -1.3439 -1.0738
18648TIP3   OH277358   2.447   1.642  11.031  0.1993  0.1702  0.0351
18648TIP3    H177359   2.381   1.600  10.976  1.2270 -2.1529  0.5131
18648TIP3    H277360   2.457   1.729  10.994 -1.7666 -0.0937 -1.1966
18649TIP3   OH277361   4.680   4.491  15.420  0.0538 -0.8793 -0.4660
18649TIP3    H177362   4.696   4.421  15.356 -1.1146 -0.2149 -1.4927
18649TIP3    H277363   4.600   4.464  15.466 -0.4690 -0.1565 -0.9472
18650TIP3   OH277364   2.469   2.739   5.200  0.2361  0.2067 -0.0144
18650TIP3    H177365   2.455   2.713   5.108 -0.0257  1.5170 -0.3601
18650TIP3    H277366   2.407   2.685   5.249  0.9193 -1.0668 -0.5160
18651TIP3   OH277367   1.771   2.720   3.059 -0.1317 -0.6892 -0.4843
18651TIP3    H177368   1.742   2.659   2.992 -1.8167  1.7702 -2.0549
18651TIP3    H277369   1.727   2.690   3.139 -3.3705  0.2081 -1.8608
18652TIP3   OH277370   3.306   0.614   0.564 -0.3293  0.3781 -0.0225
18652TIP3    H177371   3.320   0.574   0.650  1.6777  1.8252  0.3708
18652TIP3    H277372   3.248   0.553   0.518  0.7106 -1.7626  1.4060
18653TIP3   OH277373   1.993   4.608   3.403  0.9153 -0.0884  0.7266
18653TIP3    H177374   2.039   4.685   3.436  0.8659 -0.1519  0.9455
18653TIP3    H277375   1.992   4.619   3.308 -1.8072  1.7228  0.9166
18654TIP3   OH277376   2.340   1.968   1.776 -0.1210 -0.1986  0.4548
18654TIP3    H177377   2.387   2.048   1.801 -1.7320  0.9287 -0.0204
18654TIP3    H277378   2.337   1.971   1.680 -0.9302 -0.3823  0.4719
18655TIP3   OH277379   2.980   3.757   3.674  0.1495 -0.2989 -0.3007
18655TIP3    H177380   2.911   3.772   3.610  0.5882 -1.8654 -1.1635
18655TIP3    H277381   2.942   3.785   3.758 -0.8279  0.6745 -1.0624
18656TIP3   OH277382   6.710   6.456   5.339 -0.8918 -0.2635  0.3590
18656TIP3    H177383   6.658   6.381   5.367  0.0265 -0.7323  0.8274
18656TIP3    H277384   6.779   6.464   5.405  0.2083 -0.2528 -0.7799
18657TIP3   OH277385   3.191   2.472   2.872  0.3283  0.0731  0.3131
18657TIP3    H177386   3.193   2.462   2.968 -0.5019  0.6208  0.3890
18657TIP3    H277387   3.189   2.382   2.839  0.5050 -0.1192  0.8074
18658TIP3   OH277388   0.930   5.739  11.352 -0.0949 -0.1133  0.0651
18658TIP3    H177389   0.903   5.819  11.397 -2.1031  1.6201 -3.9397
18658TIP3    H277390   1.014   5.763  11.311 -2.0453  1.0298 -3.4855
18659TIP3   OH277391   2.019   0.733   3.138 -0.0179  0.0755  0.2303
18659TIP3    H177392   1.987   0.708   3.051  0.7326 -1.6759  0.4445
18659TIP3    H277393   1.977   0.817   3.155 -1.6952 -0.4834 -1.0028
18660TIP3   OH277394   1.238   0.020   2.181 -0.6451  0.6006  0.0444
18660TIP3    H177395   1.204   0.032   2.092 -1.1947 -1.0562  0.0237
18660TIP3    H277396   1.179  -0.045   2.221  2.6239 -2.5378 -0.0499
18661TIP3   OH277397   0.190   4.845  12.032 -0.2305  0.1389 -0.3035
18661TIP3    H177398   0.211   4.885  11.947 -0.4684  0.5091 -0.1915
18661TIP3    H277399   0.094   4.854  12.039 -0.3207 -0.7424 -0.4176
18662TIP3   OH277400   2.782   0.995   2.759 -0.2165 -0.0000 -0.3237
18662TIP3    H177401   2.808   0.977   2.668 -0.6211  2.1768 -0.9000
18662TIP3    H277402   2.861   1.029   2.800  0.2125 -1.8431  0.4133
18663TIP3   OH277403   1.749   2.823   6.289  0.2456 -0.5529  0.0246
18663TIP3    H177404   1.756   2.911   6.254  2.8864 -0.1580  1.4504
18663TIP3    H277405   1.662   2.821   6.330 -0.0157  1.2280 -0.3899
18664TIP3   OH277406   0.667   4.303   6.155 -0.0863 -0.8806 -0.2318
18664TIP3    H177407   0.597   4.332   6.214 -0.6652 -0.0639 -1.3229
18664TIP3    H277408   0.705   4.383   6.120  0.7662 -1.3473 -0.3957
18665TIP3   OH277409   3.442   6.617   4.576 -0.4102  0.0591  0.0594
18665TIP3    H177410   3.511   6.568   4.531 -0.2361 -0.8387  1.2711
18665TIP3    H277411   3.479   6.704   4.590  1.0522 -0.8276  1.9686
18666TIP3   OH277412   3.278   3.730  17.023 -0.0465  0.1967 -0.3437
18666TIP3    H177413   3.354   3.678  17.052 -0.7232 -0.9386 -0.5620
18666TIP3    H277414   3.298   3.819  17.051  2.4259  0.3479 -2.4190
18667TIP3   OH277415   3.565   0.232  13.163  0.3820  0.2860 -0.4813
18667TIP3    H177416   3.504   0.176  13.116 -0.5912  2.3083 -1.7225
18667TIP3    H277417   3.621   0.172  13.212 -1.6699 -1.6613 -0.4612
18668TIP3   OH277418   1.115   0.609   4.070 -0.2612  0.2538  0.3955
18668TIP3    H177419   1.176   0.649   4.008  0.3934 -0.0191  0.8666
18668TIP3    H277420   1.099   0.677   4.136  1.6891 -0.5937  1.7928
18669TIP3   OH277421   4.594   3.323  17.201  0.1870  0.7190  0.1083
18669TIP3    H177422   4.575   3.258  17.270 -1.5405 -0.0609 -1.0701
18669TIP3    H277423   4.554   3.404  17.232 -1.9263 -0.0097 -0.6506
18670TIP3   OH277424   1.682   4.449  15.992 -0.8881 -0.3303 -0.5089
18670TIP3    H177425   1.680   4.390  15.917  0.2677  0.6803 -1.3557
18670TIP3    H277426   1.742   4.408  16.054 -2.8668 -1.8383  0.4638
18671TIP3   OH277427   3.515   1.736   3.761  0.2589  0.0733  0.0084
18671TIP3    H177428   3.574   1.792   3.710  0.0455  0.6880  0.4366
18671TIP3    H277429   3.496   1.662   3.702 -0.6375  1.1777 -1.1223
18672TIP3   OH277430   2.590   0.695   2.846 -0.6243 -0.7184  0.3810
18672TIP3    H177431   2.538   0.762   2.889 -0.3762 -0.7337  0.7042
18672TIP3    H277432   2.600   0.726   2.756  0.4550  0.2345  0.8265
18673TIP3   OH277433   4.172   4.926   0.347 -0.1550  0.0438  0.7835
18673TIP3    H177434   4.219   4.869   0.286 -1.1202 -0.0347  0.0852
18673TIP3    H277435   4.217   5.010   0.342  1.3014 -0.6698  1.8462
18674TIP3   OH277436   3.682   0.863  11.692 -0.6103 -0.2882  0.4018
18674TIP3    H177437   3.665   0.927  11.623 -1.5478 -1.8511 -0.8457
18674TIP3    H277438   3.735   0.795  11.650 -1.0431 -1.1794  1.2589
18675TIP3   OH277439   0.955   0.080  13.374  0.0043 -0.2072  0.6892
18675TIP3    H177440   1.008   0.156  13.395  1.4235 -1.1231  0.4959
18675TIP3    H277441   0.928   0.045  13.459 -0.1130  0.1375  0.7937
18676TIP3   OH277442   6.193   0.719  11.965  0.1843 -0.2273 -0.5531
18676TIP3    H177443   6.238   0.635  11.973  1.8017  0.4759 -1.8110
18676TIP3    H277444   6.229   0.757  11.885 -0.2785  1.8144  0.1829
18677TIP3   OH277445   2.824   1.003  13.722  0.2630 -0.3574  0.7128
18677TIP3    H177446   2.816   1.085  13.771 -1.0623  0.4547 -0.8462
18677TIP3    H277447   2.918   0.982  13.726  0.4075  0.5326  2.2324
18678TIP3   OH277448   4.004   2.278  14.159 -0.0497 -0.5400  0.4588
18678TIP3    H177449   4.082   2.317  14.199 -0.6057 -0.0769  1.1233
18678TIP3    H277450   3.966   2.348  14.107  0.4107 -1.0038 -0.5037
18679TIP3   OH277451   2.988   4.962  16.092  0.3224 -0.4703  0.1407
18679TIP3    H177452   2.930   4.982  16.018  0.1740  0.5738  0.5320
18679TIP3    H277453   2.929   4.935  16.162  0.5164 -2.1951 -0.3495
18680TIP3   OH277454   5.821   0.180   3.151  0.0383  0.2695  0.0646
18680TIP3    H177455   5.826   0.252   3.089 -1.1863  0.4981  0.2143
18680TIP3    H277456   5.739   0.194   3.198  0.3143 -0.6236  0.8348
18681TIP3   OH277457   4.012   4.292   0.416 -0.4820  0.5820 -0.6243
18681TIP3    H177458   4.067   4.341   0.355  0.5007 -0.2625 -0.4396
18681TIP3    H277459   4.006   4.347   0.494 -2.1299  1.8746 -1.6495
18682TIP3   OH277460   1.052   3.183  15.020  0.2396 -0.5996 -0.6350
18682TIP3    H177461   1.145   3.183  15.042  0.3418 -0.5981 -1.0658
18682TIP3    H277462   1.008   3.208  15.102  0.7443  1.5083 -0.9875
18683TIP3   OH277463   2.358   3.363  15.246 -0.9445  0.0911 -0.4037
18683TIP3    H177464   2.412   3.360  15.325 -2.0528  0.5157  0.3800
18683TIP3    H277465   2.410   3.317  15.180 -0.4221 -1.1252  0.8225
18684TIP3   OH277466   6.192   4.905   6.473 -0.0677  0.1503 -0.3231
18684TIP3    H177467   6.199   4.986   6.421 -1.2998  1.7612  1.9129
18684TIP3    H277468   6.118   4.859   6.434 -0.8844  1.2635 -0.1290
18685TIP3   OH277469   5.243   1.659   5.276  0.4885  0.5576 -0.6137
18685TIP3    H177470   5.218   1.615   5.195  0.4560  2.7047 -1.7992
18685TIP3    H277471   5.338   1.669   5.269  0.4078  1.2701 -0.6419
18686TIP3   OH277472   6.725   2.094   3.854 -0.2755  0.5292 -0.3753
18686TIP3    H177473   6.654   2.137   3.901  0.2488  1.2504 -0.2271
18686TIP3    H277474   6.801   2.151   3.868  0.2516 -0.0540 -0.8087
18687TIP3   OH277475   4.508   1.795   4.626  0.0325 -0.0025 -0.0697
18687TIP3    H177476   4.539   1.884   4.639 -0.7738  0.5195 -1.6085
18687TIP3    H277477   4.472   1.769   4.711 -3.1991  2.5245 -0.5919
18688TIP3   OH277478   5.907   4.166  11.417 -0.2807  0.1295  0.0495
18688TIP3    H177479   5.862   4.196  11.339  0.3407 -0.1411 -0.4153
18688TIP3    H277480   5.884   4.230  11.485 -1.2027  0.0939 -0.2317
18689TIP3   OH277481   6.166   1.775   4.746  0.0611 -0.1210  0.0172
18689TIP3    H177482   6.137   1.773   4.655  0.4458  0.3235 -0.1168
18689TIP3    H277483   6.261   1.787   4.741  0.0855 -0.1201  0.4755
18690TIP3   OH277484   6.205   6.444  15.501  0.9046  0.6777 -0.4882
18690TIP3    H177485   6.175   6.353  15.502  3.8815 -0.3783  1.0942
18690TIP3    H277486   6.238   6.457  15.412 -0.3194  0.5033 -0.9787
18691TIP3   OH277487   4.645   4.795   3.888  0.0224  0.0676 -0.3923
18691TIP3    H177488   4.657   4.875   3.837  1.5913  1.1188  1.5692
18691TIP3    H277489   4.713   4.736   3.857  1.2914  0.8842  0.7986
18692TIP3   OH277490   6.676   1.589  13.800  0.3017  0.2910 -0.0524
18692TIP3    H177491   6.631   1.581  13.884  0.1872  1.8722  0.0508
18692TIP3    H277492   6.635   1.522  13.745 -1.4143  0.9414  0.3861
18693TIP3   OH277493   5.390   0.511   0.893 -0.2104  0.6309 -0.1043
18693TIP3    H177494   5.326   0.447   0.859  0.4939 -0.6217  0.8920
18693TIP3    H277495   5.380   0.587   0.836 -0.0544 -0.9040 -2.2211
18694TIP3   OH277496   4.752   1.838   0.702 -0.0163  0.4376  0.4450
18694TIP3    H177497   4.817   1.815   0.769 -0.0085 -0.9080 -0.0116
18694TIP3    H277498   4.761   1.933   0.691  2.7977  0.0870 -0.5765
18695TIP3   OH277499   0.851   3.391  11.748 -0.3794  0.1654  0.0635
18695TIP3    H177500   0.810   3.478  11.748 -1.1768 -0.2097  0.6316
18695TIP3    H277501   0.945   3.410  11.757 -0.4259  1.0120 -0.9782
18696TIP3   OH277502   5.111   3.722   5.486  0.3945 -0.2397  0.2083
18696TIP3    H177503   5.026   3.713   5.443  0.9045  0.8744 -1.0612
18696TIP3    H277504   5.091   3.754   5.573 -0.4976  0.0318 -0.0911
18697TIP3   OH277505   4.659   4.102   1.806  0.2564 -0.0410  0.4655
18697TIP3    H177506   4.728   4.099   1.872 -1.0191 -0.2268  1.8071
18697TIP3    H277507   4.624   4.191   1.812  0.1429 -0.0564  0.0339
18698TIP3   OH277508   3.786   3.173   6.332 -0.0973 -0.6231  0.5641
18698TIP3    H177509   3.851   3.140   6.270 -1.0723  0.8692 -1.3130
18698TIP3    H277510   3.832   3.243   6.379  0.8766 -2.2538  2.1041
18699TIP3   OH277511   2.943   3.638   1.166 -0.2436 -0.1407 -0.1230
18699TIP3    H177512   2.939   3.656   1.260 -1.0093 -0.0708 -0.1704
18699TIP3    H277513   2.913   3.548   1.158 -0.3035 -0.1030 -0.3162
18700TIP3   OH277514   4.418   5.406   1.616  0.0424 -0.5053  1.0107
18700TIP3    H177515   4.376   5.337   1.668 -0.8557 -1.3343 -0.7671
18700TIP3    H277516   4.401   5.486   1.666 -0.5444 -1.3133  2.1487
18701TIP3   OH277517   6.208   3.630   0.657  0.1518  0.1796 -0.3741
18701TIP3    H177518   6.249   3.559   0.706 -0.7463 -0.3976 -0.4381
18701TIP3    H277519   6.231   3.613   0.566  2.7049  1.8436 -0.0862
18702TIP3   OH277520   3.086   1.113  11.698 -0.2385  0.1921 -0.3906
18702TIP3    H177521   3.069   1.193  11.648  0.6468 -0.0768 -1.1431
18702TIP3    H277522   3.031   1.046  11.658 -1.7373  0.6335  0.8762
18703TIP3   OH277523   5.834   2.750  15.737  0.4512 -0.0862  0.1300
18703TIP3    H177524   5.814   2.834  15.694  1.6286  0.1444  0.0051
18703TIP3    H277525   5.754   2.727  15.783 -0.3344  0.4340 -0.9499
18704TIP3   OH277526   6.198   0.023  11.629  0.3750 -0.2776  0.6215
18704TIP3    H177527   6.116  -0.017  11.657 -0.5284  1.4081  0.5050
18704TIP3    H277528   6.245  -0.046  11.582 -1.0634 -1.2148  0.5519
18705TIP3   OH277529   1.775   3.471  11.467 -0.3724 -0.3174 -0.8951
18705TIP3    H177530   1.850   3.420  11.497 -0.3645 -0.3722 -1.0090
18705TIP3    H277531   1.699   3.424  11.503 -0.3727 -0.5051 -1.1442
18706TIP3   OH277532   6.294   6.336   2.703  0.0239 -0.0002  0.3544
18706TIP3    H177533   6.381   6.368   2.727  0.1418 -0.3087  0.3396
18706TIP3    H277534   6.254   6.409   2.656 -0.2828  0.7010  1.6714
18707TIP3   OH277535   3.410   2.331  12.548  0.0206  0.0943 -0.0486
18707TIP3    H177536   3.454   2.409  12.514  0.9878 -0.3842  0.0878
18707TIP3    H277537   3.477   2.262  12.544 -1.1974 -1.0461 -1.3761
18708TIP3   OH277538   5.544   3.851   2.301 -0.3807  0.2410  0.0903
18708TIP3    H177539   5.498   3.932   2.323  0.9749  0.8418  0.7952
18708TIP3    H277540   5.546   3.802   2.383 -0.8076 -0.3230 -0.2309
18709TIP3   OH277541   6.215   1.470   1.875  0.0290  0.0374 -0.5041
18709TIP3    H177542   6.219   1.556   1.835 -0.6343 -0.9324 -2.6930
18709TIP3    H277543   6.195   1.487   1.967  1.9515  2.2957 -0.4749
18710TIP3   OH277544   3.580   2.509  10.942 -0.4077  0.2089  0.0260
18710TIP3    H177545   3.538   2.495  10.857  1.2467 -0.0485 -0.7720
18710TIP3    H277546   3.672   2.487  10.927  0.7890  4.2606  0.7365
18711TIP3   OH277547   3.032   5.348  15.188  0.3848 -0.1286  0.4530
18711TIP3    H177548   2.944   5.384  15.193  0.4280 -0.2023  1.9633
18711TIP3    H277549   3.048   5.311  15.275  0.7177 -2.9170 -0.7697
18712TIP3   OH277550   5.168   3.240   3.950 -0.0586 -0.5442  0.3155
18712TIP3    H177551   5.215   3.322   3.937 -0.2494 -0.6002 -0.7692
18712TIP3    H277552   5.079   3.267   3.974 -0.1860 -0.4240 -0.2756
18713TIP3   OH277553   1.963   5.597   1.067 -0.1952 -0.2516 -0.4214
18713TIP3    H177554   1.888   5.577   1.123  0.8010  0.6377  1.2831
18713TIP3    H277555   1.927   5.652   0.997 -1.1469  0.1615  0.3825
18714TIP3   OH277556   3.781   0.704   3.399  0.2284 -0.4405  0.1111
18714TIP3    H177557   3.839   0.627   3.395  1.7838  0.7562 -0.8187
18714TIP3    H277558   3.840   0.779   3.396 -1.3190  0.8111  0.2471
18715TIP3   OH277559   3.681   3.449  10.338  0.1420  0.0674 -0.3760
18715TIP3    H177560   3.768   3.481  10.362  0.7601 -1.7392 -0.1012
18715TIP3    H277561   3.647   3.409  10.418  0.1815 -1.6230 -1.1795
18716TIP3   OH277562   0.354   2.433   2.496  0.6823 -0.2340 -0.0944
18716TIP3    H177563   0.265   2.401   2.484  0.3367  0.8187 -0.2899
18716TIP3    H277564   0.354   2.522   2.463  2.0282 -0.5003 -0.8935
18717TIP3   OH277565   6.052   4.005  16.811 -0.4569  0.2199 -0.9170
18717TIP3    H177566   5.983   4.013  16.877  0.2853  0.9896 -0.2315
18717TIP3    H277567   6.061   3.911  16.797  0.4704 -0.0361  1.2270
18718TIP3   OH277568   1.101   3.163   2.612  0.2490 -0.1365 -0.1781
18718TIP3    H177569   1.022   3.214   2.591  0.0725  0.0560  0.9450
18718TIP3    H277570   1.070   3.090   2.665  0.8245 -0.0830  0.2357
18719TIP3   OH277571   5.609   0.442  12.644  0.1132 -0.4238 -0.6638
18719TIP3    H177572   5.656   0.507  12.696  1.4075 -1.3222 -0.6813
18719TIP3    H277573   5.521   0.477  12.635  0.4734  0.7556  0.3317
18720TIP3   OH277574   4.731   5.301   3.023  0.5095 -0.0163  0.6506
18720TIP3    H177575   4.669   5.373   3.015  1.4611  0.7876  0.4448
18720TIP3    H277576   4.755   5.300   3.116  2.8580  1.9546  0.1238
18721TIP3   OH277577   3.551   3.942  16.095 -0.9578  0.0373 -0.2868
18721TIP3    H177578   3.512   3.942  16.007 -0.3473 -1.2070 -0.5669
18721TIP3    H277579   3.476   3.928  16.154 -1.2291 -0.1420 -0.6749
18722TIP3   OH277580   4.388   5.080   0.393 -0.2789  0.2697  0.1725
18722TIP3    H177581   4.462   5.020   0.401 -0.2403  0.3963  0.7305
18722TIP3    H277582   4.415   5.159   0.439  0.5939  1.6092 -2.5008
18723TIP3   OH277583   6.643   6.770   4.522 -0.6290  0.1274  0.7160
18723TIP3    H177584   6.692   6.790   4.443 -0.0395  0.8978  1.2799
18723TIP3    H277585   6.558   6.812   4.509 -0.9003 -0.5941  0.0650
18724TIP3   OH277586   3.560   5.714  11.588  0.3887 -0.1828  1.1437
18724TIP3    H177587   3.580   5.623  11.609 -1.2375 -0.6373  0.7817
18724TIP3    H277588   3.483   5.735  11.642 -1.6530 -0.2632 -1.6300
18725TIP3   OH277589   2.042   4.292   1.576 -0.1005  0.0309  0.1368
18725TIP3    H177590   1.968   4.294   1.516  0.4445 -0.8439 -0.5696
18725TIP3    H277591   2.049   4.201   1.603  0.6693  0.1284  0.2784
18726TIP3   OH277592   0.776   0.394   2.973 -0.0895  0.2403  0.1120
18726TIP3    H177593   0.809   0.372   3.060  0.0038 -0.5353 -0.1242
18726TIP3    H277594   0.785   0.314   2.922 -2.6618 -0.0987  0.1312
18727TIP3   OH277595   2.479   1.867  16.296 -0.4379 -0.8293  0.2066
18727TIP3    H177596   2.460   1.926  16.369  0.0279 -0.3269 -0.0781
18727TIP3    H277597   2.397   1.820  16.281 -0.9592  0.1022  0.1149
18728TIP3   OH277598   3.288   1.526  16.508  0.0425 -0.2399 -0.0183
18728TIP3    H177599   3.356   1.461  16.491  0.1955 -1.0159  3.1159
18728TIP3    H277600   3.321   1.578  16.581 -1.9028  0.6095  0.3157
18729TIP3   OH277601   0.224   5.934  15.753  0.0685 -0.0218  0.0967
18729TIP3    H177602   0.283   5.978  15.692 -0.6966  0.3013 -0.4281
18729TIP3    H277603   0.172   5.876  15.697  0.3936 -0.8578  0.6507
18730TIP3   OH277604   5.087   3.344  16.984  0.3420 -0.1303  0.2524
18730TIP3    H177605   4.994   3.342  17.006  0.7143  2.0514  2.0770
18730TIP3    H277606   5.133   3.349  17.068  2.0866 -0.0080 -0.6674
18731TIP3   OH277607   6.539   0.888   5.472  0.0979  0.2262  0.3017
18731TIP3    H177608   6.629   0.907   5.498  0.2795 -0.0783 -0.1166
18731TIP3    H277609   6.536   0.794   5.459 -0.2352  0.2581  0.1246
18732TIP3   OH277610   6.121   5.765   0.959 -0.1079  0.2646  0.2571
18732TIP3    H177611   6.123   5.703   0.886  0.0624  0.6143 -0.0421
18732TIP3    H277612   6.094   5.847   0.919 -2.2890 -0.0658  1.0080
18733TIP3   OH277613   4.648   5.862  12.610 -0.5999 -0.5036  0.5890
18733TIP3    H177614   4.727   5.915  12.620 -0.4273 -0.0664 -2.6102
18733TIP3    H277615   4.642   5.812  12.691  2.1445  0.5302  1.4776
18734TIP3   OH277616   1.169   1.667   4.777 -0.5379 -0.1972 -0.7563
18734TIP3    H177617   1.199   1.674   4.867  0.0991  1.0939 -1.0709
18734TIP3    H277618   1.183   1.575   4.754 -0.4816 -0.4718  0.3770
18735TIP3   OH277619   1.635   2.194  10.438  0.2048  0.1014 -0.6652
18735TIP3    H177620   1.715   2.189  10.490  0.7548 -0.5206 -1.5563
18735TIP3    H277621   1.607   2.286  10.446 -0.3633 -0.2317  1.6338
18736TIP3   OH277622   4.998   6.681   0.075  0.7265 -0.3407 -0.1040
18736TIP3    H177623   5.021   6.588   0.077 -0.5486 -0.6476  2.1318
18736TIP3    H277624   4.903   6.682   0.084  0.8622  1.2131  1.3892
18737TIP3   OH277625   0.571   3.573  17.042  0.6215 -0.3136  0.8067
18737TIP3    H177626   0.650   3.555  17.093  1.1965  0.2264  0.1092
18737TIP3    H277627   0.588   3.533  16.957  0.3609  0.2807  0.4780
18738TIP3   OH277628   4.538   6.510  12.433 -0.4853 -0.0417  0.5857
18738TIP3    H177629   4.453   6.552  12.415  0.3315  0.5575 -2.0265
18738TIP3    H277630   4.599   6.583  12.444  0.3048 -0.4836 -0.7381
18739TIP3   OH277631   4.335   1.500  11.041 -0.2905 -0.2884 -0.3995
18739TIP3    H177632   4.353   1.407  11.054  0.6525 -0.1503 -0.7197
18739TIP3    H277633   4.406   1.531  10.985 -0.7650  0.5624 -0.5440
18740TIP3   OH277634   5.249   5.430  10.759  0.4039 -0.2933 -0.2388
18740TIP3    H177635   5.250   5.520  10.727  1.2659  0.2481  1.2460
18740TIP3    H277636   5.324   5.424  10.818 -0.3825 -1.6143  0.6737
18741TIP3   OH277637   5.956   5.416  11.818  0.0701 -0.7923 -0.3978
18741TIP3    H177638   5.970   5.375  11.904 -1.5776 -1.7198 -0.5530
18741TIP3    H277639   5.870   5.457  11.825  0.4558  0.1801 -1.2159
18742TIP3   OH277640   4.289   3.308   0.813  0.3031  0.5112  0.5378
18742TIP3    H177641   4.211   3.264   0.779  0.9111 -0.7030  0.6949
18742TIP3    H277642   4.256   3.391   0.847 -1.0493 -0.3288  1.3326
18743TIP3   OH277643   2.110   6.281   1.845 -0.5400 -0.1886  0.7474
18743TIP3    H177644   2.027   6.318   1.813 -0.9529 -0.7326  1.1844
18743TIP3    H277645   2.173   6.353   1.836 -0.9708  0.1133  0.0652
18744TIP3   OH277646   0.300   2.075  15.127 -0.2038  0.5091  0.4394
18744TIP3    H177647   0.296   2.021  15.206 -1.7762 -0.3290 -0.1844
18744TIP3    H277648   0.208   2.093  15.106  0.1908  0.5855 -1.2803
18745TIP3   OH277649   0.813   5.335   0.485 -0.3220  0.7217 -0.7785
18745TIP3    H177650   0.857   5.402   0.538  0.9585  0.2100 -1.1832
18745TIP3    H277651   0.727   5.324   0.526  1.5438 -1.4993  2.7449
18746TIP3   OH277652   3.685   1.533   4.635 -0.5820  0.2211  0.6546
18746TIP3    H177653   3.752   1.505   4.697 -0.0079  0.6771  0.2492
18746TIP3    H277654   3.631   1.595   4.684  0.4941  1.3795  0.4163
18747TIP3   OH277655   2.918   5.756  15.475  0.0993 -0.2424  0.7346
18747TIP3    H177656   3.008   5.742  15.505  0.3244 -1.2667 -0.3891
18747TIP3    H277657   2.871   5.677  15.502 -0.2700 -0.0859  0.5549
18748TIP3   OH277658   4.506   4.075  13.847  0.4921  0.0194  0.2132
18748TIP3    H177659   4.413   4.062  13.866  0.2422  1.7241  0.1879
18748TIP3    H277660   4.546   4.093  13.932  0.4764  1.1129 -0.0006
18749TIP3   OH277661   6.399   1.809  14.645  0.3067 -0.5090  0.4306
18749TIP3    H177662   6.350   1.877  14.693 -3.0035 -1.5187 -1.3204
18749TIP3    H277663   6.405   1.843  14.556  0.9957 -1.3296  0.1655
18750TIP3   OH277664   1.531   5.463  12.717  1.0561  0.3558 -0.5500
18750TIP3    H177665   1.454   5.410  12.697  1.0052  0.8320 -1.6997
18750TIP3    H277666   1.525   5.480  12.811  0.1814 -0.2646 -0.4838
18751TIP3   OH277667   0.314   2.327   5.651  0.4957 -0.4589  0.3940
18751TIP3    H177668   0.255   2.339   5.726  0.3845 -1.3090  0.4414
18751TIP3    H277669   0.319   2.232   5.639 -0.4642 -0.3010 -1.4503
18752TIP3   OH277670   5.216   6.318   5.262  0.5958 -0.4534 -0.1073
18752TIP3    H177671   5.246   6.263   5.189  0.8247  0.8383 -0.9906
18752TIP3    H277672   5.285   6.383   5.274  1.0206 -1.2589  1.9318
18753TIP3   OH277673   5.504   4.529  16.579 -0.0931 -0.3359 -0.2714
18753TIP3    H177674   5.547   4.595  16.635 -1.4081  0.1086  0.2422
18753TIP3    H277675   5.576   4.488  16.531  1.1413 -0.9995  2.0204
18754TIP3   OH277676   4.706   3.191  12.788  0.7474  0.0842 -0.1481
18754TIP3    H177677   4.657   3.186  12.870 -0.4797  2.3572 -0.6931
18754TIP3    H277678   4.710   3.101  12.757 -1.3569 -0.4301  0.9438
18755TIP3   OH277679   3.909   5.562  11.711  0.3109  0.2227 -0.5534
18755TIP3    H177680   4.001   5.537  11.701 -0.0512 -1.0456 -0.8824
18755TIP3    H277681   3.906   5.655  11.687  1.4575  0.2022 -0.8043
18756TIP3   OH277682   0.019   3.772  15.546 -0.2301  0.6192 -0.3086
18756TIP3    H177683  -0.063   3.755  15.501 -0.0802 -0.3271 -0.2389
18756TIP3    H277684  -0.006   3.790  15.637 -0.2388 -1.2798  0.0721
18757TIP3   OH277685   1.515   0.791   5.819 -0.2104 -0.4948 -0.5249
18757TIP3    H177686   1.474   0.791   5.905 -0.0972  0.6914 -0.4731
18757TIP3    H277687   1.590   0.849   5.827 -1.0593  0.8408 -1.8189
18758TIP3   OH277688   2.823   3.247  12.343 -0.1520 -0.3170 -0.0137
18758TIP3    H177689   2.794   3.180  12.405  0.9561 -1.0676 -0.2815
18758TIP3    H277690   2.821   3.202  12.258  3.1274 -0.8487  0.1377
18759TIP3   OH277691   5.760   5.034  11.400 -0.1772  0.5862 -0.4925
18759TIP3    H177692   5.735   5.056  11.311 -0.0882  3.2499  0.0898
18759TIP3    H277693   5.822   4.962  11.391 -0.4651  0.5677 -2.5381
18760TIP3   OH277694   0.326   0.202  16.432  0.0165  0.6080  0.0167
18760TIP3    H177695   0.245   0.203  16.382  0.4121 -1.6159 -0.7467
18760TIP3    H277696   0.304   0.152  16.511  0.6022  0.0496 -0.1647
18761TIP3   OH277697   2.324   3.937  13.946 -0.3335 -0.1410 -0.4970
18761TIP3    H177698   2.356   3.876  14.012 -0.0484  2.1119  1.5098
18761TIP3    H277699   2.398   3.948  13.886 -0.0689 -1.0135 -0.3411
18762TIP3   OH277700   2.953   4.695  15.728  0.2780  0.2354  0.5505
18762TIP3    H177701   2.991   4.782  15.715  0.4060 -0.0281 -0.9242
18762TIP3    H277702   2.985   4.667  15.813  0.6193  1.4383  0.8298
18763TIP3   OH277703   0.185   2.301   5.897  0.0613  0.0912  0.1638
18763TIP3    H177704   0.121   2.357   5.940  0.2255  0.0839  0.4187
18763TIP3    H277705   0.205   2.233   5.962 -0.4921 -0.5385 -0.3176
18764TIP3   OH277706   3.686   2.806  14.975 -0.4391 -0.4043 -0.1303
18764TIP3    H177707   3.703   2.714  14.995 -0.7733 -0.5557 -0.5262
18764TIP3    H277708   3.735   2.855  15.041 -1.3642 -0.8900  0.9436
18765TIP3   OH277709   2.572   5.716  13.006 -0.3247 -0.0321 -0.1894
18765TIP3    H177710   2.649   5.722  13.063  0.1047 -2.6075 -0.3954
18765TIP3    H277711   2.503   5.762  13.053  0.3207 -1.1005  1.8874
18766TIP3   OH277712   2.817   5.223  10.753  0.3737  0.6203 -0.0136
18766TIP3    H177713   2.866   5.258  10.827 -0.8350 -1.9796  2.1077
18766TIP3    H277714   2.747   5.287  10.738 -0.4815  0.2924  2.3516
18767TIP3   OH277715   4.146   5.947   3.546 -0.3464  0.5142 -0.3716
18767TIP3    H177716   4.138   5.926   3.453 -0.7919 -1.9948  0.1927
18767TIP3    H277717   4.241   5.945   3.563 -0.3904 -2.7780 -0.0375
18768TIP3   OH277718   0.155   6.611   4.449  0.3409  0.0499  0.6325
18768TIP3    H177719   0.118   6.658   4.374  1.0894  0.1566  0.3245
18768TIP3    H277720   0.080   6.596   4.507 -0.6818 -1.9738 -1.1363
18769TIP3   OH277721   2.330   4.779  16.074  0.0519 -0.2011 -0.6305
18769TIP3    H177722   2.318   4.749  15.983 -1.7682  2.9318 -1.5124
18769TIP3    H277723   2.241   4.797  16.104  0.8976  2.4054  0.4511
18770TIP3   OH277724   4.465   0.510   0.057  0.5110  0.1899 -0.1574
18770TIP3    H177725   4.548   0.481   0.018  1.0507  0.5586  0.6962
18770TIP3    H277726   4.492   0.571   0.126 -0.5582  2.4394 -1.6690
18771TIP3   OH277727   4.072   2.029  11.588 -0.1117  0.1853  0.1261
18771TIP3    H177728   3.987   2.049  11.548 -0.2841 -0.0188  0.3900
18771TIP3    H277729   4.132   2.021  11.514 -0.9038 -2.5124 -0.2664
18772TIP3   OH277730   4.239   2.278  13.909  0.6748  0.4836 -0.1966
18772TIP3    H177731   4.248   2.217  13.835 -1.7858  0.3954 -0.4507
18772TIP3    H277732   4.195   2.227  13.977  2.1687  0.8227  1.0526
18773TIP3   OH277733   2.302   6.408  13.577 -0.3362  0.6818  0.0242
18773TIP3    H177734   2.237   6.477  13.584 -0.7293  0.6389 -2.5552
18773TIP3    H277735   2.252   6.329  13.556  0.4258  0.4627 -1.0473
18774TIP3   OH277736   5.987   1.312  11.611  0.6724 -0.1164 -0.4154
18774TIP3    H177737   5.896   1.306  11.583  0.3824  0.2846  0.4418
18774TIP3    H277738   6.026   1.377  11.552 -0.3096  1.8442  1.0309
18775TIP3   OH277739   5.900   0.282   2.554 -0.1805  0.1164 -0.1539
18775TIP3    H177740   5.861   0.337   2.486 -1.4865 -0.5538  0.0455
18775TIP3    H277741   5.994   0.303   2.551 -0.7572  3.0931  0.5583
18776TIP3   OH277742   2.727   0.785   1.783 -0.2969 -0.0413  0.1686
18776TIP3    H177743   2.750   0.737   1.704 -1.3898 -0.0755 -0.1417
18776TIP3    H277744   2.788   0.859   1.786 -0.6612  0.3153 -1.0426
18777TIP3   OH277745   4.770   5.864   2.718  0.2143 -0.7243  0.3531
18777TIP3    H177746   4.796   5.772   2.712 -0.0151 -0.9533  2.3751
18777TIP3    H277747   4.676   5.861   2.733 -0.0106 -0.0958 -0.8785
18778TIP3   OH277748   6.023   5.483   3.094 -0.1175 -0.5561  0.1722
18778TIP3    H177749   5.929   5.491   3.080 -0.2772 -0.3218  1.3020
18778TIP3    H277750   6.045   5.396   3.062 -0.3340  0.1925 -2.0601
18779TIP3   OH277751   6.362   2.620  12.604  0.0366  0.6429 -0.0839
18779TIP3    H177752   6.402   2.669  12.531  0.2678  0.2410 -0.2289
18779TIP3    H277753   6.401   2.659  12.682  0.7629  0.2183 -0.2288
18780TIP3   OH277754   0.685   4.486   3.791 -0.2755  0.1629  0.1046
18780TIP3    H177755   0.723   4.539   3.861 -0.8973 -0.5765  1.0217
18780TIP3    H277756   0.756   4.476   3.727  1.2679 -1.5532  1.9902
18781TIP3   OH277757   4.940   0.199  11.231  0.2253  0.2541 -0.0871
18781TIP3    H177758   4.952   0.283  11.275  1.6477  0.3223 -0.5896
18781TIP3    H277759   4.911   0.139  11.300  1.1899  0.6725  0.6869
18782TIP3   OH277760   3.714   5.763  11.866  0.4002 -0.2043 -0.3942
18782TIP3    H177761   3.805   5.790  11.882  0.8857 -0.9143 -1.8829
18782TIP3    H277762   3.722   5.684  11.813 -1.1185  0.3171 -1.4142
18783TIP3   OH277763   3.055   3.610  17.172 -0.3892 -1.2639  0.0647
18783TIP3    H177764   3.135   3.638  17.128 -0.7964  1.7945  1.1612
18783TIP3    H277765   3.074   3.522  17.203  2.5451 -0.5857  0.2824
18784TIP3   OH277766   1.846   6.742   5.861 -0.0633  0.4619 -0.0241
18784TIP3    H177767   1.898   6.692   5.924 -0.1026 -0.6111 -0.8410
18784TIP3    H277768   1.832   6.682   5.788  0.4070  1.8532 -1.2890
18785TIP3   OH277769   1.970   1.381  12.412 -0.0653  0.2526  0.0416
18785TIP3    H177770   1.951   1.448  12.477 -0.2974  0.0169  0.2186
18785TIP3    H277771   1.978   1.429  12.330 -3.8589  0.1298 -0.5026
18786TIP3   OH277772   4.471   1.341  15.316 -0.3692 -0.1463 -0.4242
18786TIP3    H177773   4.460   1.405  15.245 -0.3625 -0.0392 -0.3281
18786TIP3    H277774   4.503   1.392  15.390 -0.7684 -0.1858 -0.2183
18787TIP3   OH277775   3.440   1.021  16.069  0.0597 -0.5191 -0.0723
18787TIP3    H177776   3.465   1.055  16.156  1.1477 -0.3516 -0.4465
18787TIP3    H277777   3.522   1.019  16.020 -0.7060  0.2560 -1.3964
18788TIP3   OH277778   0.763   4.476   0.230  0.5520  0.0828  0.2989
18788TIP3    H177779   0.784   4.545   0.167  1.2679 -1.2276 -0.9123
18788TIP3    H277780   0.804   4.505   0.312  0.1510  1.4743  0.0281
18789TIP3   OH277781   4.179   0.324  13.457 -0.3528  0.5812  0.1516
18789TIP3    H177782   4.127   0.281  13.524 -0.0143 -0.7220 -0.4184
18789TIP3    H277783   4.135   0.408  13.443 -2.1401 -0.3733 -0.1211
18790TIP3   OH277784   0.599   0.273  12.792  0.2187 -0.0392  0.6573
18790TIP3    H177785   0.635   0.263  12.704  1.3931  1.9195  0.8711
18790TIP3    H277786   0.504   0.277  12.778  0.4566  2.0958 -0.7789
18791TIP3   OH277787   2.737   0.261  11.572  0.3512 -0.0231  0.0291
18791TIP3    H177788   2.688   0.319  11.630 -1.8894  0.1608 -1.9401
18791TIP3    H277789   2.827   0.266  11.602 -0.5215  1.1986  2.5264
18792TIP3   OH277790   1.211   5.545  16.617 -0.7069 -0.1494  0.1657
18792TIP3    H177791   1.235   5.543  16.525  0.8782 -0.3043  0.5612
18792TIP3    H277792   1.116   5.535  16.618 -0.7923  0.3758 -1.4676
18793TIP3   OH277793   3.009   4.804  17.026  0.3485 -0.0300  0.5891
18793TIP3    H177794   3.044   4.718  17.001  0.0035  0.0733 -0.2724
18793TIP3    H277795   2.919   4.787  17.051  0.4540 -0.0100  0.9771
18794TIP3   OH277796   3.252   4.473  14.364 -0.5384  0.6226  0.8867
18794TIP3    H177797   3.316   4.516  14.421 -0.7035  0.3484  1.2819
18794TIP3    H277798   3.195   4.543  14.333 -0.1977  0.8324  0.7295
18795TIP3   OH277799   5.227   5.321   2.547 -0.0532 -0.2152 -0.4982
18795TIP3    H177800   5.178   5.403   2.547 -1.5117 -1.0620  1.5690
18795TIP3    H277801   5.270   5.319   2.633  0.5733 -1.2697 -0.8309
18796TIP3   OH277802   0.962   4.229   0.837 -0.3229 -0.2021 -0.2145
18796TIP3    H177803   1.000   4.142   0.853 -0.0135 -0.4032 -1.9806
18796TIP3    H277804   0.915   4.220   0.754 -0.2579  1.3292 -0.4280
18797TIP3   OH277805   3.674   3.443   3.672  0.4217 -0.1319 -0.4070
18797TIP3    H177806   3.630   3.361   3.696  0.4099 -0.3603 -1.1911
18797TIP3    H277807   3.629   3.472   3.592 -0.7157  1.5313  0.7844
18798TIP3   OH277808   3.026   4.836   3.727 -0.2929 -0.5558 -0.2691
18798TIP3    H177809   3.104   4.864   3.679 -0.3828  0.1776  0.0117
18798TIP3    H277810   2.956   4.840   3.663 -0.2390 -0.4824 -0.3246
18799TIP3   OH277811   4.871   0.233   4.187  0.0300 -0.3777 -0.5596
18799TIP3    H177812   4.880   0.322   4.153  1.5156 -0.2992  0.0042
18799TIP3    H277813   4.781   0.209   4.165 -1.6930  2.6708  2.6167
18800TIP3   OH277814   3.473   1.155  11.171  0.4991 -0.3023  1.1058
18800TIP3    H177815   3.509   1.227  11.222  1.6207 -1.0638  1.3946
18800TIP3    H277816   3.536   1.084  11.181  1.9356  0.2200 -3.2017
18801TIP3   OH277817   1.081   1.268   4.081  0.0681  0.4129  0.3082
18801TIP3    H177818   1.116   1.346   4.037 -0.2359  1.3177  1.6402
18801TIP3    H277819   1.023   1.303   4.149  0.6607 -0.9439  1.5429
18802TIP3   OH277820   1.230   4.810  12.020 -0.1424 -0.5430 -0.8020
18802TIP3    H177821   1.268   4.797  12.107  1.0317  1.9399 -0.8926
18802TIP3    H277822   1.224   4.722  11.983  0.6283 -1.4955  1.2551
18803TIP3   OH277823   3.568   6.220   2.245 -0.1766 -0.8403  0.1492
18803TIP3    H177824   3.569   6.209   2.150  1.2686 -0.0429  0.0552
18803TIP3    H277825   3.486   6.265   2.264 -0.0291 -0.1642 -0.8169
18804TIP3   OH277826   3.068   5.343   1.454 -0.0920 -0.4516 -0.5232
18804TIP3    H177827   2.979   5.365   1.482  0.1468 -1.3939  1.0788
18804TIP3    H277828   3.124   5.405   1.501  0.1341 -0.1577 -1.1759
18805TIP3   OH277829   6.602   1.546  12.149  0.4081 -0.5464  0.1788
18805TIP3    H177830   6.648   1.619  12.108 -1.5672  0.3633 -0.4780
18805TIP3    H277831   6.670   1.480  12.163  2.2840  1.5248  1.0927
18806TIP3   OH277832   6.400   5.447  15.793 -0.4231  0.4559  0.3411
18806TIP3    H177833   6.379   5.461  15.885  0.3581  1.2173  0.4037
18806TIP3    H277834   6.492   5.422  15.793 -0.5825 -0.1502 -0.1808
18807TIP3   OH277835   0.814   3.896   0.932  0.2044 -0.1538 -0.5590
18807TIP3    H177836   0.786   3.807   0.952 -0.5251  0.1717 -0.1412
18807TIP3    H277837   0.746   3.931   0.875  0.2987  0.2646 -0.4173
18808TIP3   OH277838   0.267   5.168  14.848 -0.1888 -0.9223  0.4948
18808TIP3    H177839   0.196   5.139  14.906 -2.2907  2.2827 -0.3544
18808TIP3    H277840   0.298   5.249  14.888  2.4417 -1.8076  0.3372
18809TIP3   OH277841   3.678   2.517   5.315  0.4170  0.7154 -0.2781
18809TIP3    H177842   3.674   2.447   5.380  0.5927  0.7856 -0.1919
18809TIP3    H277843   3.622   2.586   5.351 -0.6636  0.1791 -0.8940
18810TIP3   OH277844   6.327   6.646  17.196  0.4594 -0.1758  0.0252
18810TIP3    H177845   6.288   6.732  17.210  0.5023  0.1831 -1.8928
18810TIP3    H277846   6.418   6.664  17.175  0.3833 -0.6431 -0.7513
18811TIP3   OH277847   3.916   0.566  16.040 -0.6711  0.6529 -0.4038
18811TIP3    H177848   3.826   0.575  16.010 -0.9411 -0.0209  0.1946
18811TIP3    H277849   3.947   0.657  16.052 -1.5456  0.8781  0.1967
18812TIP3   OH277850   5.894   3.390   1.374  0.6352 -0.3439  0.4077
18812TIP3    H177851   5.844   3.460   1.416  1.5633  0.0948  0.7804
18812TIP3    H277852   5.966   3.372   1.434  0.2617 -1.8081  0.4468
18813TIP3   OH277853   3.814   1.240  16.339  0.2311  0.6597 -0.6614
18813TIP3    H177854   3.718   1.248  16.337  0.2337  0.5000 -1.8881
18813TIP3    H277855   3.842   1.279  16.256  1.0876 -1.1351 -1.2225
18814TIP3   OH277856   1.325   5.591   1.363 -1.0057  0.5530  0.4173
18814TIP3    H177857   1.294   5.677   1.392  0.0639  1.3535 -0.7463
18814TIP3    H277858   1.266   5.528   1.405 -2.8235  1.9278 -0.0295
18815TIP3   OH277859   3.249   1.068  11.292 -0.1219  0.3331  0.1960
18815TIP3    H177860   3.207   1.153  11.301 -1.4244 -0.1828 -0.9036
18815TIP3    H277861   3.319   1.082  11.229 -1.5698  0.1716 -1.4787
18816TIP3   OH277862   4.448   4.607   4.698 -1.3235  0.4128  0.1339
18816TIP3    H177863   4.408   4.560   4.772 -1.1306  0.5336  0.3161
18816TIP3    H277864   4.375   4.628   4.641 -1.2922 -0.9386 -0.4078
18817TIP3   OH277865   3.563   0.294   3.650  0.2464  0.2038  0.1850
18817TIP3    H177866   3.529   0.235   3.717 -0.1235  0.5950  0.3414
18817TIP3    H277867   3.657   0.299   3.668  0.3699 -0.7573 -0.1551
18818TIP3   OH277868   4.940   0.397  13.597 -0.8317 -0.2898 -0.0718
18818TIP3    H177869   4.965   0.397  13.690 -1.2681 -0.0991  0.0441
18818TIP3    H277870   5.021   0.373  13.551 -1.0543 -2.2351  0.4841
18819TIP3   OH277871   6.675   3.849   4.597 -0.6428 -0.0392  0.3146
18819TIP3    H177872   6.753   3.884   4.554 -0.4145 -0.4888  0.3698
18819TIP3    H277873   6.613   3.835   4.525  0.2203 -2.0996 -0.0511
18820TIP3   OH277874   6.297   0.887   0.747 -0.2177 -0.1097  0.1273
18820TIP3    H177875   6.214   0.935   0.746 -0.8700 -1.2153  0.3517
18820TIP3    H277876   6.314   0.868   0.655 -0.2492  0.0501  0.0872
18821TIP3   OH277877   2.053   3.150   1.298  0.1422 -0.8476  0.5610
18821TIP3    H177878   2.051   3.243   1.275 -0.4892 -0.4074  2.3027
18821TIP3    H277879   2.131   3.116   1.255  0.1950  0.4041 -0.3665
18822TIP3   OH277880   0.208   0.679   4.094  0.6576 -0.2383  0.8099
18822TIP3    H177881   0.121   0.648   4.069  0.3508 -0.6046  2.3060
18822TIP3    H277882   0.233   0.738   4.023 -0.2851 -1.0729 -0.2483
18823TIP3   OH277883   5.701   5.296  16.321  0.6478  0.4392 -0.7593
18823TIP3    H177884   5.744   5.380  16.338 -0.9918  1.0390  0.6530
18823TIP3    H277885   5.651   5.279  16.401  0.9801 -1.9040 -1.0179
18824TIP3   OH277886   3.125   1.062   5.682  0.2743 -0.9034  0.4319
18824TIP3    H177887   3.165   1.107   5.757  3.2634 -1.0861 -1.0110
18824TIP3    H277888   3.079   1.132   5.635  1.7938 -0.0265  0.2239
18825TIP3   OH277889   0.908   4.535   1.202  0.2924 -0.4021  0.6244
18825TIP3    H177890   0.996   4.512   1.172 -0.2133 -0.1375 -1.1581
18825TIP3    H277891   0.850   4.483   1.146 -0.7126  0.3893  0.9183
18826TIP3   OH277892   6.511   1.653  14.018 -0.4142 -0.3662 -0.2989
18826TIP3    H177893   6.554   1.719  14.072 -0.9846  0.8327 -1.2614
18826TIP3    H277894   6.489   1.700  13.937 -0.9509 -1.7084 -0.9460
18827TIP3   OH277895   0.542   5.586  10.522 -0.0120 -0.0781 -0.2504
18827TIP3    H177896   0.448   5.571  10.524  0.2769 -1.9511  0.3127
18827TIP3    H277897   0.579   5.501  10.497  1.6816 -0.1455  2.2994
18828TIP3   OH277898   5.734   6.088  17.027 -0.5501 -0.2970 -0.3484
18828TIP3    H177899   5.675   6.081  16.952 -3.5118 -1.4531  1.9819
18828TIP3    H277900   5.799   6.019  17.013 -1.4673 -0.9388 -1.4878
18829TIP3   OH277901   3.111   3.359  14.860  0.0317 -0.3407 -0.0770
18829TIP3    H177902   3.102   3.451  14.884 -1.7666 -0.6301  0.4356
18829TIP3    H277903   3.202   3.336  14.883  1.1068  1.8176 -2.0592
18830TIP3   OH277904   0.134   4.891   4.399  0.1067 -0.0987 -0.3235
18830TIP3    H177905   0.120   4.952   4.471 -0.5713 -0.3700 -0.2266
18830TIP3    H277906   0.155   4.808   4.441 -2.4327 -0.7997 -0.3894
18831TIP3   OH277907   0.868   5.895   5.135  0.7278  0.1269 -0.1641
18831TIP3    H177908   0.935   5.885   5.068  0.9857 -0.4620  0.1832
18831TIP3    H277909   0.845   5.806   5.160 -2.0318  0.2156 -2.1066
18832TIP3   OH277910   3.587   6.120   2.615  0.2981 -0.4054 -0.1375
18832TIP3    H177911   3.573   6.027   2.630 -2.7640 -0.4164 -2.5118
18832TIP3    H277912   3.668   6.125   2.564  1.1031 -1.6438  0.9958
18833TIP3   OH277913   5.051   1.835  14.208 -0.2485  0.4247  0.4048
18833TIP3    H177914   5.116   1.821  14.139 -0.9611  0.0302 -0.1890
18833TIP3    H277915   5.021   1.747  14.231 -0.7683  0.6187  0.4846
18834TIP3   OH277916   2.524   0.655   4.137  0.2987 -1.3174  0.1298
18834TIP3    H177917   2.429   0.663   4.143  0.4616  0.5973  0.7353
18834TIP3    H277918   2.557   0.733   4.182  2.2013 -2.9561  1.6961
18835TIP3   OH277919   2.933   0.415   3.013  0.6017  0.0039  0.1111
18835TIP3    H177920   3.020   0.399   2.977  1.7941 -1.2623  3.3537
18835TIP3    H277921   2.949   0.438   3.104 -2.4579  0.3277  0.6177
18836TIP3   OH277922   4.621   0.393  14.926 -0.5010 -0.0759  0.2458
18836TIP3    H177923   4.660   0.353  14.849 -0.4151  2.4126 -1.0804
18836TIP3    H277924   4.688   0.388  14.994  0.3228 -0.1582 -0.5714
18837TIP3   OH277925   1.236   2.766  11.999 -0.3932  0.2893  0.2547
18837TIP3    H177926   1.272   2.678  11.993 -0.0776  0.4597 -0.3796
18837TIP3    H277927   1.263   2.809  11.918 -0.7759  0.8841  0.4367
18838TIP3   OH277928   4.262   1.963  10.667  0.1250 -0.4441 -0.1632
18838TIP3    H177929   4.210   1.893  10.626  0.9969 -1.6323  0.7097
18838TIP3    H277930   4.347   1.957  10.625  0.5091 -0.5835  0.6103
18839TIP3   OH277931   5.217   3.991  15.411  0.3267  0.0144  0.2629
18839TIP3    H177932   5.167   3.942  15.475 -1.6015  0.3579 -0.9207
18839TIP3    H277933   5.168   3.982  15.329  2.3755  0.1042 -1.0373
18840TIP3   OH277934   4.367   2.434  10.279 -0.2625  0.1047 -0.3121
18840TIP3    H177935   4.398   2.411  10.366 -0.4177  1.1254  0.0188
18840TIP3    H277936   4.401   2.365  10.222  1.6124  0.5625  0.2258
18841TIP3   OH277937   4.438   5.244  11.920 -0.2115  0.1110 -0.2625
18841TIP3    H177938   4.509   5.209  11.974 -1.1210 -1.3535  0.0173
18841TIP3    H277939   4.475   5.247  11.831  0.2469 -0.4749 -0.0967
18842TIP3   OH277940   3.935   1.326  15.808  0.3641 -0.2010 -0.3510
18842TIP3    H177941   4.026   1.331  15.836 -0.1290 -0.0177  1.2600
18842TIP3    H277942   3.924   1.235  15.779  1.0966 -0.1782 -0.6990
18843TIP3   OH277943   3.724   5.375  11.880  0.3981  0.2885 -0.1897
18843TIP3    H177944   3.655   5.437  11.904  0.2044  0.7401 -1.8448
18843TIP3    H277945   3.799   5.430  11.858  1.0556 -0.1707  0.8687
18844TIP3   OH277946   0.824   0.620   2.808 -0.6279  0.0670  0.2738
18844TIP3    H177947   0.817   0.551   2.874 -1.3026  0.8711  1.0574
18844TIP3    H277948   0.912   0.656   2.821  0.0157 -1.1471 -0.6516
18845TIP3   OH277949   3.299   1.319  12.972 -0.1319 -0.8652 -0.0759
18845TIP3    H177950   3.276   1.259  12.901 -0.1215 -1.0850  0.1036
18845TIP3    H277951   3.259   1.403  12.947  0.6833 -0.6927 -0.8064
18846TIP3   OH277952   2.484   6.532  15.968  0.1906 -0.9708  0.3547
18846TIP3    H177953   2.403   6.488  15.992 -0.0537  0.0666  1.4675
18846TIP3    H277954   2.483   6.614  16.017  1.1634 -0.2237 -0.8335
18847TIP3   OH277955   0.414   4.665   5.919  0.3495  0.2404  0.1487
18847TIP3    H177956   0.475   4.695   5.986  1.2935  0.4672 -0.8069
18847TIP3    H277957   0.329   4.697   5.948  1.0489  2.0840  0.1804
18848TIP3   OH277958   4.591   4.618  11.776 -0.0698  0.0511  0.6161
18848TIP3    H177959   4.643   4.695  11.798  0.2483 -0.5583  2.1049
18848TIP3    H277960   4.571   4.578  11.861  0.2829 -1.8251 -0.1634
18849TIP3   OH277961   3.263   0.375   3.965 -0.4416  0.2123 -0.3288
18849TIP3    H177962   3.339   0.392   4.021 -0.4776  1.0628 -0.5308
18849TIP3    H277963   3.188   0.380   4.024 -0.3233 -0.9939 -0.0580
18850TIP3   OH277964   4.899   6.713  13.292  0.3377 -0.1310 -0.0723
18850TIP3    H177965   4.924   6.778  13.227  0.5322  1.1232  1.2359
18850TIP3    H277966   4.803   6.708  13.285  0.4145 -0.4744 -0.8930
18851TIP3   OH277967   2.414   5.916   4.519  0.7136  0.1164 -0.4241
18851TIP3    H177968   2.460   5.999   4.508  2.1119 -0.6002 -0.0961
18851TIP3    H277969   2.446   5.861   4.448  1.7374 -0.9922  0.8767
18852TIP3   OH277970   4.599   4.437  13.696 -0.6075 -0.0001 -0.2980
18852TIP3    H177971   4.670   4.374  13.704  1.5652  2.4233  0.0778
18852TIP3    H277972   4.619   4.486  13.616 -0.2162  2.6363  1.3664
18853TIP3   OH277973   3.829   1.283   3.541 -0.7505 -0.3783 -0.2165
18853TIP3    H177974   3.855   1.345   3.473  0.6572 -0.6594  0.0563
18853TIP3    H277975   3.806   1.203   3.492 -0.2677 -0.4086 -0.3955
18854TIP3   OH277976   3.284   6.633  14.355  0.0740 -0.6326 -0.1958
18854TIP3    H177977   3.235   6.562  14.313 -1.2359  0.3617 -0.3697
18854TIP3    H277978   3.320   6.684  14.283  0.6174 -0.8352 -0.0737
18855TIP3   OH277979   4.991   1.863   3.812 -0.1397 -0.8068 -0.3360
18855TIP3    H177980   4.901   1.864   3.779 -0.0791 -0.9165 -0.5013
18855TIP3    H277981   5.045   1.887   3.736 -0.0918 -0.0225 -0.0584
18856TIP3   OH277982   0.913   0.636   4.409  0.2706 -0.6616  0.2368
18856TIP3    H177983   0.881   0.545   4.409  1.0857 -0.9648  1.2767
18856TIP3    H277984   1.008   0.628   4.403  0.4059  0.0869  1.2077
18857TIP3   OH277985   5.710   4.156   4.282 -0.3153  0.3649 -0.2954
18857TIP3    H177986   5.684   4.151   4.374 -0.7188 -1.7426 -0.4889
18857TIP3    H277987   5.640   4.112   4.234  0.7665 -0.1932 -1.4206
18858TIP3   OH277988   2.620   4.734   3.648  0.1313  0.3631  0.1196
18858TIP3    H177989   2.562   4.669   3.686  0.0197  1.0065  1.0890
18858TIP3    H277990   2.648   4.788   3.723  1.2740  0.6011 -0.4558
18859TIP3   OH277991   2.060   2.065   4.392 -0.3453 -0.8429  0.1770
18859TIP3    H177992   2.053   2.025   4.305  0.2096  0.2368 -0.3705
18859TIP3    H277993   2.021   2.000   4.451 -0.7065 -1.5966 -0.8686
18860TIP3   OH277994   3.838   3.478  16.142  0.2870 -0.1334  0.0275
18860TIP3    H177995   3.757   3.515  16.175  0.0502 -0.5138 -0.1299
18860TIP3    H277996   3.811   3.409  16.081  0.7221  0.1972 -0.5436
18861TIP3   OH277997   4.320   0.148  10.713 -0.4500  0.3264 -0.0339
18861TIP3    H177998   4.415   0.156  10.721 -0.2242 -1.9003 -0.1308
18861TIP3    H277999   4.295   0.087  10.782 -1.5099 -0.8510 -1.4285
18862TIP3   OH278000   1.731   6.748   0.278  0.0352  0.0602 -0.1380
18862TIP3    H178001   1.774   6.675   0.323 -0.9037 -0.0033  0.6851
18862TIP3    H278002   1.735   6.725   0.186  0.5344 -0.6075  0.0414
18863TIP3   OH278003   1.581   2.176   0.572  0.4092  0.4062  0.4001
18863TIP3    H178004   1.643   2.242   0.603  0.9922 -0.5961  1.4166
18863TIP3    H278005   1.628   2.131   0.501  0.3736  0.4480  0.3496
18864TIP3   OH278006   2.136   0.866   1.838 -0.1150  0.4728 -0.3433
18864TIP3    H178007   2.196   0.939   1.853 -0.7841  0.6401  1.6150
18864TIP3    H278008   2.069   0.902   1.779  2.1268  0.0312 -3.2565
18865TIP3   OH278009   5.819   2.975   1.556 -0.2563  0.5194 -0.4563
18865TIP3    H178010   5.762   3.052   1.555 -2.1259 -0.8343  0.5503
18865TIP3    H278011   5.803   2.932   1.473 -1.3062 -0.2918  0.1619
18866TIP3   OH278012   5.348   3.586  11.722 -0.3307 -0.2508  0.4997
18866TIP3    H178013   5.275   3.530  11.696 -1.3801 -0.4796  3.7875
18866TIP3    H278014   5.420   3.525  11.738 -0.9586 -0.5100  2.3630
18867TIP3   OH278015   0.394   1.111  11.487  0.0256  0.2977 -0.7878
18867TIP3    H178016   0.399   1.094  11.393 -0.7271  0.1340 -0.8022
18867TIP3    H278017   0.485   1.119  11.515  0.2455  0.8273 -1.6208
18868TIP3   OH278018   2.612   5.811  16.891 -0.2588 -0.5875 -0.6477
18868TIP3    H178019   2.651   5.820  16.978 -0.7159  1.9425 -0.6635
18868TIP3    H278020   2.518   5.809  16.906 -0.4682  2.3682 -1.1959
18869TIP3   OH278021   4.252   4.936   4.712 -0.5844  0.1288 -0.3558
18869TIP3    H178022   4.280   5.027   4.703  0.6582 -0.2083  0.0897
18869TIP3    H278023   4.163   4.935   4.676 -0.5056  1.4593 -0.6057
18870TIP3   OH278024   2.137   3.943   1.931  0.1924  0.3962  0.5997
18870TIP3    H178025   2.085   3.911   2.005  1.7058 -0.4035  1.3431
18870TIP3    H278026   2.174   4.025   1.962 -2.7737  2.4017 -0.9074
18871TIP3   OH278027   4.161   2.574  14.347 -0.2510 -0.1149 -0.1108
18871TIP3    H178028   4.147   2.618  14.263  0.5061  1.3778  0.5365
18871TIP3    H278029   4.196   2.488  14.323 -0.2595  0.2121 -1.3307
18872TIP3   OH278030   3.625   0.921  11.123  0.4846  0.1217  0.3247
18872TIP3    H178031   3.685   0.850  11.101  1.0003  0.5819  0.2217
18872TIP3    H278032   3.543   0.898  11.079  0.5441 -0.5724  0.5680
18873TIP3   OH278033   5.930   4.741  14.279 -0.4376 -0.0200  0.3746
18873TIP3    H178034   5.990   4.741  14.354  1.4240 -0.6453 -1.0611
18873TIP3    H278035   5.869   4.670  14.297 -0.6444  0.4990  1.7822
18874TIP3   OH278036   1.580   1.049  12.314 -0.3746 -0.2348  0.4009
18874TIP3    H178037   1.643   1.048  12.242 -0.9967 -0.1886 -0.1503
18874TIP3    H278038   1.615   0.988  12.379  0.8520  0.6944  0.6216
18875TIP3   OH278039   4.472   4.065  13.223  0.4047  0.3288 -0.5322
18875TIP3    H178040   4.479   4.161  13.220  0.1702  0.4318  1.2694
18875TIP3    H278041   4.382   4.047  13.199 -0.1441  0.7188  1.1700
18876TIP3   OH278042   1.744   2.378  14.051 -0.2292  0.6511  0.1200
18876TIP3    H178043   1.728   2.301  13.997  1.6672  1.3032 -1.4414
18876TIP3    H278044   1.694   2.362  14.132  0.0602 -2.1342 -0.2138
18877TIP3   OH278045   0.463   0.551   0.975  0.1697 -0.7384  0.3817
18877TIP3    H178046   0.447   0.645   0.972  0.4310 -0.5848  2.6356
18877TIP3    H278047   0.545   0.542   1.024  0.1173 -2.1335  0.2491
18878TIP3   OH278048   6.582   1.688  16.231  0.0572 -0.3097  0.1258
18878TIP3    H178049   6.670   1.666  16.262  0.1279 -0.9332 -0.4944
18878TIP3    H278050   6.590   1.686  16.135  0.3806  3.6843 -0.0349
18879TIP3   OH278051   3.146   2.777  11.202 -0.4754 -0.4595 -0.5144
18879TIP3    H178052   3.193   2.713  11.256 -1.4815  0.0516  0.9910
18879TIP3    H278053   3.109   2.838  11.264 -1.1157  0.5294 -1.8467
18880TIP3   OH278054   3.372   0.364   2.204 -0.1252 -0.3174 -0.5426
18880TIP3    H178055   3.350   0.429   2.137  3.5895  0.6569 -0.9420
18880TIP3    H278056   3.379   0.414   2.285  1.3086 -0.4642 -0.5734
18881TIP3   OH278057   6.691   5.749   6.052 -0.3296  0.2272  0.6132
18881TIP3    H178058   6.706   5.843   6.045 -2.6790  0.7889  2.2784
18881TIP3    H278059   6.597   5.741   6.070 -0.4949 -2.5316 -1.1770
18882TIP3   OH278060   1.829   5.590   4.113  0.2412  0.4476  0.1743
18882TIP3    H178061   1.888   5.531   4.160 -0.5827  0.5490  1.3514
18882TIP3    H278062   1.868   5.677   4.125  2.5350 -0.0271 -3.2064
18883TIP3   OH278063   6.468   3.165   3.551 -0.4054  0.2298  0.0481
18883TIP3    H178064   6.517   3.094   3.594 -1.1492 -0.6310 -0.5177
18883TIP3    H278065   6.425   3.123   3.477 -1.5892  1.0916  0.2373
18884TIP3   OH278066   3.424   1.178   2.095  0.2228  0.3613  0.1226
18884TIP3    H178067   3.448   1.266   2.067 -0.9868 -0.0714 -2.4786
18884TIP3    H278068   3.379   1.190   2.179  2.9806  1.8535  1.4464
18885TIP3   OH278069   5.990   0.100  15.619 -0.2023  0.1086 -0.4033
18885TIP3    H178070   6.013   0.185  15.654 -0.0060 -0.6226  1.2787
18885TIP3    H278071   6.073   0.055  15.605 -0.3761 -0.5187  0.5417
18886TIP3   OH278072   2.106   6.110  14.273  0.5488 -0.1939  0.3566
18886TIP3    H178073   2.112   6.206  14.271  0.0108 -0.1719 -0.0998
18886TIP3    H278074   2.153   6.085  14.352  0.0628  0.4961  0.8648
18887TIP3   OH278075   4.566   5.713   3.816 -0.3375 -0.6037  0.1108
18887TIP3    H178076   4.563   5.644   3.882 -0.7674 -0.9124 -0.2306
18887TIP3    H278077   4.655   5.709   3.781  0.3297  0.4522  1.6123
18888TIP3   OH278078   0.444   5.733   4.310  0.6369 -1.0763  0.1301
18888TIP3    H178079   0.354   5.732   4.276  0.1184  0.2598  1.3903
18888TIP3    H278080   0.458   5.645   4.344  0.0610 -1.5056 -0.7390
18889TIP3   OH278081   4.434   5.024  13.689 -0.0709  0.7033  0.4853
18889TIP3    H178082   4.423   5.025  13.594  3.5340  0.2820 -0.0409
18889TIP3    H278083   4.443   5.116  13.713  2.6017  0.6467 -0.1533
18890TIP3   OH278084   6.385   4.750   3.357 -0.3660 -0.0026  0.2388
18890TIP3    H178085   6.356   4.837   3.383 -0.2739  0.5995 -1.5574
18890TIP3    H278086   6.390   4.700   3.438 -1.7693  1.2668  1.1167
18891TIP3   OH278087   5.586   5.857  14.996 -0.2100  0.1440 -0.0731
18891TIP3    H178088   5.577   5.929  14.935 -2.1198  0.0103  0.0315
18891TIP3    H278089   5.628   5.895  15.073 -2.1260  1.4014  0.3884
18892TIP3   OH278090   0.168   2.916  12.517  0.4191 -0.2928  0.0749
18892TIP3    H178091   0.204   2.840  12.564  3.7233  0.6513 -0.7755
18892TIP3    H278092   0.197   2.991  12.568 -1.3591  0.4791 -0.0447
18893TIP3   OH278093   5.757   0.108  15.375 -0.2320 -0.1236 -0.3564
18893TIP3    H178094   5.769   0.197  15.409  0.0667 -0.1471 -0.3954
18893TIP3    H278095   5.838   0.090  15.327 -0.5435 -0.1957 -0.8532
18894TIP3   OH278096   3.885   0.779  15.624  0.7092  0.2685  0.7706
18894TIP3    H178097   3.815   0.731  15.667 -0.2896  1.0721  0.0572
18894TIP3    H278098   3.857   0.786  15.532  1.4482  1.0890  0.6020
18895TIP3   OH278099   6.361   4.591   2.735 -0.1937  0.1591 -0.0439
18895TIP3    H178100   6.328   4.538   2.663 -1.1219  1.4409 -0.5961
18895TIP3    H278101   6.380   4.529   2.805  0.3613 -1.0584 -1.2627
18896TIP3   OH278102   3.862   1.752   0.039  0.4524  0.4453  0.0815
18896TIP3    H178103   3.866   1.813   0.113 -0.9563 -2.4325  2.6417
18896TIP3    H278104   3.770   1.751   0.012  0.1536 -1.5566  1.0315
18897TIP3   OH278105   5.431   2.548   5.550 -0.2156 -0.0761  0.2667
18897TIP3    H178106   5.403   2.582   5.465 -1.0518 -0.9697  0.1771
18897TIP3    H278107   5.390   2.606   5.614 -1.5946 -0.8614  0.1126
18898TIP3   OH278108   1.368   0.870  14.930 -0.4089 -0.3690  0.1800
18898TIP3    H178109   1.446   0.914  14.964 -0.9592 -0.1202  1.1350
18898TIP3    H278110   1.401   0.789  14.891  0.4789  0.3495 -0.5801
18899TIP3   OH278111   0.945   5.662   6.335  0.1928 -0.4821 -0.5276
18899TIP3    H178112   1.002   5.645   6.260  1.0684 -0.0992  0.0497
18899TIP3    H278113   0.952   5.584   6.389 -0.9451 -1.0277 -1.1661
18900TIP3   OH278114   5.087   1.302  13.382  0.1152 -0.0299 -0.0095
18900TIP3    H178115   5.083   1.218  13.428 -0.5360  0.5004  0.9015
18900TIP3    H278116   5.004   1.344  13.401  1.4514  1.9360  1.6753
18901TIP3   OH278117   1.991   6.158  11.149  0.2663 -0.7642 -0.0258
18901TIP3    H178118   2.032   6.237  11.114 -0.3918 -1.0332 -1.4511
18901TIP3    H278119   1.899   6.182  11.164 -0.0218 -1.3436 -0.7989
18902TIP3   OH278120   0.065   1.679   0.124  0.1127 -0.1438  0.5593
18902TIP3    H178121   0.157   1.707   0.120  0.1497 -0.1991  0.9602
18902TIP3    H278122   0.019   1.752   0.164 -0.0808  0.0243  0.0346
18903TIP3   OH278123   5.997   2.588   5.790 -0.3565  0.5171  0.2086
18903TIP3    H178124   6.089   2.607   5.774 -1.0901  1.4942 -3.0723
18903TIP3    H278125   5.964   2.666   5.836  0.1207  0.7480  0.1579
18904TIP3   OH278126   5.443   4.084   5.044  0.2424  0.3773 -0.2744
18904TIP3    H178127   5.459   4.143   4.971  0.5422 -0.3979 -0.8345
18904TIP3    H278128   5.523   4.032   5.052 -0.3114 -0.4836 -0.2777
18905TIP3   OH278129   1.430   6.187  13.135  0.4913 -0.6263 -0.3354
18905TIP3    H178130   1.474   6.268  13.111  0.7042 -0.6373  0.0201
18905TIP3    H278131   1.390   6.157  13.054  0.4664 -0.1991 -0.4847
18906TIP3   OH278132   5.493   1.817   5.249  0.8646  0.1283 -0.5598
18906TIP3    H178133   5.540   1.817   5.333 -0.6303 -0.3197  0.3033
18906TIP3    H278134   5.545   1.760   5.192  1.1835 -0.6397  0.4782
18907TIP3   OH278135   2.425   5.310  13.459 -0.0468  0.1037  0.2721
18907TIP3    H178136   2.510   5.349  13.440  0.0160  0.7785  1.8896
18907TIP3    H278137   2.444   5.240  13.522 -0.4732 -0.9517 -0.7398
18908TIP3   OH278138   6.261   0.030   2.046  0.2428  0.4292  0.3214
18908TIP3    H178139   6.321   0.078   2.103  1.1095  1.5243 -1.4668
18908TIP3    H278140   6.244  -0.052   2.093  0.6257  1.4516  2.3116
18909TIP3   OH278141   6.717   4.939  12.164  0.2527  0.5125 -0.6033
18909TIP3    H178142   6.651   4.969  12.226 -0.1784 -0.2374 -0.7035
18909TIP3    H278143   6.694   4.983  12.082  0.8744  1.5708 -0.2192
18910TIP3   OH278144   4.549   2.904  11.209 -0.2408  0.0584 -0.5242
18910TIP3    H178145   4.558   2.859  11.125 -0.9988  0.5888 -0.8940
18910TIP3    H278146   4.455   2.915  11.221 -0.2427 -1.7440  1.3407
18911TIP3   OH278147   2.913   3.209   5.676  0.5173 -0.4327 -0.1812
18911TIP3    H178148   2.978   3.239   5.612 -0.2124 -0.5204 -0.9703
18911TIP3    H278149   2.950   3.234   5.761  1.2528  0.1443 -0.6623
18912TIP3   OH278150   0.809   5.081  10.393 -0.2076 -0.4917 -0.2519
18912TIP3    H178151   0.754   5.154  10.419 -0.1554 -0.8375  0.8470
18912TIP3    H278152   0.749   5.008  10.378 -0.1451 -0.5763 -0.0942
18913TIP3   OH278153   0.747   3.980  15.688 -0.3355 -0.0659  0.1037
18913TIP3    H178154   0.683   4.014  15.626 -0.6900 -0.1199  0.4382
18913TIP3    H278155   0.750   4.045  15.758  0.7449  0.4472 -0.4147
18914TIP3   OH278156   5.738   3.999  14.033  0.5668 -0.0850  0.2447
18914TIP3    H178157   5.659   3.946  14.045  0.5145 -0.2908 -0.9304
18914TIP3    H278158   5.731   4.068  14.099  0.5656 -1.4454  1.7140
18915TIP3   OH278159   4.155   1.816  15.609 -0.1270 -0.5026  0.5239
18915TIP3    H178160   4.103   1.796  15.532  0.6085  1.3280 -0.4880
18915TIP3    H278161   4.113   1.767  15.680 -3.5139  1.2992 -0.1376
18916TIP3   OH278162   4.242   3.072  12.934  0.2243 -0.7358  0.0386
18916TIP3    H178163   4.233   3.166  12.950 -0.9703 -0.7731 -0.4211
18916TIP3    H278164   4.296   3.066  12.855  0.1200 -0.4350 -0.0560
18917TIP3   OH278165   5.177   0.704   4.906  0.5161  0.9234  0.0851
18917TIP3    H178166   5.177   0.654   4.988  0.2841  0.8354  0.0299
18917TIP3    H278167   5.267   0.737   4.899  0.1623  2.1342  1.1157
18918TIP3   OH278168   1.918   5.873   3.060 -0.0938  0.1819 -0.0120
18918TIP3    H178169   1.853   5.873   3.130  3.0586  0.7609  3.0950
18918TIP3    H278170   1.915   5.962   3.024  0.3498  0.8454  1.5359
18919TIP3   OH278171   3.738   1.634   0.537 -0.0914 -0.8137 -0.0066
18919TIP3    H178172   3.697   1.666   0.617  1.4781 -1.6721  1.1777
18919TIP3    H278173   3.673   1.577   0.497 -1.0907  0.0536  0.3730
18920TIP3   OH278174   1.599   3.531  14.261  0.3331  0.3793  0.1718
18920TIP3    H178175   1.599   3.615  14.308  1.8519  0.7322 -0.4622
18920TIP3    H278176   1.554   3.471  14.321  0.2491  1.3695  1.1179
18921TIP3   OH278177   5.157   1.933  15.167 -0.4256 -0.0871 -0.1387
18921TIP3    H178178   5.118   1.941  15.255 -2.5696  1.3288 -1.1666
18921TIP3    H278179   5.227   1.998  15.167  0.4201 -0.9675  0.9225
18922TIP3   OH278180   1.965   5.291  11.044 -0.0039  0.5791  0.2401
18922TIP3    H178181   1.958   5.196  11.029  0.0369  0.2452  2.2336
18922TIP3    H278182   1.911   5.330  10.975  1.1710 -0.8239 -1.5231
18923TIP3   OH278183   2.900   0.494   4.244  0.8955 -0.8549  0.5594
18923TIP3    H178184   2.897   0.552   4.321  0.1534 -0.2743  0.1048
18923TIP3    H278185   2.993   0.481   4.228  1.0818  0.3198  0.6070
18924TIP3   OH278186   3.369   0.199  14.340 -0.4768 -0.0203 -0.4631
18924TIP3    H178187   3.453   0.242  14.323 -0.4914  0.1275 -0.1720
18924TIP3    H278188   3.329   0.189  14.254 -0.6890  0.9842 -0.4823
18925TIP3   OH278189   3.598   5.090  11.610  0.6734  0.7280  0.0890
18925TIP3    H178190   3.542   5.091  11.532 -0.6425  1.7551  1.0209
18925TIP3    H278191   3.631   5.001  11.615  1.3383  0.8215 -2.0459
18926TIP3   OH278192   3.524   0.830  12.252 -0.3775  0.1347 -0.1607
18926TIP3    H178193   3.544   0.844  12.160  0.9726 -0.2114  0.0705
18926TIP3    H278194   3.595   0.873  12.299 -0.5650 -0.4750  0.6971
18927TIP3   OH278195   1.144   4.147  13.983  0.6861 -0.1985 -0.1675
18927TIP3    H178196   1.181   4.060  13.997  0.4996 -0.3456 -0.5739
18927TIP3    H278197   1.150   4.160  13.889  0.4553  0.1135 -0.1392
18928TIP3   OH278198   6.261   4.340   4.856 -0.2654  0.5713  0.3667
18928TIP3    H178199   6.234   4.306   4.771  5.3487 -1.5830 -0.8064
18928TIP3    H278200   6.301   4.425   4.837  0.7566  0.2069  0.8002
18929TIP3   OH278201   6.181   3.864  12.726  0.1831  0.2459  0.4150
18929TIP3    H178202   6.128   3.815  12.789  3.7736 -0.1994  3.2523
18929TIP3    H278203   6.164   3.956  12.747 -1.2928  0.1482 -0.3222
18930TIP3   OH278204   5.020   3.263  11.216  0.0386 -0.0298  0.8645
18930TIP3    H178205   5.049   3.350  11.187  0.1584  0.9049  3.6470
18930TIP3    H278206   4.934   3.252  11.175 -0.0094  1.4471  0.5408
18931TIP3   OH278207   1.372   3.093  13.168  0.1628  0.3609 -0.2881
18931TIP3    H178208   1.366   3.127  13.257 -0.1173 -1.4122  0.3808
18931TIP3    H278209   1.328   3.159  13.114 -1.9457  0.2155  1.2019
18932TIP3   OH278210   3.840   2.547   3.351  0.0459  0.3235 -0.3434
18932TIP3    H178211   3.751   2.563   3.383  0.1258  1.2939 -0.5932
18932TIP3    H278212   3.837   2.573   3.259  0.1413 -1.2740 -0.8078
18933TIP3   OH278213   2.911   2.134  15.099  0.2989 -0.6927  0.2088
18933TIP3    H178214   2.903   2.072  15.027  1.8705  1.0707 -1.5379
18933TIP3    H278215   2.935   2.217  15.057 -1.3353  1.0020  2.5261
18934TIP3   OH278216   2.729   5.667   1.250 -0.0929  0.0584  0.6113
18934TIP3    H178217   2.761   5.626   1.331  0.7576  1.6418  1.1013
18934TIP3    H278218   2.771   5.617   1.180  0.9965  0.1175  1.1997
18935TIP3   OH278219   1.440   3.548   1.606  0.9373 -0.7209  0.1465
18935TIP3    H178220   1.510   3.494   1.643  0.5088 -1.2949  0.1280
18935TIP3    H278221   1.377   3.558   1.678  0.0294 -1.9672 -0.4546
18936TIP3   OH278222   3.036   2.967  12.598  0.2599  0.1672 -0.0297
18936TIP3    H178223   3.080   2.882  12.602 -0.6023 -0.3233 -0.9775
18936TIP3    H278224   3.087   3.017  12.534  0.7883  0.3829  0.5539
18937TIP3   OH278225   3.247   3.010   3.675 -0.4582 -0.2491 -0.2927
18937TIP3    H178226   3.250   2.967   3.590 -1.6126 -2.0551  0.5414
18937TIP3    H278227   3.154   3.030   3.688 -0.3117 -0.1224  0.5907
18938TIP3   OH278228   1.667   1.282   0.221 -0.8451 -0.3431 -0.6669
18938TIP3    H178229   1.719   1.346   0.171 -1.0044 -1.2115 -1.9595
18938TIP3    H278230   1.644   1.328   0.302 -0.1605  0.9109 -1.1706
18939TIP3   OH278231   4.300   2.267   1.188  0.2503  0.1455  0.0767
18939TIP3    H178232   4.330   2.207   1.256 -0.2909 -1.2521 -0.8928
18939TIP3    H278233   4.258   2.339   1.237  0.2425 -0.6209  1.2245
18940TIP3   OH278234   2.950   1.981  12.886  0.1046  0.5410  0.0070
18940TIP3    H178235   2.953   1.989  12.791 -1.0775  0.2544 -0.0573
18940TIP3    H278236   2.904   2.060  12.914  1.8253  1.4233  0.4733
18941TIP3   OH278237   5.429   2.483   5.973  0.0335  0.3253  0.1404
18941TIP3    H178238   5.362   2.446   5.915  0.4104  1.4247 -1.0065
18941TIP3    H278239   5.384   2.493   6.057 -0.8576 -0.1895 -0.2646
18942TIP3   OH278240   3.869   5.110  14.537 -0.2989  0.7494  0.2525
18942TIP3    H178241   3.814   5.185  14.557  0.1930  0.9953  0.7344
18942TIP3    H278242   3.809   5.036  14.529 -0.8546  1.3470 -1.0324
18943TIP3   OH278243   3.436   6.073   3.054 -0.7202  0.2943 -0.1929
18943TIP3    H178244   3.463   6.122   2.977 -0.1199 -1.5124 -1.1653
18943TIP3    H278245   3.506   6.008   3.067 -1.9691 -0.9530  0.4548
18944TIP3   OH278246   4.378   1.346   3.740  0.0347  0.0083  0.1530
18944TIP3    H178247   4.467   1.315   3.756  1.3914  2.7197 -1.7867
18944TIP3    H278248   4.369   1.423   3.796  0.2648  1.9169 -2.3440
18945TIP3   OH278249   5.999   4.388  13.715 -0.8139  0.2055 -0.0406
18945TIP3    H178250   5.911   4.355  13.699  0.9396 -3.5518 -2.7955
18945TIP3    H278251   6.031   4.415  13.629  0.6828  1.7947  0.9606
18946TIP3   OH278252   1.442   2.934  15.093 -0.7927  0.2978  0.0132
18946TIP3    H178253   1.444   2.905  15.185  2.4075  0.7874  0.1337
18946TIP3    H278254   1.384   2.872  15.050  0.7147 -2.2752  1.6035
18947TIP3   OH278255   0.985   2.777   3.673  0.5750 -0.2297  0.0136
18947TIP3    H178256   0.893   2.782   3.648  0.3060 -0.4349  0.9264
18947TIP3    H278257   0.988   2.816   3.760  1.4982  0.5673 -0.3725
18948TIP3   OH278258   3.169   5.597   0.586 -0.6105  0.3226  0.2112
18948TIP3    H178259   3.170   5.535   0.659 -2.1861  0.5656  0.4654
18948TIP3    H278260   3.167   5.683   0.628  0.2171  0.5094 -0.1321
18949TIP3   OH278261   4.053   0.555  13.377  0.2266 -0.4954 -0.0297
18949TIP3    H178262   3.964   0.590  13.385  1.0322  1.4365  0.9226
18949TIP3    H278263   4.068   0.549  13.283 -0.7580 -0.4441 -0.1965
18950TIP3   OH278264   6.704   3.230   2.381 -0.5583 -0.1215 -0.0661
18950TIP3    H178265   6.660   3.302   2.426  0.1712  0.2236  0.1020
18950TIP3    H278266   6.636   3.191   2.326 -0.6523  1.5209 -1.1475
18951TIP3   OH278267   0.309   1.592  12.944  0.6093  0.2091  0.8947
18951TIP3    H178268   0.268   1.519  12.991  0.6401 -0.1429  0.3835
18951TIP3    H278269   0.308   1.565  12.852 -1.8318  2.0014  0.3347
18952TIP3   OH278270   6.486   3.833   1.856  0.4322 -0.5826 -0.0463
18952TIP3    H178271   6.500   3.893   1.782 -1.3160  1.2865  1.0746
18952TIP3    H278272   6.559   3.851   1.915  0.3831 -0.1445 -0.1136
18953TIP3   OH278273   0.024   3.833  14.734  0.4580 -0.0412  0.4156
18953TIP3    H178274   0.106   3.882  14.727  0.3007  0.1732  0.0873
18953TIP3    H278275   0.037   3.776  14.810  0.6325  0.5231  0.8167
18954TIP3   OH278276   6.387   3.401   3.905  0.7768  0.3885 -0.2524
18954TIP3    H178277   6.353   3.489   3.922  0.6917  0.1514  0.8462
18954TIP3    H278278   6.482   3.409   3.916  0.7150  0.2193  0.4058
18955TIP3   OH278279   5.514   6.294   1.345 -0.2385  0.1003  0.1531
18955TIP3    H178280   5.513   6.237   1.268 -0.7031 -0.0563  0.2746
18955TIP3    H278281   5.597   6.274   1.388 -0.0688  0.0417 -0.1939
18956TIP3   OH278282   5.531   1.842   1.781  0.3623  0.2088 -0.3106
18956TIP3    H178283   5.551   1.797   1.863  0.1140  1.1386  0.2660
18956TIP3    H278284   5.436   1.857   1.785  0.6580  2.0056  0.1226
18957TIP3   OH278285   1.983   4.138   3.804 -0.1526  0.1727  0.6116
18957TIP3    H178286   1.996   4.049   3.836  1.4487 -0.0799 -0.7109
18957TIP3    H278287   1.905   4.132   3.749  0.2726 -0.5220  0.0819
18958TIP3   OH278288   6.174   5.733  13.923 -0.2575  0.2730  0.0671
18958TIP3    H178289   6.130   5.817  13.933 -0.3764  0.3595 -1.0520
18958TIP3    H278290   6.180   5.697  14.011 -1.5851  0.7603  0.3530
18959TIP3   OH278291   6.561   3.595  13.598  0.1761 -0.2878  0.0822
18959TIP3    H178292   6.592   3.513  13.637  0.7528 -1.0243 -1.8505
18959TIP3    H278293   6.615   3.606  13.520 -0.0464  1.8383  0.2099
18960TIP3   OH278294   3.320   5.142  11.868  0.2451  0.5631  0.3269
18960TIP3    H178295   3.401   5.106  11.905 -0.2922 -1.1754 -0.1786
18960TIP3    H278296   3.345   5.168  11.779  0.3112  0.2914  0.2658
18961TIP3   OH278297   4.992   4.618   1.892 -0.2171  0.2633 -0.4632
18961TIP3    H178298   4.962   4.605   1.802  1.7970  0.8494 -1.2493
18961TIP3    H278299   5.088   4.609   1.887 -0.0377  0.8279  1.5178
18962TIP3   OH278300   6.650   3.613  16.164 -0.2647 -0.8337  0.1937
18962TIP3    H178301   6.652   3.580  16.074 -2.6682 -0.0122 -0.1940
18962TIP3    H278302   6.569   3.579  16.200  0.0453 -0.0651  1.6478
18963TIP3   OH278303   2.528   3.529   2.200  0.1222  0.8300 -0.1907
18963TIP3    H178304   2.615   3.560   2.227 -0.1521  1.2810  0.1881
18963TIP3    H278305   2.530   3.435   2.217  0.3276  0.9369  0.3982
18964TIP3   OH278306   3.503   1.639   5.745 -0.3212 -0.0867  0.0403
18964TIP3    H178307   3.430   1.602   5.695 -0.5336  0.6900 -0.2322
18964TIP3    H278308   3.488   1.611   5.835 -2.5612  2.4685  0.5281
18965TIP3   OH278309   0.461   4.386   1.353  0.4715 -0.3638  0.3072
18965TIP3    H178310   0.549   4.415   1.376 -0.3349  2.0853  0.4833
18965TIP3    H278311   0.440   4.434   1.272 -0.2028 -1.9232 -0.4646
18966TIP3   OH278312   2.258   0.799  14.992 -0.0008 -0.4699 -0.6678
18966TIP3    H178313   2.180   0.744  14.987 -1.9614  1.9603  1.4682
18966TIP3    H278314   2.295   0.779  15.078 -0.8849  1.6841  0.2402
18967TIP3   OH278315   3.014   5.566  14.089  0.2501  0.3381 -0.7336
18967TIP3    H178316   3.015   5.494  14.026  0.9025  0.6108 -1.0465
18967TIP3    H278317   2.932   5.612  14.072 -0.7630 -1.0612  0.3116
18968TIP3   OH278318   4.513   1.481  16.779 -0.0812 -0.4781 -0.8510
18968TIP3    H178319   4.530   1.564  16.734 -2.8408  0.2785 -0.6136
18968TIP3    H278320   4.567   1.484  16.858 -3.1823  3.0209  1.2912
18969TIP3   OH278321   5.744   6.516   6.279 -0.7288  0.1155  0.2072
18969TIP3    H178322   5.770   6.608   6.285  0.4645 -0.2292  0.5176
18969TIP3    H278323   5.745   6.484   6.369 -0.7022 -0.3155  0.0585
18970TIP3   OH278324   1.596   2.863   0.679  0.2410 -0.0900 -0.1523
18970TIP3    H178325   1.611   2.908   0.762  0.9397 -2.1026  0.8364
18970TIP3    H278326   1.524   2.803   0.697  0.1317 -0.2570 -1.1208
18971TIP3   OH278327   4.395   3.188  11.597  0.0244 -0.3964 -0.4697
18971TIP3    H178328   4.444   3.179  11.679 -0.4991 -1.5089 -0.2561
18971TIP3    H278329   4.456   3.161  11.529  0.3197  0.0894 -0.3932
18972TIP3   OH278330   2.391   5.330   2.179 -0.1015 -0.1238 -0.3027
18972TIP3    H178331   2.418   5.407   2.229  2.3611  0.0855 -1.8746
18972TIP3    H278332   2.434   5.256   2.222  2.5162  0.1218 -2.3385
18973TIP3   OH278333   0.620   6.661   2.132 -0.4648  0.8423  0.2511
18973TIP3    H178334   0.671   6.585   2.160 -1.8258 -0.2339 -0.1065
18973TIP3    H278335   0.626   6.660   2.036 -0.0037  1.5321  0.2709
18974TIP3   OH278336   1.216   3.891   0.517 -0.2267 -0.0842 -0.0641
18974TIP3    H178337   1.266   3.816   0.550  0.5153  0.6948  0.6008
18974TIP3    H278338   1.159   3.854   0.449  0.7628 -1.1009 -0.3563
18975TIP3   OH278339   2.827   6.533   2.029  0.0790 -0.6165 -0.2005
18975TIP3    H178340   2.833   6.613   2.081 -0.5362 -0.7944  0.1530
18975TIP3    H278341   2.918   6.507   2.015  0.2814  0.2651 -0.5144
18976TIP3   OH278342   4.057   6.417   0.342 -0.5117 -0.1798  0.5162
18976TIP3    H178343   4.118   6.374   0.402 -1.1549  0.2090  1.4536
18976TIP3    H278344   4.044   6.503   0.380 -1.1925 -0.0554 -0.0075
18977TIP3   OH278345   1.254   4.774  14.049 -0.7617 -0.4074  0.1860
18977TIP3    H178346   1.171   4.797  14.091 -0.4124  0.4866  0.4112
18977TIP3    H278347   1.304   4.730  14.118 -2.0057 -3.2485 -0.6697
18978TIP3   OH278348   0.688   0.254  15.311  0.5981  0.6277 -0.1981
18978TIP3    H178349   0.633   0.250  15.389  0.0828  1.1713 -0.5288
18978TIP3    H278350   0.635   0.302  15.247  1.2557  0.7132 -0.6807
18979TIP3   OH278351   6.054   6.194  10.645 -0.0794  0.8434 -0.2315
18979TIP3    H178352   6.080   6.213  10.736  2.5230 -2.7924 -0.1211
18979TIP3    H278353   6.117   6.244  10.593 -0.5782  1.6809 -0.0417
18980TIP3   OH278354   0.805   4.230   3.697 -0.0532 -0.0777 -0.0721
18980TIP3    H178355   0.870   4.163   3.678 -1.0068 -0.7495 -1.0212
18980TIP3    H278356   0.853   4.313   3.691  0.9587 -0.6267  0.3749
18981TIP3   OH278357   2.881   0.364   3.844 -0.0342  0.2434 -0.4500
18981TIP3    H178358   2.833   0.440   3.874  0.2130  0.1207  0.2544
18981TIP3    H278359   2.964   0.399   3.812  0.7202  0.1101  1.3180
18982TIP3   OH278360   0.426   5.006   5.046 -0.1304  0.1990  0.6361
18982TIP3    H178361   0.470   4.922   5.058  0.2814  0.4228  0.6828
18982TIP3    H278362   0.382   4.998   4.962  0.9654  0.4148  0.0406
18983TIP3   OH278363   6.189   1.128  11.064  0.2371  0.5370  0.5768
18983TIP3    H178364   6.233   1.046  11.042 -0.9965  0.2074 -0.7513
18983TIP3    H278365   6.210   1.188  10.993  0.8172  1.2554  1.3476
18984TIP3   OH278366   2.437   2.537  11.217  0.0578  0.0628  0.1077
18984TIP3    H178367   2.461   2.497  11.301 -0.3606 -0.4967 -0.0376
18984TIP3    H278368   2.348   2.506  11.200  0.1821  0.0814 -0.5989
18985TIP3   OH278369   1.276   2.104  11.388 -0.2365  0.0090 -0.5969
18985TIP3    H178370   1.309   2.123  11.476 -2.1246  0.3723  0.0576
18985TIP3    H278371   1.301   2.013  11.373  0.0537 -0.0780  0.3535
18986TIP3   OH278372   3.489   6.153  16.568 -0.2719  0.3333  0.5696
18986TIP3    H178373   3.468   6.237  16.609 -1.3321  0.4863 -0.2536
18986TIP3    H278374   3.432   6.150  16.491 -0.3409 -1.1969  0.6756
18987TIP3   OH278375   1.196   6.280  11.296 -0.2331  0.2566  0.2604
18987TIP3    H178376   1.227   6.268  11.206  0.0877  1.5186  0.1845
18987TIP3    H278377   1.162   6.370  11.297  1.4795  0.9234  1.8953
18988TIP3   OH278378   3.981   5.645  14.228  0.0144  0.2357 -0.1824
18988TIP3    H178379   3.979   5.647  14.132 -0.1440  0.9838 -0.1682
18988TIP3    H278380   3.953   5.557  14.251  0.2049  0.0011 -0.8293
18989TIP3   OH278381   1.647   6.420   0.897  0.0056  0.2387 -0.3327
18989TIP3    H178382   1.578   6.370   0.853 -0.0142 -0.5350  0.5663
18989TIP3    H278383   1.601   6.469   0.965  0.4429 -0.8990  0.7949
18990TIP3   OH278384   4.041   6.598  12.953 -0.2458 -0.3335 -0.1651
18990TIP3    H178385   3.966   6.548  12.983 -0.6955  0.1444 -0.4955
18990TIP3    H278386   4.026   6.687  12.984 -0.2517 -0.0396 -0.9827
18991TIP3   OH278387   0.698   3.606   3.528  0.1931  0.6840 -0.0606
18991TIP3    H178388   0.644   3.533   3.560 -0.1933  1.0822  0.2016
18991TIP3    H278389   0.788   3.574   3.535  0.0088  0.0943 -0.2975
18992TIP3   OH278390   0.819   1.021  13.562  0.6237 -0.2449  0.1900
18992TIP3    H178391   0.764   1.066  13.497  2.0034  0.7829 -0.2922
18992TIP3    H278392   0.781   1.046  13.646  0.6095  0.8152 -0.1204
18993TIP3   OH278393   4.426   2.113   0.719  0.5346 -0.2912  0.2905
18993TIP3    H178394   4.349   2.071   0.758  1.9423 -2.1220  1.1982
18993TIP3    H278395   4.396   2.202   0.697 -2.1400 -1.3162 -0.4469
18994TIP3   OH278396   2.326   2.226  11.728 -0.3897 -0.3742  0.3928
18994TIP3    H178397   2.378   2.210  11.649 -0.3203 -1.4648  0.6546
18994TIP3    H278398   2.268   2.299  11.704  0.7272  0.3449 -0.1418
18995TIP3   OH278399   5.578   4.362  12.085 -0.8699  0.0835  0.0142
18995TIP3    H178400   5.575   4.425  12.158 -1.1958 -0.9447  0.9119
18995TIP3    H278401   5.670   4.341  12.076 -0.8692 -0.1001  0.4152
18996TIP3   OH278402   0.466   1.395  16.548 -0.3917 -0.6029 -0.0681
18996TIP3    H178403   0.546   1.412  16.499 -0.3359 -2.1648 -0.5408
18996TIP3    H278404   0.495   1.350  16.627 -0.6330  0.5841  0.7264
18997TIP3   OH278405   5.936   0.444  16.872 -0.0053  0.5942 -0.4329
18997TIP3    H178406   5.929   0.537  16.851 -0.9875  0.6064 -0.0899
18997TIP3    H278407   5.905   0.399  16.793 -3.3264  0.6352  0.7442
18998TIP3   OH278408   6.305   4.731   2.391  0.2764  0.4751 -0.0407
18998TIP3    H178409   6.378   4.687   2.434 -0.6089  0.7545  1.7846
18998TIP3    H278410   6.249   4.761   2.463 -1.3837  0.6995 -1.3969
18999TIP3   OH278411   2.646   0.374   0.390 -0.2140 -0.0142 -0.4282
18999TIP3    H178412   2.561   0.417   0.381  0.0827  0.3232 -1.6637
18999TIP3    H278413   2.648   0.309   0.319 -0.3184 -1.5120  0.9147
19000TIP3   OH278414   6.279   4.879   1.683 -0.9782 -0.0087  0.0096
19000TIP3    H178415   6.234   4.823   1.747  0.8702 -0.2229  1.1466
19000TIP3    H278416   6.245   4.851   1.598 -1.8870 -1.1605  0.7348
19001TIP3   OH278417   0.528   1.352   5.650 -0.2315 -0.4895  0.7314
19001TIP3    H178418   0.557   1.264   5.675 -2.5996 -1.4279  0.2651
19001TIP3    H278419   0.443   1.362   5.693 -1.1567  0.5682 -1.2974
19002TIP3   OH278420   5.648   2.291   1.040 -0.4555  0.3999 -0.5761
19002TIP3    H178421   5.676   2.243   1.118  0.7929  0.9986 -0.6485
19002TIP3    H278422   5.556   2.312   1.057  0.0864  1.4495  1.2159
19003TIP3   OH278423   6.149   3.213   3.395  0.3478 -0.9996 -0.2438
19003TIP3    H178424   6.125   3.269   3.468 -1.8432  0.7240 -2.2347
19003TIP3    H278425   6.223   3.257   3.354 -0.5568 -0.2104 -1.0423
19004TIP3   OH278426   0.715   4.694  16.461  0.4686  0.2823 -0.4998
19004TIP3    H178427   0.785   4.634  16.487 -1.7649 -2.0759  0.2185
19004TIP3    H278428   0.732   4.713  16.369  0.1213 -3.0658 -1.3102
19005TIP3   OH278429   2.469   5.509   2.367 -0.3824 -0.3089  0.3021
19005TIP3    H178430   2.409   5.583   2.369  1.3276  1.1091  0.7480
19005TIP3    H278431   2.507   5.506   2.455 -0.8822 -2.1164  0.4859
19006TIP3   OH278432   4.455   0.334   2.908  0.0255  0.6988 -0.3211
19006TIP3    H178433   4.420   0.256   2.864 -0.4860  2.0783 -2.4748
19006TIP3    H278434   4.523   0.366   2.849  0.1173  1.9560  0.4458
19007TIP3   OH278435   0.371   1.202  14.439  0.5815 -0.8799  0.0683
19007TIP3    H178436   0.417   1.172  14.361 -0.9598 -0.1169 -1.1791
19007TIP3    H278437   0.384   1.133  14.504  2.2360 -1.3295 -0.7190
19008TIP3   OH278438   4.357   5.132   1.263 -0.5196 -0.4412 -0.4943
19008TIP3    H178439   4.325   5.113   1.351 -3.7197  0.4605 -1.4172
19008TIP3    H278440   4.345   5.227   1.252  0.8245 -0.3673 -1.5341
19009TIP3   OH278441   6.556   6.461   1.072  0.2643 -0.4247  0.2719
19009TIP3    H178442   6.497   6.419   1.010  1.9106 -0.3558 -1.3875
19009TIP3    H278443   6.622   6.504   1.017  1.0793  0.6339  2.0417
19010TIP3   OH278444   2.102   2.747   5.169 -0.0584  0.3168 -0.1846
19010TIP3    H178445   2.103   2.760   5.074  0.6535 -0.0245 -0.2234
19010TIP3    H278446   2.015   2.710   5.186 -0.6676  1.5277 -0.5405
19011TIP3   OH278447   3.644   5.231   2.661 -0.1759  0.3929 -0.1937
19011TIP3    H178448   3.678   5.194   2.580  1.6337  1.3501  0.1002
19011TIP3    H278449   3.698   5.308   2.677 -0.2403  0.0077  2.1213
19012TIP3   OH278450   1.282   4.691   2.104  0.5709  0.3028  0.3359
19012TIP3    H178451   1.232   4.772   2.111 -0.6018 -0.4738  1.1192
19012TIP3    H278452   1.373   4.718   2.112  0.3830  1.8715 -2.1991
19013TIP3   OH278453   4.897   3.935   3.146  0.2936  1.0275 -0.4367
19013TIP3    H178454   4.816   3.890   3.172  0.0441  0.7211 -1.7337
19013TIP3    H278455   4.890   4.022   3.186 -0.5843  0.9356 -0.3838
19014TIP3   OH278456   5.617   6.224   5.854  0.1467  0.6132 -0.1227
19014TIP3    H178457   5.577   6.221   5.941  0.9694  2.0304  0.3291
19014TIP3    H278458   5.669   6.144   5.849 -0.2856  0.2892  0.4985
19015TIP3   OH278459   0.658   1.484  14.018  0.4331  0.7612  0.1211
19015TIP3    H178460   0.566   1.505  14.001  0.1275  0.2746  1.1828
19015TIP3    H278461   0.659   1.389  14.029  0.7052  0.9900  2.2822
19016TIP3   OH278462   3.630   6.107   1.748 -0.1395 -0.5275  0.8060
19016TIP3    H178463   3.641   6.012   1.740 -2.0739 -0.7173  0.2552
19016TIP3    H278464   3.704   6.143   1.701 -0.5770 -1.7627 -0.8657
19017TIP3   OH278465   4.828   1.454   1.778  0.2761  0.5574  0.1355
19017TIP3    H178466   4.754   1.504   1.744  0.3307  0.1714 -0.5603
19017TIP3    H278467   4.831   1.376   1.723 -0.1220 -0.4535  1.5346
19018TIP3   OH278468   1.262   1.043   4.631  0.0007  0.8211 -0.0265
19018TIP3    H178469   1.316   1.027   4.554 -0.7089  0.7986 -0.5197
19018TIP3    H278470   1.184   1.086   4.597 -0.1251  1.1966  0.7338
19019TIP3   OH278471   1.038   2.960   6.368 -0.2338 -0.4824 -0.3685
19019TIP3    H178472   0.974   2.908   6.319  0.8353 -1.7733 -0.4166
19019TIP3    H278473   1.107   2.898   6.391  0.4275  0.6354  0.7196
19020TIP3   OH278474   1.287   6.179   1.415 -0.1025  0.0276  0.1459
19020TIP3    H178475   1.214   6.189   1.477 -2.6975 -0.0540 -2.7452
19020TIP3    H278476   1.271   6.094   1.373  2.6253 -0.7576  0.6069
19021TIP3   OH278477   2.756   0.546  16.912  0.4274 -0.1840  0.1961
19021TIP3    H178478   2.780   0.610  16.845 -1.1032  0.6835  0.4605
19021TIP3    H278479   2.675   0.580  16.950 -0.4976 -2.3312  0.2439
19022TIP3   OH278480   5.742   3.889  11.595  0.2135  0.2118  0.0515
19022TIP3    H178481   5.683   3.963  11.593 -0.3026 -0.1545  1.1752
19022TIP3    H278482   5.731   3.851  11.682  0.2252 -1.3801 -0.6113
19023TIP3   OH278483   4.768   2.962  10.791 -0.3719  0.6816 -0.5137
19023TIP3    H178484   4.855   2.985  10.759 -0.4632  0.4667 -0.9129
19023TIP3    H278485   4.709   2.985  10.719 -0.7171  1.4602  0.0119
19024TIP3   OH278486   6.116   0.628  13.279 -0.2386  0.1179  0.1713
19024TIP3    H178487   6.091   0.538  13.258 -0.5654  0.3202 -0.3402
19024TIP3    H278488   6.167   0.657  13.203 -0.2376  0.4018  0.2796
19025TIP3   OH278489   4.230   5.897   5.751  0.2822 -0.6408  0.0529
19025TIP3    H178490   4.142   5.874   5.781 -0.3338 -0.1856 -1.4128
19025TIP3    H278491   4.288   5.856   5.816 -0.9606 -2.0145  0.3222
19026TIP3   OH278492   3.557   1.425   0.468 -0.0952 -0.4565 -0.4056
19026TIP3    H178493   3.588   1.421   0.377  1.2309 -2.6145  0.0937
19026TIP3    H278494   3.463   1.439   0.461  0.0410 -0.2972 -2.1148
19027TIP3   OH278495   3.421   2.832  14.702 -0.5368  0.3863 -0.5931
19027TIP3    H178496   3.467   2.908  14.739  1.1262 -0.9175  0.0718
19027TIP3    H278497   3.329   2.848  14.720 -0.0946  1.6994  0.5620
19028TIP3   OH278498   1.342   2.648  11.654 -0.0643  0.2633  0.1571
19028TIP3    H178499   1.431   2.677  11.676 -0.2441  0.6151  0.4337
19028TIP3    H278500   1.288   2.726  11.669 -0.5571 -0.2236  0.9366
19029TIP3   OH278501   4.300   1.314  12.467  0.2495 -0.2930 -0.4924
19029TIP3    H178502   4.368   1.344  12.527 -1.3666  2.3578  0.1025
19029TIP3    H278503   4.315   1.365  12.387 -0.7452 -0.0470 -0.5216
19030TIP3   OH278504   3.807   0.249  15.000  0.0615  0.2829  0.0200
19030TIP3    H178505   3.833   0.172  14.950 -1.2834  0.3968 -0.8750
19030TIP3    H278506   3.752   0.215  15.070 -0.9615  0.4639 -0.6827
19031TIP3   OH278507   5.548   6.675  14.116 -0.6361  0.1817  0.0411
19031TIP3    H178508   5.624   6.653  14.170 -1.3462 -1.4252  0.4344
19031TIP3    H278509   5.490   6.724  14.175 -0.9766 -0.7267  0.4817
19032TIP3   OH278510   6.293   4.282  16.251  0.4062 -0.1218  0.2304
19032TIP3    H178511   6.226   4.333  16.296  1.8789 -0.4736  2.9515
19032TIP3    H278512   6.259   4.269  16.163 -1.4899  2.7128  0.4884
19033TIP3   OH278513   0.239   0.936  17.012 -0.1313 -0.2037 -0.2373
19033TIP3    H178514   0.271   0.998  16.947 -0.6064  2.0596  1.6517
19033TIP3    H278515   0.266   0.972  17.096 -3.0116 -0.9754  1.0930
19034TIP3   OH278516   3.510   5.591  12.285  0.1801 -0.8438  0.1572
19034TIP3    H178517   3.435   5.538  12.260 -0.3163 -0.1356  0.1158
19034TIP3    H278518   3.472   5.663  12.337  0.7582 -0.1792 -0.3329
19035TIP3   OH278519   4.634   4.548   5.656 -0.2983 -0.2007  0.5153
19035TIP3    H178520   4.659   4.639   5.641 -0.5275 -0.0585  0.9813
19035TIP3    H278521   4.697   4.516   5.720 -1.5819  0.3091  2.0813
19036TIP3   OH278522   5.581   6.471  13.278  0.6644  0.2973 -0.0120
19036TIP3    H178523   5.511   6.443  13.337 -1.3706  2.5824 -1.2704
19036TIP3    H278524   5.590   6.565  13.293  1.0346  0.6716 -2.3534
19037TIP3   OH278525   6.514   2.029   2.345  0.3115  0.4679 -0.2063
19037TIP3    H178526   6.510   2.039   2.250  0.7421  0.2185 -0.2513
19037TIP3    H278527   6.581   2.091   2.374  2.3739 -1.6168 -0.4013
19038TIP3   OH278528   5.670   1.642   3.969  0.0730  0.0737  0.4922
19038TIP3    H178529   5.713   1.701   4.030 -0.1694  1.3700 -0.5621
19038TIP3    H278530   5.620   1.700   3.911  0.1443 -1.1356 -0.8073
19039TIP3   OH278531   1.455   1.315  15.170 -0.0420 -0.1024  0.3326
19039TIP3    H178532   1.464   1.240  15.228  0.8806 -0.3922 -0.1732
19039TIP3    H278533   1.434   1.388  15.228 -2.7662 -1.0751  0.6439
19040TIP3   OH278534   3.937   2.239   0.996  0.0901 -0.2287 -0.0896
19040TIP3    H178535   4.003   2.268   0.933  2.4060 -1.6948  1.5695
19040TIP3    H278536   3.919   2.148   0.972  0.8339 -0.7346  1.1998
19041TIP3   OH278537   0.113   0.195   1.481 -0.3927  0.0271  0.0804
19041TIP3    H178538   0.200   0.181   1.442  0.1866 -0.0600  1.3824
19041TIP3    H278539   0.054   0.198   1.406  0.8770  1.1500 -0.8947
19042TIP3   OH278540   4.491   0.972  15.407 -0.0413  0.8757  0.5420
19042TIP3    H178541   4.531   0.891  15.438  0.4735  0.6189 -0.7529
19042TIP3    H278542   4.415   0.985  15.464  0.2721 -0.1423  1.2002
19043TIP3   OH278543   2.633   4.398   5.238  0.2099 -0.2395 -0.9363
19043TIP3    H178544   2.652   4.473   5.294  0.2483 -1.1942  0.3562
19043TIP3    H278545   2.684   4.326   5.277  0.7225 -0.7744 -2.5630
19044TIP3   OH278546   2.017   5.570  14.213 -0.0644  0.1651  0.5838
19044TIP3    H178547   1.928   5.548  14.241 -0.1609  0.3770  0.4470
19044TIP3    H278548   2.062   5.597  14.293 -0.2702  0.5379  0.5759
19045TIP3   OH278549   5.829   3.738  17.234  0.3200 -0.2173 -0.1094
19045TIP3    H178550   5.762   3.671  17.219  1.4803 -0.9230 -2.3905
19045TIP3    H278551   5.884   3.702  17.304 -0.7119 -0.3652  0.6296
19046TIP3   OH278552   0.838   1.215  12.496  0.2739  0.3673 -0.6334
19046TIP3    H178553   0.812   1.280  12.561  3.0907 -0.0482  1.0123
19046TIP3    H278554   0.900   1.261  12.440  1.6024 -0.6098  0.0052
19047TIP3   OH278555   1.819   0.537  13.632 -0.4067  0.9524  0.0840
19047TIP3    H178556   1.881   0.608  13.616 -0.2690  0.8703  0.2605
19047TIP3    H278557   1.759   0.571  13.698 -0.2210  0.8318  0.3145
19048TIP3   OH278558   5.887   0.432   4.513  0.2611  0.0434 -0.2646
19048TIP3    H178559   5.887   0.520   4.476 -1.0341 -0.5027 -1.6566
19048TIP3    H278560   5.891   0.445   4.608  3.1400  1.4948 -0.5598
19049TIP3   OH278561   4.049   3.795   1.838  0.4490 -0.3405 -0.1070
19049TIP3    H178562   3.975   3.835   1.884  1.7586  1.2633  0.6600
19049TIP3    H278563   4.009   3.745   1.767 -1.2269  2.3304 -1.0944
19050TIP3   OH278564   5.912   6.590  15.543  0.2323  0.6015 -0.1724
19050TIP3    H178565   5.992   6.548  15.576 -1.0948 -2.3220 -0.5078
19050TIP3    H278566   5.940   6.678  15.517  3.0849  0.0376  0.7850
19051TIP3   OH278567   5.797   1.393   4.671 -0.1959  0.3406 -0.0152
19051TIP3    H178568   5.861   1.370   4.738 -0.4580  0.1292  0.1625
19051TIP3    H278569   5.817   1.484   4.650  0.0774  0.3175  0.1364
19052TIP3   OH278570   4.343   0.275   5.078 -0.4674 -0.6310  0.0707
19052TIP3    H178571   4.261   0.269   5.127 -0.3585 -0.7985  0.2322
19052TIP3    H278572   4.377   0.362   5.098 -0.4652 -0.6682  0.2255
19053TIP3   OH278573   4.517   4.117   4.673  0.1536  0.3279 -0.5186
19053TIP3    H178574   4.589   4.180   4.683 -0.4539  0.8640  0.5772
19053TIP3    H278575   4.478   4.139   4.588  0.3970  0.9674 -0.4707
19054TIP3   OH278576   5.891   2.347   0.031 -0.2685  0.0984  0.0386
19054TIP3    H178577   5.860   2.323  -0.056  2.1046  0.8366 -1.0618
19054TIP3    H278578   5.906   2.264   0.076 -3.1730 -0.2622  0.3798
19055TIP3   OH278579   4.813   4.867  17.028 -0.1015  0.4632 -0.2193
19055TIP3    H178580   4.801   4.957  16.998 -0.1707  0.3760 -0.4544
19055TIP3    H278581   4.907   4.855  17.034 -0.1042  1.0534  1.3365
19056TIP3   OH278582   1.631   4.679  11.882 -0.1794 -0.0274 -0.3546
19056TIP3    H178583   1.614   4.761  11.929  0.0570  0.3403 -0.9064
19056TIP3    H278584   1.624   4.703  11.789 -1.3071 -0.8851 -0.5086
19057TIP3   OH278585   2.505   0.111   3.169 -0.7215 -0.1625  0.1920
19057TIP3    H178586   2.547   0.071   3.093 -0.7730 -0.0952  0.1275
19057TIP3    H278587   2.552   0.076   3.244 -0.7634 -0.3402  0.1356
19058TIP3   OH278588   3.560   1.564  16.961 -0.3565 -0.3406 -0.1932
19058TIP3    H178589   3.493   1.596  16.901 -0.6252  1.6017  1.0836
19058TIP3    H278590   3.639   1.559  16.908 -1.6851 -3.5957 -1.9694
19059TIP3   OH278591   5.210   3.374   3.142  0.4175  0.0814 -0.1896
19059TIP3    H178592   5.277   3.442   3.147  0.2664  0.3871 -2.0886
19059TIP3    H278593   5.259   3.295   3.119  0.6600 -0.5973  2.4880
19060TIP3   OH278594   5.347   0.226   3.439 -0.4611  0.2009 -0.0898
19060TIP3    H178595   5.323   0.315   3.415 -2.0750 -0.0525  0.4685
19060TIP3    H278596   5.438   0.217   3.413 -0.6767  1.5814 -1.3954
19061TIP3   OH278597   3.022   6.316   5.693 -0.5604 -0.6510  0.5346
19061TIP3    H178598   3.032   6.410   5.708 -0.0108 -0.8608  1.4894
19061TIP3    H278599   3.110   6.280   5.703 -0.7672 -1.2697  0.1608
19062TIP3   OH278600   0.468   5.591  13.115  0.4312  0.1595 -0.3763
19062TIP3    H178601   0.449   5.514  13.169  0.4825  0.0824 -0.4666
19062TIP3    H278602   0.562   5.606  13.129  0.0067  1.4543  1.2689
19063TIP3   OH278603   0.175   5.707  15.057  0.1837 -0.0888 -0.9731
19063TIP3    H178604   0.081   5.689  15.050 -0.5929  2.4240  1.7858
19063TIP3    H278605   0.193   5.766  14.984 -0.0662 -1.6728 -2.3318
19064TIP3   OH278606   5.287   0.482   1.463 -0.0888  0.1491 -0.3323
19064TIP3    H178607   5.366   0.536   1.451 -1.7267  2.5882 -0.3814
19064TIP3    H278608   5.283   0.466   1.557  0.3685  0.1164 -0.3137
19065TIP3   OH278609   4.461   5.325  13.713 -0.0379 -0.7787  0.1874
19065TIP3    H178610   4.553   5.319  13.687  0.3326 -1.0785  1.5661
19065TIP3    H278611   4.417   5.363  13.636  1.2795 -0.3041 -0.3402
19066TIP3   OH278612   6.746   5.622  13.128  0.3455  0.3445  0.2952
19066TIP3    H178613   6.681   5.615  13.058 -0.2628 -0.2187  0.9046
19066TIP3    H278614   6.831   5.615  13.083 -0.0510 -0.6466 -0.3235
19067TIP3   OH278615   1.057   1.470  15.782 -0.2048  0.0311  0.3892
19067TIP3    H178616   1.019   1.428  15.704  1.0721 -1.6456  0.6256
19067TIP3    H278617   1.003   1.548  15.796 -1.0630 -0.1649 -1.5961
19068TIP3   OH278618   5.891   5.376   4.925 -0.3960  0.7353  0.5969
19068TIP3    H178619   5.883   5.414   4.838  1.4122 -0.5524 -0.1620
19068TIP3    H278620   5.950   5.303   4.914  0.0886  0.7190  2.9793
19069TIP3   OH278621   4.315   4.795   6.763  0.1375 -0.0682  0.2823
19069TIP3    H178622   4.334   4.875   6.715 -2.6390 -0.3280 -1.2935
19069TIP3    H278623   4.309   4.823   6.854  0.3905  1.2831 -0.1046
19070TIP3   OH278624   3.929   0.231  11.663  0.3207  0.7939  0.2472
19070TIP3    H178625   3.928   0.219  11.758  0.9063  0.5315  0.2168
19070TIP3    H278626   4.009   0.188  11.633 -1.2564 -1.5843 -0.6958
19071TIP3   OH278627   5.467   2.693   3.526 -0.4688 -0.3242  0.4795
19071TIP3    H178628   5.374   2.703   3.549 -0.2254  1.7828  0.5668
19071TIP3    H278629   5.508   2.774   3.556  1.3004 -0.9962 -0.1150
19072TIP3   OH278630   5.333   6.396   0.970 -0.0271  0.0675 -0.5075
19072TIP3    H178631   5.389   6.468   0.998  0.1427 -0.8182  1.5179
19072TIP3    H278632   5.249   6.412   1.013  0.4656 -1.7255  1.1879
19073TIP3   OH278633   6.073   5.456  10.510  0.2540  0.5538  0.3865
19073TIP3    H178634   6.029   5.467  10.595 -0.5550  1.0006 -0.0856
19073TIP3    H278635   6.166   5.457  10.531  0.0522  0.2494  1.3262
19074TIP3   OH278636   6.770   5.302  16.573 -0.0427  0.8913  0.5436
19074TIP3    H178637   6.725   5.355  16.507  1.5281  3.7393  1.6769
19074TIP3    H278638   6.845   5.264  16.527 -0.0339  1.3042  0.2161
19075TIP3   OH278639   0.052   1.917  16.540 -0.1092  0.0333 -0.3398
19075TIP3    H178640   0.010   1.835  16.512 -1.5326  0.5152  0.3626
19075TIP3    H278641   0.142   1.891  16.561 -0.4574 -1.3058 -0.4300
19076TIP3   OH278642   4.524   2.661  13.916 -0.4566  0.2343 -0.3329
19076TIP3    H178643   4.462   2.612  13.862 -0.1942 -0.5727  0.0896
19076TIP3    H278644   4.483   2.746  13.928 -1.4495 -0.2639 -0.1359
19077TIP3   OH278645   4.049   5.560   0.565 -0.0340 -0.1275  0.5723
19077TIP3    H178646   4.016   5.471   0.553  0.1901 -0.3101  1.2683
19077TIP3    H278647   4.100   5.556   0.646  3.3250 -0.2760 -1.4656
19078TIP3   OH278648   4.330   4.064  16.423  0.3587 -0.1477 -0.0640
19078TIP3    H178649   4.398   4.098  16.365 -1.1608 -1.3781 -2.6327
19078TIP3    H278650   4.256   4.045  16.365 -1.2997 -1.1771  2.3143
19079TIP3   OH278651   1.706   1.091  12.057 -0.5006  0.2473 -0.3076
19079TIP3    H178652   1.794   1.126  12.045 -1.3843  2.3610 -0.8334
19079TIP3    H278653   1.709   1.005  12.016  0.8282  1.0552 -1.9933
19080TIP3   OH278654   6.394   0.648   4.518  0.2428  0.0798 -0.7811
19080TIP3    H178655   6.358   0.734   4.538 -0.6189 -0.2954 -0.6596
19080TIP3    H278656   6.480   0.648   4.559  0.3883  1.0061 -1.0825
19081TIP3   OH278657   1.384   5.373  10.416 -0.2059  0.3258 -0.4524
19081TIP3    H178658   1.386   5.451  10.472 -0.1074 -0.4666  0.6656
19081TIP3    H278659   1.474   5.342  10.415 -0.6050 -0.8971  0.7152
19082TIP3   OH278660   0.542   4.169  16.973 -0.4827  0.3250 -0.2014
19082TIP3    H178661   0.465   4.123  16.939 -0.8508  0.5254  0.3657
19082TIP3    H278662   0.599   4.099  17.007  0.1137  0.0763 -1.6692
19083TIP3   OH278663   1.855   5.711  16.034 -0.1568  0.3007  0.4694
19083TIP3    H178664   1.950   5.707  16.044 -0.1953 -1.5479  0.3021
19083TIP3    H278665   1.841   5.766  15.957  0.8828 -1.0633 -0.7420
19084TIP3   OH278666   3.481   0.281   4.736  0.6880 -0.1934  0.0437
19084TIP3    H178667   3.449   0.314   4.652  0.3157  1.2047  0.7289
19084TIP3    H278668   3.478   0.356   4.795  1.9088 -0.9132  1.0571
19085TIP3   OH278669   5.282   5.212  10.312  0.0404  0.1121  0.1222
19085TIP3    H178670   5.281   5.117  10.304 -0.6682  0.1277 -0.0161
19085TIP3    H278671   5.238   5.229  10.395 -0.4159  0.3461 -0.1668
19086TIP3   OH278672   6.702   3.175  17.025  0.2708  0.0153  0.3858
19086TIP3    H178673   6.767   3.232  17.067 -0.8716  1.8990 -0.3531
19086TIP3    H278674   6.657   3.132  17.097 -0.8052  2.2546  1.0972
19087TIP3   OH278675   4.534   2.049   5.362 -0.2283  0.5369 -0.2964
19087TIP3    H178676   4.484   2.024   5.440 -1.2426  0.3773 -1.0028
19087TIP3    H278677   4.620   2.008   5.375 -1.4691 -2.3308 -0.8536
19088TIP3   OH278678   6.625   1.162  16.017 -0.3757  0.1108 -0.0008
19088TIP3    H178679   6.572   1.108  15.958 -0.2119  1.1595 -1.1196
19088TIP3    H278680   6.690   1.202  15.961  0.7501 -0.0804  1.1524
19089TIP3   OH278681   3.299   4.590  12.379 -0.5101 -0.2210 -0.1681
19089TIP3    H178682   3.351   4.662  12.344 -0.8033 -1.3452 -3.0306
19089TIP3    H278683   3.229   4.633  12.429  0.5349  1.3917 -0.0508
19090TIP3   OH278684   5.383   2.954   1.875 -0.0775 -0.0404 -0.1537
19090TIP3    H178685   5.370   2.940   1.969  2.1461  2.3929  0.5648
19090TIP3    H278686   5.307   3.004   1.847 -0.7567 -0.7896  0.3329
19091TIP3   OH278687   4.321   5.773   3.892 -0.1732 -0.3284 -0.1276
19091TIP3    H178688   4.407   5.758   3.852 -0.6367 -0.8717 -0.9213
19091TIP3    H278689   4.295   5.859   3.861  0.5114  0.2654  0.8972
19092TIP3   OH278690   0.656   5.617   2.986  0.1867 -0.7772  0.0480
19092TIP3    H178691   0.651   5.671   3.064 -0.4047 -1.1219  0.2564
19092TIP3    H278692   0.743   5.634   2.949 -0.6041  1.5699 -0.8133
19093TIP3   OH278693   2.687   4.607  15.912 -0.1342  0.2653 -0.0486
19093TIP3    H178694   2.674   4.669  15.840  2.1269  0.4657 -0.3373
19093TIP3    H278695   2.688   4.521  15.871  0.4158  0.3242 -0.1601
19094TIP3   OH278696   3.453   1.590  12.240  0.2085  0.1827  0.1504
19094TIP3    H178697   3.460   1.597  12.145  0.5184  0.2407  0.1789
19094TIP3    H278698   3.359   1.582  12.257  0.0501  1.5569 -0.0591
19095TIP3   OH278699   5.796   3.404  15.250 -0.1447  0.1582  0.3812
19095TIP3    H178700   5.767   3.489  15.218 -2.0632 -0.3969  0.5698
19095TIP3    H278701   5.777   3.343  15.179 -0.8613 -0.4551  1.0833
19096TIP3   OH278702   6.535   4.718  15.964 -0.0760  0.5258  0.1098
19096TIP3    H178703   6.603   4.653  15.984  0.2394  0.6973 -0.4036
19096TIP3    H278704   6.514   4.703  15.872 -0.2636  0.9057  0.0903
19097TIP3   OH278705   6.607   0.865  14.383 -0.0507  0.3006 -0.1442
19097TIP3    H178706   6.624   0.865  14.288  0.5266  1.5424 -0.0539
19097TIP3    H278707   6.660   0.793  14.417  0.2801  0.2842 -0.6841
19098TIP3   OH278708   5.988   2.361   6.259  0.1716  0.0628 -0.2867
19098TIP3    H178709   6.075   2.399   6.269  0.3283 -0.4165  0.1661
19098TIP3    H278710   5.963   2.335   6.347 -0.7955  0.9866 -0.2725
19099TIP3   OH278711   0.379   6.131   1.634 -0.3696 -0.2539 -0.0594
19099TIP3    H178712   0.404   6.046   1.596  1.2925  0.0105  0.4370
19099TIP3    H278713   0.287   6.141   1.609 -0.0217 -1.2537 -1.8809
19100TIP3   OH278714   6.430   1.859   0.181  0.2488 -0.1722  0.2515
19100TIP3    H178715   6.391   1.928   0.234  0.8493  0.4339 -0.0971
19100TIP3    H278716   6.426   1.892   0.092 -0.6534 -1.1462 -0.0826
19101TIP3   OH278717   0.594   5.148  14.983  0.3771  0.0094  0.4030
19101TIP3    H178718   0.681   5.187  14.984 -0.1690  1.2337  0.3749
19101TIP3    H278719   0.556   5.172  15.068 -0.6859  1.1800 -0.3991
19102TIP3   OH278720   6.482   1.552   1.600  0.0885 -1.0156  0.3028
19102TIP3    H178721   6.516   1.531   1.687  0.0579 -1.9990  0.0856
19102TIP3    H278722   6.432   1.633   1.613 -0.2789 -1.3888  1.2849
19103TIP3   OH278723   1.598   0.525   0.282 -0.0391 -0.1947  0.2300
19103TIP3    H178724   1.627   0.616   0.290  0.5821 -0.4856  1.4355
19103TIP3    H278725   1.605   0.506   0.188  0.8745  0.6662  0.1141
19104TIP3   OH278726   4.817   1.372  10.713 -0.2164 -0.8463 -0.3194
19104TIP3    H178727   4.779   1.287  10.692 -1.4694 -0.0264 -1.3860
19104TIP3    H278728   4.890   1.382  10.652  0.8335 -1.7604  0.7468
19105TIP3   OH278729   2.088   5.279  16.914 -0.2657  0.1613  0.7068
19105TIP3    H178730   2.162   5.287  16.854 -0.5529 -0.6708  0.2310
19105TIP3    H278731   2.014   5.314  16.864 -0.5292 -0.6438  0.5233
19106TIP3   OH278732   0.649   4.150  12.375  0.2158  0.6668 -0.1424
19106TIP3    H178733   0.659   4.217  12.307  0.8580  1.1564  0.4296
19106TIP3    H278734   0.567   4.172  12.418  0.7792  1.5071  0.5049
19107TIP3   OH278735   1.318   0.521  11.488 -0.6203 -0.0479 -0.2361
19107TIP3    H178736   1.384   0.581  11.523 -2.2601  1.0968  0.9836
19107TIP3    H278737   1.369   0.453  11.443  1.3986  0.5797  1.0196
19108TIP3   OH278738   2.414   4.190   3.260  0.7326  0.3527 -0.3321
19108TIP3    H178739   2.491   4.243   3.282  1.0217 -1.3088  2.9220
19108TIP3    H278740   2.355   4.202   3.333 -0.3358 -1.7056 -0.8149
19109TIP3   OH278741   6.591   2.491  13.083  0.2618 -0.0361 -0.1145
19109TIP3    H178742   6.631   2.575  13.107  1.0477 -1.0427  2.2366
19109TIP3    H278743   6.665   2.433  13.064 -0.2001 -0.7425  0.2042
19110TIP3   OH278744   6.295   5.116  13.885 -0.7745 -0.5716 -0.2118
19110TIP3    H178745   6.235   5.051  13.921 -0.0208 -1.2942 -0.2324
19110TIP3    H278746   6.354   5.136  13.957 -0.8588 -0.0950 -0.2800
19111TIP3   OH278747   0.925   4.904  15.959  0.1269  0.3477 -0.4286
19111TIP3    H178748   0.947   4.846  15.885  1.7584 -0.1285  0.4052
19111TIP3    H278749   0.947   4.992  15.928 -0.9736  0.3748 -1.1725
19112TIP3   OH278750   5.661   0.666  14.022  0.1674 -0.4618  0.5076
19112TIP3    H178751   5.577   0.638  14.059 -1.0128 -3.4076 -4.0552
19112TIP3    H278752   5.718   0.590  14.032  1.4685  0.5695  1.0280
19113TIP3   OH278753   1.827   0.395   5.050  0.3214  0.5789 -0.3317
19113TIP3    H178754   1.748   0.437   5.018 -0.7791 -1.2144 -0.0503
19113TIP3    H278755   1.891   0.408   4.980 -0.5382  1.0997 -1.0330
19114TIP3   OH278756   6.483   3.697   2.413  0.2684  0.4502  0.1204
19114TIP3    H178757   6.424   3.712   2.487  0.0897 -1.8075  0.4852
19114TIP3    H278758   6.564   3.666   2.453  1.0979  1.7653 -0.4992
19115TIP3   OH278759   5.766   3.121  10.978 -0.0852 -0.7291 -0.1759
19115TIP3    H178760   5.759   3.206  11.022 -1.0620 -0.5358 -0.6906
19115TIP3    H278761   5.755   3.142  10.885 -3.5634 -1.7777 -0.0763
19116TIP3   OH278762   2.531   5.452   1.958 -0.0064 -0.2985  0.4171
19116TIP3    H178763   2.579   5.503   2.023  0.0238 -0.2239  0.3361
19116TIP3    H278764   2.470   5.399   2.009  0.3377 -0.5823  0.5348
19117TIP3   OH278765   0.113   1.442  13.086  0.6994  0.2149 -0.2115
19117TIP3    H178766   0.154   1.409  13.165  3.6120 -1.5657 -2.3828
19117TIP3    H278767   0.038   1.384  13.071 -1.6175  2.3166  2.7265
19118TIP3   OH278768   6.284   6.371   1.014  0.0864  0.3022  0.1931
19118TIP3    H178769   6.273   6.291   1.065 -2.4446  0.3587 -0.1925
19118TIP3    H278770   6.197   6.411   1.013  1.2701  3.0367  0.3182
19119TIP3   OH278771   0.247   3.532   3.048  0.2740 -0.4900  0.1462
19119TIP3    H178772   0.296   3.456   3.016 -0.2265 -0.9981  0.5659
19119TIP3    H278773   0.253   3.525   3.143 -1.0591 -0.8617  0.2104
19120TIP3   OH278774   2.811   2.181   1.905 -0.4999 -1.2327 -0.3492
19120TIP3    H178775   2.769   2.252   1.953 -2.7218 -1.4768 -1.8657
19120TIP3    H278776   2.809   2.107   1.966 -1.2841 -0.9447 -0.0219
19121TIP3   OH278777   5.657   0.485   2.093 -0.4253 -0.2291  0.0790
19121TIP3    H178778   5.683   0.571   2.124 -2.0687 -0.0531  1.0593
19121TIP3    H278779   5.664   0.429   2.171 -1.2467 -0.5422 -0.0654
19122TIP3   OH278780   3.024   5.575   4.681  0.0931 -0.1339  0.1117
19122TIP3    H178781   3.040   5.482   4.667 -1.0228 -0.4897  1.1279
19122TIP3    H278782   3.095   5.603   4.739  1.5514  0.1107 -1.7380
19123TIP3   OH278783   6.550   4.223   6.098  0.0234 -0.3934  0.3241
19123TIP3    H178784   6.515   4.194   6.014  1.1547  0.3864 -0.4270
19123TIP3    H278785   6.614   4.156   6.123 -0.1282 -0.4970  0.4307
19124TIP3   OH278786   2.808   0.259   2.751  0.2700  0.1475 -0.1013
19124TIP3    H178787   2.853   0.343   2.745 -0.2736  0.4605  0.1812
19124TIP3    H278788   2.716   0.282   2.762  0.3813 -0.4721  2.1944
19125TIP3   OH278789   0.621   0.310   2.426  0.1077 -0.5261  0.4847
19125TIP3    H178790   0.603   0.256   2.349 -0.0498  0.3894 -0.1241
19125TIP3    H278791   0.714   0.296   2.444  1.0023  1.8585 -1.9276
19126TIP3   OH278792   6.367   3.409   3.613  0.1597  0.3293  0.7163
19126TIP3    H178793   6.358   3.410   3.708 -0.4198 -2.7601  0.7585
19126TIP3    H278794   6.407   3.324   3.594  0.3607  0.9567 -1.7771
19127TIP3   OH278795   3.960   2.479  16.877 -0.7921  0.0961 -0.0868
19127TIP3    H178796   3.957   2.405  16.937  0.1267 -0.2072 -0.4106
19127TIP3    H278797   4.001   2.550  16.927  3.4535 -1.2301 -1.4426
19128TIP3   OH278798   1.411   4.891   2.463  0.3332 -0.6876  0.1342
19128TIP3    H178799   1.456   4.967   2.499  0.4509 -1.4147  1.5555
19128TIP3    H278800   1.318   4.909   2.479  0.1079  0.5898 -2.3640
19129TIP3   OH278801   1.440   5.185   1.492 -0.0444  0.1325  0.0483
19129TIP3    H178802   1.355   5.151   1.521  0.1571 -0.8395 -0.4631
19129TIP3    H278803   1.419   5.237   1.415 -0.3983  1.4814  1.0371
19130TIP3   OH278804   4.987   3.493   4.261 -0.6130 -0.4889  0.2924
19130TIP3    H178805   4.998   3.414   4.208 -2.3980  0.1659 -1.1215
19130TIP3    H278806   4.939   3.464   4.338 -0.5209 -0.9314  0.1858
19131TIP3   OH278807   0.861   4.439  11.982  0.0278 -0.2493  0.1730
19131TIP3    H178808   0.858   4.456  12.076 -3.3723  0.7347 -0.0738
19131TIP3    H278809   0.849   4.525  11.941  2.0788 -0.5689 -1.2010
19132TIP3   OH278810   0.166   1.014  13.871  0.5089  0.5579  0.3896
19132TIP3    H178811   0.240   0.969  13.829  0.2603  0.5138 -0.0056
19132TIP3    H278812   0.089   0.981  13.825  0.1958  0.1808  1.1825
19133TIP3   OH278813   6.350   2.733  10.926 -0.0101  0.5542 -0.6366
19133TIP3    H178814   6.282   2.667  10.938 -0.8944  1.4845 -0.5246
19133TIP3    H278815   6.377   2.756  11.015 -1.6133  2.3160 -0.5938
19134TIP3   OH278816   2.211   4.289  10.255 -0.1145  0.4269 -0.1273
19134TIP3    H178817   2.238   4.220  10.317 -0.6483  2.3162  2.3080
19134TIP3    H278818   2.116   4.286  10.255 -0.2418  2.6918  1.8978
19135TIP3   OH278819   5.054   4.880   5.426  0.0065  0.0630  0.0976
19135TIP3    H178820   5.064   4.785   5.413 -0.5597  0.0924 -0.5776
19135TIP3    H278821   5.115   4.901   5.497  1.4088 -0.5028 -0.9380
19136TIP3   OH278822   2.665   6.306   1.277  0.2507 -0.4818  0.0874
19136TIP3    H178823   2.604   6.239   1.308  0.2091  0.0105  1.0721
19136TIP3    H278824   2.706   6.340   1.356  0.9129  0.0558 -0.4766
19137TIP3   OH278825   0.179   6.108  12.432  0.5864  0.4754  0.0886
19137TIP3    H178826   0.135   6.066  12.506  0.3328  1.7783  0.6894
19137TIP3    H278827   0.111   6.164  12.393  0.9963  0.5583 -0.5131
19138TIP3   OH278828   1.877   5.016  14.177  0.2674  0.2516 -0.1085
19138TIP3    H178829   1.808   5.072  14.142 -0.0217  0.7943  1.2927
19138TIP3    H278830   1.902   4.960  14.104  0.8480  2.4786 -1.6864
19139TIP3   OH278831   1.819   4.117  11.466  0.7329  0.8949 -0.1879
19139TIP3    H178832   1.732   4.145  11.439  0.7281  1.6834  0.6116
19139TIP3    H278833   1.864   4.198  11.490  0.6721  0.2538  2.3139
19140TIP3   OH278834   3.394   6.452   1.862  0.4510 -0.1552  0.0937
19140TIP3    H178835   3.442   6.525   1.901 -2.1051  1.5795  0.1504
19140TIP3    H278836   3.351   6.490   1.785 -2.2990 -1.1286  1.0771
19141TIP3   OH278837   0.579   3.537   2.136  0.2905 -0.1390 -0.1500
19141TIP3    H178838   0.581   3.621   2.092  2.5323 -0.9184 -1.6619
19141TIP3    H278839   0.636   3.549   2.213 -1.3911  0.4181  1.0323
19142TIP3   OH278840   4.601   6.091  12.473  1.1519 -0.0148  0.0048
19142TIP3    H178841   4.511   6.088  12.504  1.3310  1.1361  0.6775
19142TIP3    H278842   4.643   6.014  12.510  0.5835 -0.2543  0.1478
19143TIP3   OH278843   6.228   0.705  14.087  0.3584 -0.1685  0.6089
19143TIP3    H178844   6.315   0.705  14.047  0.3315  0.0787  0.5483
19143TIP3    H278845   6.175   0.650  14.029  0.4388 -0.2007  0.5665
19144TIP3   OH278846   2.455   6.626   1.378 -0.6073 -0.2107 -0.1960
19144TIP3    H178847   2.503   6.698   1.338  0.2913 -0.6962  0.0096
19144TIP3    H278848   2.406   6.587   1.305  1.4674 -1.4578 -0.9805
19145TIP3   OH278849   1.459   4.625  13.420 -0.2097  0.1655 -0.8844
19145TIP3    H178850   1.388   4.682  13.450 -0.6090 -0.5132 -0.5280
19145TIP3    H278851   1.487   4.578  13.499  0.4644  0.2396 -1.0758
19146TIP3   OH278852   1.475   3.322  12.797 -0.3477  0.1579 -0.0021
19146TIP3    H178853   1.390   3.322  12.755 -0.0483 -0.7990 -0.6286
19146TIP3    H278854   1.479   3.405  12.844 -1.6236  0.2042  0.0404
19147TIP3   OH278855   4.965   0.196   0.118  0.0278 -0.3696 -0.1634
19147TIP3    H178856   4.926   0.186   0.204 -1.1411 -0.9948 -0.7562
19147TIP3    H278857   5.012   0.113   0.103  0.7791 -0.0039  0.1399
19148TIP3   OH278858   4.146   3.521  11.579  0.4403 -0.3671 -0.4130
19148TIP3    H178859   4.080   3.461  11.613  0.1783  0.3629  0.3802
19148TIP3    H278860   4.098   3.600  11.556  0.9179 -0.1127 -0.5534
19149TIP3   OH278861   2.537   2.045   4.835  0.1003 -0.0281  0.2218
19149TIP3    H178862   2.578   1.985   4.774  2.4141  0.2728  1.4222
19149TIP3    H278863   2.480   2.100   4.780  1.9666  0.1128 -1.6201
19150TIP3   OH278864   5.559   0.303  17.097  0.3266 -0.0040  0.2654
19150TIP3    H178865   5.519   0.322  17.182 -0.3843 -0.6583  0.0878
19150TIP3    H278866   5.628   0.368  17.088  1.1285 -0.6030  1.8328
19151TIP3   OH278867   4.661   1.192  12.501  1.1308  0.7247  0.3003
19151TIP3    H178868   4.752   1.168  12.487  0.5603 -1.1859 -0.3406
19151TIP3    H278869   4.642   1.257  12.434  1.9584  0.9936  0.3233
19152TIP3   OH278870   2.144   2.669   6.211 -0.3007  0.2689  1.0913
19152TIP3    H178871   2.049   2.659   6.202 -0.5266  1.4419  1.9949
19152TIP3    H278872   2.178   2.580   6.209 -1.5289 -0.2240  1.6682
19153TIP3   OH278873   4.946   2.613  17.108  0.4692 -0.7420  0.2452
19153TIP3    H178874   4.937   2.706  17.088  0.3974 -1.0140 -1.0982
19153TIP3    H278875   5.040   2.596  17.103  0.3504 -1.0601 -1.1171
19154TIP3   OH278876   0.329   0.561   0.469 -0.0198  0.0020  0.5976
19154TIP3    H178877   0.346   0.563   0.563  1.1980  2.0015  0.3709
19154TIP3    H278878   0.281   0.642   0.452  1.0450  0.3705 -0.7164
19155TIP3   OH278879   1.754   3.568   4.830 -0.1996 -0.0608 -0.0875
19155TIP3    H178880   1.765   3.661   4.812 -0.7077  0.2092  0.9471
19155TIP3    H278881   1.839   3.529   4.809 -0.1067  0.5731 -0.8999
19156TIP3   OH278882   1.247   4.108   4.049 -0.0483  0.0518  0.1625
19156TIP3    H178883   1.164   4.063   4.037 -0.6355  1.3481 -0.6730
19156TIP3    H278884   1.309   4.056   3.997 -0.5943 -0.1583 -0.2888
19157TIP3   OH278885   4.720   5.248  11.822  0.5653 -0.3716 -0.4339
19157TIP3    H178886   4.650   5.228  11.761 -1.1506 -2.2277  2.0438
19157TIP3    H278887   4.797   5.203  11.785 -0.2191 -0.7240 -1.6710
19158TIP3   OH278888   0.464   6.103   3.314  0.0594  0.3632 -0.0853
19158TIP3    H178889   0.555   6.107   3.284 -0.0749  3.2590 -0.2677
19158TIP3    H278890   0.413   6.110   3.233 -0.3354 -0.2180  0.1136
19159TIP3   OH278891   6.182   2.166   0.148 -0.5738  0.0661  0.0521
19159TIP3    H178892   6.182   2.258   0.175  1.6757  0.7126 -1.9401
19159TIP3    H278893   6.245   2.124   0.206  0.2022  0.3101 -0.6036
19160TIP3   OH278894   6.102   1.242   4.462 -0.3454  0.7742  0.2775
19160TIP3    H178895   6.177   1.290   4.427  0.5045 -0.3444  0.5273
19160TIP3    H278896   6.028   1.274   4.411  0.0219  3.0954  1.1420
19161TIP3   OH278897   5.831   1.392   2.793  0.6367 -0.7194  0.0220
19161TIP3    H178898   5.747   1.373   2.752  1.5474 -2.0323 -1.2949
19161TIP3    H278899   5.883   1.313   2.778  1.6897 -0.4096  1.9132
19162TIP3   OH278900   2.579   6.416  15.750 -0.3679  0.3406 -0.0956
19162TIP3    H178901   2.546   6.465  15.826 -1.1241  0.6153 -0.5940
19162TIP3    H278902   2.656   6.370  15.783 -1.8671 -1.1782  1.3866
19163TIP3   OH278903   1.983   5.669   2.042 -0.0103 -0.0638 -0.2249
19163TIP3    H178904   1.915   5.603   2.038 -1.1174  0.8786  2.1562
19163TIP3    H278905   1.989   5.692   2.134  0.2800  3.2062 -0.9920
19164TIP3   OH278906   1.891   0.329   5.900  0.2710 -0.1471  0.3345
19164TIP3    H178907   1.983   0.332   5.874  0.3829  1.1594  0.8486
19164TIP3    H278908   1.893   0.311   5.994  0.0501  1.2067  0.6055
19165TIP3   OH278909   5.509   3.242  10.813  0.3111  0.6127  0.2447
19165TIP3    H178910   5.547   3.298  10.746 -1.0968  2.1885  0.7258
19165TIP3    H278911   5.542   3.278  10.896  0.9886 -0.5156  0.4904
19166TIP3   OH278912   5.264   0.873   5.360 -0.1735 -0.7620  0.3173
19166TIP3    H178913   5.315   0.796   5.385  1.6599  0.7285  1.3003
19166TIP3    H278914   5.279   0.883   5.266 -0.8715 -1.9147  0.0750
19167TIP3   OH278915   3.266   3.590  12.441 -0.5469  0.7425  0.3297
19167TIP3    H178916   3.173   3.594  12.466 -0.0048  3.1777  2.0674
19167TIP3    H278917   3.268   3.623  12.351 -1.4957 -0.3821 -0.1149
19168TIP3   OH278918   6.782   4.945   5.409 -0.4185 -0.0542  0.3959
19168TIP3    H178919   6.837   4.989   5.343 -0.9390  1.9685  1.2733
19168TIP3    H278920   6.843   4.917   5.476  0.0948 -1.9522 -0.8206
19169TIP3   OH278921   2.051   3.283  16.617 -0.6238 -0.2365  0.2148
19169TIP3    H178922   2.072   3.247  16.703 -1.2178 -0.6994  0.1682
19169TIP3    H278923   1.986   3.223  16.580  0.8536 -0.9789 -1.2428
19170TIP3   OH278924   2.331   4.835  13.800 -0.1447 -0.6742 -0.2768
19170TIP3    H178925   2.297   4.924  13.807  3.8953  1.1317 -1.8407
19170TIP3    H278926   2.377   4.822  13.883  0.7660 -0.6001 -0.7651
19171TIP3   OH278927   6.634   2.571   1.228  0.1704  0.3248  0.0626
19171TIP3    H178928   6.645   2.580   1.133  3.2085 -1.0788  0.2065
19171TIP3    H278929   6.638   2.660   1.262 -0.8997  0.8325 -1.1347
19172TIP3   OH278930   2.667   2.615   1.614  0.4700 -0.0839 -0.1281
19172TIP3    H178931   2.684   2.526   1.585  0.9293  0.3661 -1.2410
19172TIP3    H278932   2.610   2.652   1.547 -1.4782 -0.2016  1.3965
19173TIP3   OH278933   6.592   3.493  14.013 -0.2153  0.4141  0.3767
19173TIP3    H178934   6.506   3.531  14.027 -0.5539 -0.0246 -0.5079
19173TIP3    H278935   6.626   3.538  13.936 -0.4344 -0.7465 -0.4077
19174TIP3   OH278936   0.549   3.724  16.078  0.0153 -0.4137  0.2234
19174TIP3    H178937   0.608   3.778  16.025  0.6632 -0.7164  0.6392
19174TIP3    H278938   0.465   3.769  16.073  0.5438  0.6121  0.5361
19175TIP3   OH278939   1.818   2.047   5.442  0.3652  0.1161  0.6178
19175TIP3    H178940   1.884   2.082   5.503 -0.6086  0.7890  1.2975
19175TIP3    H278941   1.829   2.101   5.363 -0.5913  1.4516  1.3822
19176TIP3   OH278942   2.772   3.633   2.229  0.0892 -0.6722 -0.0436
19176TIP3    H178943   2.796   3.545   2.201 -0.4548 -1.1809  1.0718
19176TIP3    H278944   2.853   3.670   2.266  0.0101 -1.1550  0.6173
19177TIP3   OH278945   4.990   2.661   0.320 -0.0091 -0.6074  0.0790
19177TIP3    H178946   4.931   2.586   0.325  0.7413 -1.1402  1.1872
19177TIP3    H278947   4.938   2.730   0.278 -0.2969 -2.1097 -2.1247
19178TIP3   OH278948   6.579   4.345  11.628 -0.0263  0.0370  0.4542
19178TIP3    H178949   6.624   4.266  11.599  0.4656  0.3486  0.3568
19178TIP3    H278950   6.519   4.366  11.557  0.6747  0.4043 -0.0309
19179TIP3   OH278951   5.038   0.487   3.643 -0.2165 -0.9334  0.2804
19179TIP3    H178952   5.002   0.411   3.688  0.7014 -1.2459  0.5024
19179TIP3    H278953   4.979   0.502   3.569 -1.3677 -0.8167  1.1994
19180TIP3   OH278954   5.063   0.116  16.171  0.1601  0.4400  0.1352
19180TIP3    H178955   5.084   0.193  16.118  0.4735  0.7505  0.7032
19180TIP3    H278956   5.092   0.139  16.259 -3.5344  1.2897  1.2152
19181TIP3   OH278957   4.110   5.387  13.365 -0.1445 -0.2539  0.0502
19181TIP3    H178958   4.015   5.389  13.382 -0.3141  1.6060 -1.0321
19181TIP3    H278959   4.120   5.326  13.293 -0.7638  1.1278 -1.2229
19182TIP3   OH278960   1.167   1.957  12.370 -0.4390 -0.0089  0.0996
19182TIP3    H178961   1.121   2.023  12.422 -1.1194 -1.0118  0.8021
19182TIP3    H278962   1.195   1.891  12.434  3.0777  1.1600 -0.1516
19183TIP3   OH278963   1.527   4.871  14.841 -0.3005 -0.2325  0.5090
19183TIP3    H178964   1.577   4.822  14.775 -0.8034 -1.3072  0.9039
19183TIP3    H278965   1.459   4.810  14.869 -1.0879  0.7913  0.8575
19184TIP3   OH278966   1.641   1.374  16.264  0.0083 -0.3818  0.6007
19184TIP3    H178967   1.616   1.383  16.172  0.6037 -1.9778  0.2719
19184TIP3    H278968   1.719   1.429  16.273  0.7007 -1.2345 -0.1599
19185TIP3   OH278969   3.789   4.865  11.981  0.3739 -0.6325  0.3022
19185TIP3    H178970   3.880   4.884  11.957  0.1740  0.3211  0.3080
19185TIP3    H278971   3.750   4.950  12.001 -1.2488 -0.7423 -2.2022
19186TIP3   OH278972   4.267   3.067  14.556  0.5222  0.5487 -0.3063
19186TIP3    H178973   4.235   3.152  14.584 -1.4757 -0.4959  0.7267
19186TIP3    H278974   4.193   3.008  14.570  1.1468 -0.9852 -2.9841
19187TIP3   OH278975   1.597   2.484   0.565  0.0182  0.3194 -0.2842
19187TIP3    H178976   1.525   2.439   0.520  0.6935  0.5490 -1.6162
19187TIP3    H278977   1.602   2.569   0.523 -0.6086  1.2915  1.5631
19188TIP3   OH278978   4.594   5.739  11.635  0.5301 -0.0798  0.0940
19188TIP3    H178979   4.577   5.803  11.565 -0.2496 -2.3986 -1.9021
19188TIP3    H278980   4.683   5.708  11.617  0.6836  0.0084  0.7046
19189TIP3   OH278981   2.538   2.920  11.957  0.2546  0.7315  0.0104
19189TIP3    H178982   2.571   2.837  11.923 -0.2297  0.8536 -0.7875
19189TIP3    H278983   2.531   2.907  12.051  0.4867 -0.0222 -0.0716
19190TIP3   OH278984   2.159   3.863   4.470 -0.3798  0.2648 -0.6299
19190TIP3    H178985   2.129   3.952   4.489 -1.4441  0.0912 -1.4487
19190TIP3    H278986   2.255   3.870   4.468 -0.4699  1.5073 -1.1913
19191TIP3   OH278987   3.054   1.182  13.122  0.2586 -0.0206  0.6067
19191TIP3    H178988   3.019   1.169  13.034  0.1482 -0.6490  0.7414
19191TIP3    H278989   3.061   1.277  13.131  0.6406  0.0338 -0.2192
19192TIP3   OH278990   3.631   5.859  15.886 -0.2133  0.2515 -0.3925
19192TIP3    H178991   3.611   5.784  15.943 -0.6188  0.2991 -0.4663
19192TIP3    H278992   3.616   5.825  15.797  0.2891  0.2148 -0.4625
19193TIP3   OH278993   6.351   5.733   4.733 -0.0733  0.3291  0.0948
19193TIP3    H178994   6.306   5.678   4.796 -0.9789 -0.1281 -0.9422
19193TIP3    H278995   6.329   5.823   4.759 -0.8749  0.1293  0.0997
19194TIP3   OH278996   5.981   2.826  16.076 -0.0523  0.1626 -0.5200
19194TIP3    H178997   5.941   2.913  16.077  0.2400  0.2878  0.8798
19194TIP3    H278998   6.000   2.806  16.168  2.2343 -0.2895 -1.0371
19195TIP3   OH278999   5.207   4.627   2.513  0.0732 -0.1037 -0.5588
19195TIP3    H179000   5.223   4.570   2.438 -0.8156 -0.1313 -0.7408
19195TIP3    H279001   5.142   4.580   2.565 -0.0397  0.3615 -0.2764
19196TIP3   OH279002   4.516   4.335  11.467 -1.0365 -0.2550  0.4200
19196TIP3    H179003   4.508   4.281  11.545  0.7642 -1.9421 -0.5290
19196TIP3    H279004   4.606   4.323  11.438 -1.0218  2.1245 -0.6465
19197TIP3   OH279005   1.430   2.599   1.816  0.4814  0.0748 -0.4906
19197TIP3    H179006   1.509   2.592   1.763 -0.3461 -0.1431 -1.7308
19197TIP3    H279007   1.361   2.562   1.760 -0.9598  2.6481 -0.4842
19198TIP3   OH279008   4.465   0.874  16.094  0.0207  0.8197  0.0594
19198TIP3    H179009   4.454   0.779  16.099  1.4396  0.6188 -0.4724
19198TIP3    H279010   4.519   0.888  16.016 -0.7185  2.1072 -0.2280
19199TIP3   OH279011   1.260   2.265  13.434 -0.3162  0.0250  0.3028
19199TIP3    H179012   1.245   2.323  13.359  0.1276  0.9621  0.9216
19199TIP3    H279013   1.180   2.212  13.440 -0.1502 -0.3938 -1.1199
19200TIP3   OH279014   1.019   4.494  14.260  0.2155  0.0909 -0.4180
19200TIP3    H179015   0.949   4.433  14.232  0.0269 -0.2565  0.7967
19200TIP3    H279016   1.094   4.469  14.206  0.3050 -1.5979  0.4592
19201TIP3   OH279017   1.491   0.546   4.560  0.2890 -0.0197 -0.5136
19201TIP3    H179018   1.405   0.586   4.550  0.6367  0.3602 -2.1986
19201TIP3    H279019   1.536   0.600   4.624 -1.3593 -1.3252  1.8510
19202TIP3   OH279020   2.480   2.227  16.151  0.2496  0.2209 -0.3004
19202TIP3    H179021   2.526   2.151  16.115 -1.6282 -1.0238 -0.1368
19202TIP3    H279022   2.410   2.190  16.204 -1.2585  2.0687 -0.9327
19203TIP3   OH279023   3.519   1.194  14.216  0.3596 -0.1910  0.0528
19203TIP3    H179024   3.470   1.131  14.270 -1.6794 -0.0520 -1.5610
19203TIP3    H279025   3.480   1.279  14.238  0.7645  0.0895 -0.3171
19204TIP3   OH279026   2.859   0.919  14.138  0.0480 -0.0336 -0.6062
19204TIP3    H179027   2.939   0.885  14.176  0.3022 -1.7184 -2.5991
19204TIP3    H279028   2.789   0.870  14.181  0.1655  0.1482 -0.2015
19205TIP3   OH279029   4.972   4.763  13.139  0.4890  0.2561 -0.5810
19205TIP3    H179030   5.019   4.680  13.130 -0.2000 -0.0950 -0.9932
19205TIP3    H279031   4.944   4.765  13.230  0.4380  0.0009 -0.5920
19206TIP3   OH279032   5.450   4.908   4.015 -0.6111  0.0737  0.4315
19206TIP3    H179033   5.498   4.863   3.946 -1.1594  0.4367 -0.1866
19206TIP3    H279034   5.359   4.909   3.986 -1.0197 -0.6832  1.6394
19207TIP3   OH279035   2.659   0.771  13.429 -0.8874 -0.3108  0.0826
19207TIP3    H179036   2.633   0.833  13.498  2.1125 -0.8704  1.8441
19207TIP3    H279037   2.629   0.686  13.461 -3.2892 -0.0757 -1.4155
19208TIP3   OH279038   2.731   3.086   3.509  0.0241  0.1175 -0.5128
19208TIP3    H179039   2.638   3.080   3.530 -0.0966  0.2836 -0.9799
19208TIP3    H279040   2.773   3.111   3.591 -0.3074 -0.2296 -0.2336
19209TIP3   OH279041   6.262   5.006   4.805  0.1556 -0.2126 -0.6788
19209TIP3    H179042   6.235   4.952   4.730 -1.5002 -0.4195  0.0452
19209TIP3    H279043   6.334   4.958   4.845 -0.4686 -1.2493 -0.7896
19210TIP3   OH279044   6.695   6.414   1.297 -0.3795 -0.2621 -0.7933
19210TIP3    H179045   6.659   6.416   1.209  0.2119  1.3353 -1.0150
19210TIP3    H279046   6.619   6.414   1.354 -0.7617 -1.0457 -1.2969
19211TIP3   OH279047   0.180   1.115   3.686 -0.2612  0.4697  0.0045
19211TIP3    H179048   0.170   1.199   3.730 -0.3858 -0.1757  1.2378
19211TIP3    H279049   0.244   1.068   3.739 -0.2614 -0.2442 -0.6246
19212TIP3   OH279050   4.155   4.987  13.732  0.5679  0.0154  0.4507
19212TIP3    H179051   4.248   4.968  13.743  0.6761  0.1173 -0.2733
19212TIP3    H279052   4.110   4.915  13.777  0.9963  0.3798  1.4723
19213TIP3   OH279053   2.707   2.367   4.688 -0.0280  0.6157 -0.2545
19213TIP3    H179054   2.705   2.450   4.736  0.6631 -0.1942  1.2118
19213TIP3    H279055   2.762   2.310   4.742 -0.8308 -0.9184 -1.0309
19214TIP3   OH279056   3.960   5.722  10.842 -0.2456 -0.1081 -0.5383
19214TIP3    H179057   3.924   5.794  10.894  0.6754  0.2242 -0.3572
19214TIP3    H279058   3.950   5.645  10.898 -0.6530 -0.0169 -0.4823
19215TIP3   OH279059   3.588   2.768   1.698  0.2310  0.4800 -0.1389
19215TIP3    H179060   3.498   2.769   1.733 -0.4155 -0.1005 -1.7294
19215TIP3    H279061   3.601   2.857   1.664  0.0476  0.3962 -0.4290
19216TIP3   OH279062   2.862   5.889  11.187 -0.0714 -0.0134 -0.1362
19216TIP3    H179063   2.922   5.902  11.114  0.2463  1.6172  0.3991
19216TIP3    H279064   2.776   5.879  11.146 -0.0263  1.7528 -0.7124
19217TIP3   OH279065   4.072   4.337   5.679 -0.3861  0.2194 -0.2441
19217TIP3    H179066   4.037   4.406   5.734  0.1106 -0.6538  1.2093
19217TIP3    H279067   4.118   4.382   5.609 -0.0230  1.3612  0.7211
19218TIP3   OH279068   0.948   1.717  16.685 -0.0898  0.5632 -0.7675
19218TIP3    H179069   0.872   1.693  16.632 -0.9549 -0.5405  0.9034
19218TIP3    H279070   1.003   1.639  16.685  0.1929  0.7630 -0.5359
19219TIP3   OH279071   1.375   2.415  13.894  0.4956 -0.2926  0.0971
19219TIP3    H179072   1.460   2.430  13.852  0.4764  1.5792  0.6924
19219TIP3    H279073   1.312   2.452  13.833  0.0001 -2.5082 -0.7809
19220TIP3   OH279074   5.342   4.472   0.128  0.3682  0.0238 -0.1699
19220TIP3    H179075   5.395   4.548   0.101 -1.1082  1.0650 -0.1744
19220TIP3    H279076   5.290   4.450   0.051 -0.6115  0.2178  0.4277
19221TIP3   OH279077   5.765   2.821   2.912  0.5891 -0.3444 -0.4204
19221TIP3    H179078   5.794   2.751   2.854 -1.7152 -0.7605 -1.1421
19221TIP3    H279079   5.700   2.869   2.861  0.4960  0.9435  0.8625
19222TIP3   OH279080   4.696   5.142  15.668  0.5965  0.4965 -0.7835
19222TIP3    H179081   4.622   5.082  15.657  0.2072  0.8599 -0.1503
19222TIP3    H279082   4.771   5.084  15.684 -0.2732  0.2116  2.7669
19223TIP3   OH279083   3.438   2.523  16.647  0.5513 -0.1928 -0.3918
19223TIP3    H179084   3.466   2.505  16.557  0.3219  1.7003 -0.8841
19223TIP3    H279085   3.359   2.577  16.637  0.7728  0.4104  0.9326
19224TIP3   OH279086   4.671   4.630  14.619 -0.3143  1.1804 -0.8550
19224TIP3    H179087   4.701   4.598  14.534 -0.5290  1.1790 -0.9298
19224TIP3    H279088   4.731   4.702  14.640  1.6490 -0.7304  0.3934
19225TIP3   OH279089   6.251   3.294   5.851  0.5278 -0.5545 -0.8961
19225TIP3    H179090   6.286   3.217   5.806 -2.6631 -0.5742 -3.5088
19225TIP3    H279091   6.197   3.339   5.785 -1.5060  1.3265  1.9090
19226TIP3   OH279092   3.201   4.210   3.169  0.7680  0.5850  0.0596
19226TIP3    H179093   3.281   4.229   3.120 -0.5655  1.5488 -1.7633
19226TIP3    H279094   3.146   4.287   3.158 -0.7576 -0.3917  0.6158
19227TIP3   OH279095   0.549   1.971  15.597  0.0121  0.5487 -0.3184
19227TIP3    H179096   0.491   1.939  15.667  0.2275 -1.9550 -1.2185
19227TIP3    H279097   0.636   1.974  15.637 -0.3693  2.2719  0.4271
19228TIP3   OH279098   6.712   3.847   5.805  0.2428  0.3655  0.0305
19228TIP3    H179099   6.622   3.815   5.804 -0.2930  1.8152  0.4705
19228TIP3    H279100   6.705   3.937   5.772  1.3852  0.8527  1.1102
19229TIP3   OH279101   5.476   6.350   4.387 -0.4572 -0.5211 -0.2091
19229TIP3    H179102   5.403   6.405   4.417 -0.6781 -0.5302 -0.7306
19229TIP3    H279103   5.554   6.396   4.418 -0.6816 -0.5029  0.3391
19230TIP3   OH279104   5.685   2.774  15.977  0.8341 -0.1869 -0.3367
19230TIP3    H179105   5.731   2.854  15.953  0.1522  0.4958  0.6116
19230TIP3    H279106   5.613   2.803  16.032 -0.3886 -1.3003 -1.3142
19231TIP3   OH279107   6.442   6.261   4.243  0.5689 -0.1229 -0.3554
19231TIP3    H179108   6.360   6.285   4.200 -0.3255 -0.3546  1.2112
19231TIP3    H279109   6.453   6.168   4.223  0.8852  0.1065 -1.2653
19232TIP3   OH279110   2.172   3.461  16.963  0.5804  0.5240 -0.3371
19232TIP3    H179111   2.107   3.398  16.931  1.5689 -1.1336  0.8623
19232TIP3    H279112   2.250   3.408  16.980  1.4469  2.0913  0.6315
19233TIP3   OH279113   6.235   3.431  16.204 -0.3010 -0.0956  0.1307
19233TIP3    H179114   6.271   3.370  16.268  0.7687  1.8788  1.4611
19233TIP3    H279115   6.311   3.470  16.161 -0.9374  0.8190 -0.2087
19234TIP3   OH279116   0.285   4.725  12.965 -0.0532 -0.5131  0.5217
19234TIP3    H179117   0.287   4.637  12.928  0.1716 -0.7753  1.1494
19234TIP3    H279118   0.308   4.713  13.057  0.3732  0.2564  0.5180
19235TIP3   OH279119   1.758   6.509   6.489 -0.1990 -0.1353  0.0253
19235TIP3    H179120   1.812   6.458   6.550  0.2955  0.6028  0.2141
19235TIP3    H279121   1.760   6.460   6.407  0.2827 -0.4106  0.2026
19236TIP3   OH279122   2.297   2.867  12.589  0.6531 -0.3417  0.0759
19236TIP3    H179123   2.277   2.785  12.544 -0.8674 -1.1693  2.1607
19236TIP3    H279124   2.369   2.845  12.648  2.4554  0.6647 -1.7167
19237TIP3   OH279125   6.096   2.604  12.626 -0.2153 -0.0867  0.7430
19237TIP3    H179126   6.188   2.621  12.606 -0.2471 -0.4274  0.2894
19237TIP3    H279127   6.099   2.531  12.688 -0.2223 -1.0012 -0.3123
19238TIP3   OH279128   4.543   2.436  11.708 -0.7075  0.0418 -0.8246
19238TIP3    H179129   4.490   2.439  11.629 -1.8362  0.5458 -0.0589
19238TIP3    H279130   4.514   2.511  11.760 -0.1624 -0.4297  0.1922
19239TIP3   OH279131   5.012   0.794   5.439  0.0829 -0.2281  0.0548
19239TIP3    H179132   4.949   0.864   5.458 -0.9462 -1.1315 -0.0204
19239TIP3    H279133   5.097   0.836   5.448 -0.5213  0.9179  0.5078
19240TIP3   OH279134   2.531   4.070  11.507  0.0978  0.2631 -0.1950
19240TIP3    H179135   2.577   4.154  11.510 -0.6579  0.6803 -0.0295
19240TIP3    H279136   2.598   4.005  11.523  0.7992  0.8041 -0.9151
19241TIP3   OH279137   4.347   0.007   0.704 -0.5027  0.9357  0.0181
19241TIP3    H179138   4.371   0.091   0.665  1.3990  1.9393  3.2240
19241TIP3    H279139   4.251   0.009   0.709 -0.5150  2.5639 -0.6640
19242TIP3   OH279140   4.537   1.537  15.157 -0.5421 -0.3538 -1.0207
19242TIP3    H179141   4.626   1.511  15.133  0.4587 -0.4190  2.5944
19242TIP3    H279142   4.547   1.626  15.190 -1.5430 -1.0057  1.0590
19243TIP3   OH279143   1.207   5.182  14.942  0.1986 -0.4908  0.5669
19243TIP3    H179144   1.290   5.135  14.946 -0.0645 -0.8089  3.2358
19243TIP3    H279145   1.231   5.275  14.944  0.5424 -0.5646 -0.1775
19244TIP3   OH279146   4.401   5.491  14.621 -0.0441  0.1509 -0.2524
19244TIP3    H179147   4.373   5.569  14.574  0.7603  1.5371  1.4996
19244TIP3    H279148   4.328   5.470  14.680 -1.8919 -2.7519 -3.3920
19245TIP3   OH279149   2.122   4.799   5.173 -0.4525  0.2297 -0.4692
19245TIP3    H179150   2.053   4.768   5.231 -0.8791  0.3890 -0.8939
19245TIP3    H279151   2.187   4.729   5.173 -1.4202 -0.6819 -1.4364
19246TIP3   OH279152   1.190   0.697   5.395  0.0147  0.6057 -0.4434
19246TIP3    H179153   1.241   0.726   5.471 -0.2174 -0.2873  0.0715
19246TIP3    H279154   1.110   0.749   5.399 -0.1362  0.3414  0.1202
19247TIP3   OH279155   2.097   0.086  12.526  0.0124  0.3455  0.0253
19247TIP3    H179156   2.043   0.131  12.591  0.6692  1.0907  0.0589
19247TIP3    H279157   2.130   0.008  12.573 -1.1051 -0.1658 -0.0295
19248TIP3   OH279158   6.607   4.741  14.367 -0.3210 -0.2593  0.5218
19248TIP3    H179159   6.701   4.720  14.364 -0.1786  0.3443  0.6892
19248TIP3    H279160   6.566   4.664  14.405  0.0618 -0.6866  0.0773
19249TIP3   OH279161   3.029   4.372  16.751 -0.2447 -0.2149  0.0275
19249TIP3    H179162   3.076   4.310  16.808 -3.0206  0.1234  2.8323
19249TIP3    H279163   3.052   4.345  16.662  1.4896 -2.9739  1.2491
19250TIP3   OH279164   0.844   5.407   1.911 -0.0545  0.4963 -0.1341
19250TIP3    H179165   0.858   5.374   1.822  1.2034 -0.3181  0.3448
19250TIP3    H279166   0.753   5.437   1.911 -0.6119 -1.0750 -1.2087
19251TIP3   OH279167   1.570   0.609  14.200  0.0720  0.1256 -0.2453
19251TIP3    H179168   1.488   0.612  14.150  0.1463  1.1850 -0.3146
19251TIP3    H279169   1.621   0.539  14.158 -0.7989 -0.5439 -0.1968
19252TIP3   OH279170   1.918   0.180  16.289 -1.0483 -0.6321 -0.1229
19252TIP3    H179171   1.855   0.211  16.354 -1.1634  0.3814 -0.7103
19252TIP3    H279172   2.003   0.188  16.333 -1.2246 -1.0006  0.2899
19253TIP3   OH279173   3.336   0.969  11.950 -0.8559  0.4032  0.6573
19253TIP3    H179174   3.317   0.961  11.857 -0.9032  1.8152  0.5266
19253TIP3    H279175   3.424   0.932  11.960 -1.5338 -1.3306  0.3619
19254TIP3   OH279176   1.757   5.123  15.068 -0.0140 -0.1607 -0.3350
19254TIP3    H179177   1.839   5.138  15.020  1.0894 -0.3086  1.4570
19254TIP3    H279178   1.753   5.028  15.079  0.3246 -0.0443  0.8478
19255TIP3   OH279179   3.194   3.375   3.919  1.1152  0.0977  0.2929
19255TIP3    H179180   3.182   3.456   3.968  2.0778  1.2435 -1.2958
19255TIP3    H279181   3.147   3.309   3.969  1.2389  1.4180  2.1979
19256TIP3   OH279182   5.567   5.159  16.813 -0.2441  0.1640 -0.1008
19256TIP3    H179183   5.642   5.194  16.861  0.5784 -1.7616  0.0415
19256TIP3    H279184   5.491   5.183  16.867  0.4758 -0.0188  0.9942
19257TIP3   OH279185   5.773   6.547  11.222 -0.0205 -0.2840  0.2714
19257TIP3    H179186   5.842   6.597  11.179 -0.4198 -0.5739 -0.7253
19257TIP3    H279187   5.692   6.587  11.191 -0.3139 -0.4332  0.8404
19258TIP3   OH279188   6.056   5.034  11.977 -0.7950 -0.8863 -0.0991
19258TIP3    H179189   5.969   4.994  11.966 -1.6559  0.4162  1.6877
19258TIP3    H279190   6.102   5.014  11.895 -3.0457 -0.9676 -1.3955
19259TIP3   OH279191   3.950   0.133   1.797  0.2654  0.0432  0.3434
19259TIP3    H179192   4.034   0.176   1.809 -0.1265  0.8949  0.1220
19259TIP3    H279193   3.928   0.147   1.705  0.4844 -1.2982  0.0836
19260TIP3   OH279194   4.450   6.334  10.745  0.5721  0.2857 -0.1234
19260TIP3    H179195   4.371   6.300  10.787  1.4445 -0.8504  0.6220
19260TIP3    H279196   4.418   6.377  10.665 -0.7496 -0.4525 -0.0100
19261TIP3   OH279197   1.735   4.753   3.235 -0.7694 -0.2141 -0.1555
19261TIP3    H179198   1.650   4.790   3.211 -1.4608 -0.4772  1.8107
19261TIP3    H279199   1.732   4.745   3.330  1.4330 -0.3078 -0.0670
19262TIP3   OH279200   3.533   1.954  14.698 -0.4455  0.7933  0.4620
19262TIP3    H179201   3.619   1.973  14.662 -0.1831  0.3600  0.8393
19262TIP3    H279202   3.532   1.997  14.784 -1.0968  1.8923 -0.0953
19263TIP3   OH279203   0.771   6.272   5.039  0.0341  0.0220 -0.3462
19263TIP3    H179204   0.795   6.314   5.122 -1.0856 -0.1570  0.0777
19263TIP3    H279205   0.720   6.196   5.065  1.3891 -1.1841 -1.1380
19264TIP3   OH279206   6.220   4.860   2.682 -0.1733  0.4590  0.0707
19264TIP3    H179207   6.183   4.922   2.746 -3.2247 -0.1195 -1.0619
19264TIP3    H279208   6.239   4.782   2.734 -1.0191  0.5858  0.5909
19265TIP3   OH279209   1.473   3.710   0.086 -0.0882  0.4762  0.1347
19265TIP3    H179210   1.520   3.639   0.040 -0.8026  0.7242 -0.9936
19265TIP3    H279211   1.476   3.783   0.025  0.3247  1.3152  1.1560
19266TIP3   OH279212   1.608   2.454  15.415  0.0607 -0.4602 -0.0189
19266TIP3    H179213   1.703   2.445  15.426  0.4130  0.0887 -2.3882
19266TIP3    H279214   1.579   2.492  15.498  2.0327  0.1379  0.4472
19267TIP3   OH279215   5.842   5.862  12.056 -0.6824 -0.1311 -0.2206
19267TIP3    H179216   5.758   5.858  12.102 -0.5145  0.8274  0.1783
19267TIP3    H279217   5.826   5.921  11.983 -0.6703 -0.8633 -0.8179
19268TIP3   OH279218   1.060   3.037   1.434 -0.0013  0.3314 -0.0782
19268TIP3    H179219   0.985   3.012   1.380  0.2427 -0.0394 -0.2541
19268TIP3    H279220   1.134   3.034   1.373  0.1940  0.4258  0.1571
19269TIP3   OH279221   5.168   5.405  11.276  0.5109  0.8146  0.0565
19269TIP3    H179222   5.159   5.312  11.257  1.0638  0.9883 -1.1029
19269TIP3    H279223   5.243   5.411  11.335  0.7671  0.5566 -0.2392
19270TIP3   OH279224   1.154   0.745  12.371  0.1744 -0.0845 -0.3929
19270TIP3    H179225   1.223   0.777  12.429  2.1417 -0.8272 -2.2684
19270TIP3    H279226   1.185   0.765  12.283 -1.5587 -1.3209 -1.3235
19271TIP3   OH279227   2.073   2.261  13.440 -0.1609 -0.1530  0.0417
19271TIP3    H179228   2.110   2.350  13.439 -0.7416  0.0853 -0.3073
19271TIP3    H279229   2.089   2.227  13.352 -0.9752  0.0371 -0.1835
19272TIP3   OH279230   2.117   5.946  15.150  0.5329  0.1642  0.0378
19272TIP3    H179231   2.062   5.996  15.211  0.6703  0.7518 -0.3207
19272TIP3    H279232   2.205   5.982  15.163  0.3947  0.9634 -1.2095
19273TIP3   OH279233   6.194   5.682  11.200 -0.2441 -0.3340 -0.4769
19273TIP3    H179234   6.107   5.716  11.219 -0.6687 -1.0611 -1.0728
19273TIP3    H279235   6.219   5.635  11.279 -1.1737 -1.6709 -0.9501
19274TIP3   OH279236   4.193   6.554  11.630 -0.3254 -0.3709  0.6258
19274TIP3    H179237   4.136   6.584  11.701  0.6942 -0.8532  1.6558
19274TIP3    H279238   4.133   6.514  11.567 -1.2829  0.4287  0.9994
19275TIP3   OH279239   1.005   3.909  14.530  0.1193  0.0355  0.6363
19275TIP3    H179240   0.936   3.907  14.596 -0.0347 -1.2856  0.4600
19275TIP3    H279241   0.972   3.853  14.460  0.3267  1.3448 -0.5250
19276TIP3   OH279242   0.065   2.800  13.787  0.6900  0.3122 -0.0923
19276TIP3    H179243   0.034   2.872  13.842  1.2022  1.6982 -1.5752
19276TIP3    H279244   0.154   2.782  13.820  0.1786 -0.3541  0.9514
19277TIP3   OH279245   6.521   2.000  15.280  0.7629 -0.1107 -0.2292
19277TIP3    H179246   6.499   2.067  15.214  1.1320 -0.5326 -0.7850
19277TIP3    H279247   6.578   1.939  15.234  1.0508 -0.3942  0.5024
19278TIP3   OH279248   5.907   4.891   4.339  0.2082 -0.3473  0.3021
19278TIP3    H179249   5.823   4.849   4.324 -0.5203  1.4574 -0.8699
19278TIP3    H279250   5.965   4.854   4.273 -0.5227  0.7015 -0.9494
19279TIP3   OH279251   6.705   3.417   1.842  0.0709  0.4697 -0.7845
19279TIP3    H179252   6.675   3.442   1.929 -0.2086  1.4729 -1.1632
19279TIP3    H279253   6.741   3.329   1.853  0.3167  0.7108  0.4038
19280TIP3   OH279254   5.321   5.191   4.958 -0.4283 -0.5738 -0.6285
19280TIP3    H179255   5.327   5.275   5.004 -0.8768 -1.1601  0.5177
19280TIP3    H279256   5.394   5.193   4.896 -0.9576  1.0344 -1.2395
19281TIP3   OH279257   2.056   3.582  13.685 -0.2142  0.3590  0.0861
19281TIP3    H179258   2.018   3.510  13.736  0.0363 -0.6525 -1.1186
19281TIP3    H279259   2.145   3.590  13.719  0.0877 -0.5894 -0.4555
19282TIP3   OH279260   2.841   4.201   5.633 -0.6422 -0.0647  0.0328
19282TIP3    H179261   2.854   4.111   5.662 -0.3991 -0.1672 -0.4027
19282TIP3    H279262   2.882   4.254   5.702 -1.5843 -0.2474  0.7543
19283TIP3   OH279263   0.274   0.308  13.580  0.1785  0.6122 -0.1073
19283TIP3    H179264   0.252   0.216  13.568  2.0207  0.2854 -1.2467
19283TIP3    H279265   0.266   0.347  13.493 -1.7648  1.8258  0.5723
19284TIP3   OH279266   0.311   2.007  11.556  0.9796 -0.1379 -0.4670
19284TIP3    H179267   0.228   2.020  11.510 -0.3082 -1.4764  1.4219
19284TIP3    H279268   0.340   2.096  11.579 -1.2354  0.2115  1.0874
19285TIP3   OH279269   5.864   3.750   1.254 -0.2560  0.3566  0.2459
19285TIP3    H179270   5.847   3.694   1.329 -0.2470  0.6767  0.4895
19285TIP3    H279271   5.777   3.773   1.221 -0.3366  2.2080  1.6509
19286TIP3   OH279272   1.694   4.462  11.554  0.0484 -0.4983 -0.1784
19286TIP3    H179273   1.725   4.455  11.464  0.1023  2.4345 -0.4397
19286TIP3    H279274   1.769   4.497  11.603 -1.4768  2.8724 -0.0614
19287TIP3   OH279275   1.136   1.920  11.158 -0.3267 -0.2185 -0.6826
19287TIP3    H179276   1.222   1.878  11.161  0.6806  1.8552  1.5572
19287TIP3    H279277   1.099   1.895  11.073  3.1676  0.1284 -2.3967
19288TIP3   OH279278   4.815   3.748   0.492 -0.4929 -0.6055 -0.5018
19288TIP3    H179279   4.811   3.742   0.397  0.3461 -0.1928 -0.5686
19288TIP3    H279280   4.798   3.659   0.523 -3.5006 -0.2278 -0.9367
19289TIP3   OH279281   6.580   2.297   4.562 -0.1787  0.0574 -0.0034
19289TIP3    H179282   6.512   2.317   4.627  0.4612  2.5066 -0.0358
19289TIP3    H279283   6.660   2.287   4.613  0.2536  1.5944 -0.3567
19290TIP3   OH279284   0.792   3.700  12.353  0.0203  0.1817 -0.6103
19290TIP3    H179285   0.727   3.767  12.373  0.2490 -0.2801  1.9340
19290TIP3    H279286   0.876   3.742  12.371  0.2013 -0.4826  0.1674
19291TIP3   OH279287   0.999   5.682   1.888  0.3449  0.4570  0.4563
19291TIP3    H179288   1.087   5.722   1.889  0.8712 -0.5610 -1.5177
19291TIP3    H279289   1.011   5.598   1.931  0.1249  0.7149  1.0229
19292TIP3   OH279290   2.608   6.534   1.614 -0.1138 -0.2460  0.3725
19292TIP3    H179291   2.581   6.596   1.545 -0.6321  0.2158  0.9873
19292TIP3    H279292   2.615   6.587   1.693 -0.6307 -0.9882  0.9199
19293TIP3   OH279293   3.525   4.380   5.200 -0.0002 -0.4053 -0.2445
19293TIP3    H179294   3.534   4.474   5.219  0.2188 -0.9922  2.8539
19293TIP3    H279295   3.614   4.352   5.178  0.6795 -0.5894  2.5417
19294TIP3   OH279296   3.765   5.841  16.335  0.8180  0.7467  0.0964
19294TIP3    H179297   3.780   5.930  16.368 -1.5645  0.5115  1.9142
19294TIP3    H279298   3.678   5.845  16.294  0.3431 -0.9241  0.8995
19295TIP3   OH279299   6.084   1.191  14.352  0.1144  0.7012 -0.2678
19295TIP3    H179300   6.130   1.209  14.433 -1.0107 -0.0859  0.5662
19295TIP3    H279301   6.095   1.097  14.338  0.1498  0.7970 -0.9407
19296TIP3   OH279302   1.047   2.504   4.950  0.1957  0.7921  0.0493
19296TIP3    H179303   1.138   2.484   4.970  0.5935 -0.1552 -2.5218
19296TIP3    H279304   1.003   2.418   4.948  0.3663  0.6872 -3.7244
19297TIP3   OH279305   6.393   6.022  14.676  0.7535 -0.5256  0.5654
19297TIP3    H179306   6.350   6.098  14.715 -1.5494 -0.5937 -1.6578
19297TIP3    H279307   6.413   6.050  14.586  0.3409 -2.3684 -0.1113
19298TIP3   OH279308   0.408   4.910   3.183  0.3860 -0.3063 -0.3055
19298TIP3    H179309   0.457   4.871   3.111  1.5480 -0.6768  0.6652
19298TIP3    H279310   0.465   4.900   3.259  0.7817  3.3769 -0.0079
19299TIP3   OH279311   5.351   4.978   1.094  0.4073 -0.1450  0.3870
19299TIP3    H179312   5.435   4.997   1.052  1.7334  1.0220  3.4440
19299TIP3    H279313   5.306   5.062   1.099  0.3027 -0.2443  1.3398
19300TIP3   OH279314   4.165   4.200   5.175  0.2243 -0.4624  0.1749
19300TIP3    H179315   4.163   4.126   5.114 -1.8376 -0.0508 -0.2888
19300TIP3    H279316   4.166   4.277   5.119  0.2388 -0.1124  0.6557
19301TIP3   OH279317   6.038   3.643   4.565  0.3021  0.2057 -0.0468
19301TIP3    H179318   6.127   3.608   4.570  0.0862 -0.3088  0.2687
19301TIP3    H279319   6.013   3.631   4.473  1.2793  2.1678 -0.5879
19302TIP3   OH279320   5.460   4.556   2.735 -0.1489  0.4737  0.2687
19302TIP3    H179321   5.537   4.504   2.757  0.9648  1.5278 -1.0086
19302TIP3    H279322   5.413   4.504   2.671  0.9792  1.0175 -1.0323
19303TIP3   OH279323   0.015   6.389  14.255 -1.1061 -0.1133  0.2301
19303TIP3    H179324   0.106   6.378  14.281 -1.2917  0.7512  1.2804
19303TIP3    H279325  -0.007   6.479  14.279 -1.6779  0.3015 -1.7820
19304TIP3   OH279326   4.979   2.442   0.568  0.0904  0.3222 -0.3413
19304TIP3    H179327   4.909   2.421   0.631  1.2914  1.6889  1.4847
19304TIP3    H279328   4.968   2.535   0.550  1.9371  0.7447  0.6147
19305TIP3   OH279329   2.861   2.162  16.098 -0.2701 -0.2715  0.0953
19305TIP3    H179330   2.903   2.076  16.097  1.6801  0.6497  1.1772
19305TIP3    H279331   2.769   2.143  16.119 -0.7896 -2.4258 -3.5835
19306TIP3   OH279332   1.203   2.503   5.308  0.7910 -0.2211 -0.2950
19306TIP3    H179333   1.289   2.510   5.348  0.7076 -0.8283 -0.0031
19306TIP3    H279334   1.219   2.462   5.223  1.1601  2.4901 -1.5852
19307TIP3   OH279335   1.440   6.399   4.140  0.0623  0.5968 -0.1592
19307TIP3    H179336   1.492   6.410   4.219  0.7263  0.0403 -0.5143
19307TIP3    H279337   1.442   6.485   4.097  0.2085  0.7298  0.1174
19308TIP3   OH279338   1.304   2.650  15.513 -0.0193 -0.1282  0.2221
19308TIP3    H179339   1.332   2.717  15.576 -1.1268  1.4015 -0.8648
19308TIP3    H279340   1.218   2.622  15.543 -1.3325  1.8785 -1.5285
19309TIP3   OH279341   4.136   3.872  11.968  0.1540  0.7635 -0.0205
19309TIP3    H179342   4.050   3.833  11.984  0.0736  0.5639 -0.9026
19309TIP3    H279343   4.198   3.814  12.012  0.2706 -1.7338 -3.3011
19310TIP3   OH279344   4.883   3.323  15.864  0.4951  0.1303  0.1393
19310TIP3    H179345   4.906   3.381  15.791 -0.3625  0.0494 -0.2058
19310TIP3    H279346   4.791   3.300  15.848  0.2713  0.1887  1.3009
19311TIP3   OH279347   3.605   0.329  16.456 -0.3323 -0.5037  0.0126
19311TIP3    H179348   3.522   0.348  16.412 -0.2619  2.2766  0.9445
19311TIP3    H279349   3.671   0.333  16.386 -0.4713  1.8599 -0.0440
19312TIP3   OH279350   2.793   3.421   4.134  0.5929 -0.2973 -0.3807
19312TIP3    H179351   2.741   3.462   4.065  0.7754 -0.0957 -0.3998
19312TIP3    H279352   2.851   3.490   4.165  0.0061 -0.1875  0.4760
19313TIP3   OH279353   2.674   0.929   6.645 -0.0704 -0.4324 -0.2082
19313TIP3    H179354   2.617   0.962   6.714 -1.3424  0.5891 -1.7030
19313TIP3    H279355   2.615   0.883   6.585  0.8652 -0.5238 -1.0786
19314TIP3   OH279356   1.528   2.551  15.983  0.5762  0.0747 -0.7727
19314TIP3    H179357   1.463   2.574  15.917 -0.9803 -1.4109  0.2034
19314TIP3    H279358   1.569   2.471  15.950  1.6311  0.7780 -1.1866
19315TIP3   OH279359   0.291   5.415  14.962  0.0415  0.2791 -0.5469
19315TIP3    H179360   0.380   5.451  14.963  0.0084  0.3220  1.7379
19315TIP3    H279361   0.236   5.489  14.936  0.6030  0.3613 -1.5549
19316TIP3   OH279362   1.739   4.845  15.061  0.5499 -0.2742 -0.9489
19316TIP3    H179363   1.795   4.767  15.057  1.8146  0.6624 -1.9231
19316TIP3    H279364   1.709   4.857  14.971  2.2995  1.7360 -1.2942
19317TIP3   OH279365   3.336   4.033   0.044 -0.2130  0.0977 -0.3380
19317TIP3    H179366   3.254   4.063   0.003 -0.2415  0.1543 -0.2411
19317TIP3    H279367   3.392   4.008  -0.029  0.1582  1.2818 -0.4643
19318TIP3   OH279368   5.909   1.754  16.762 -0.1651  0.4594 -0.2354
19318TIP3    H179369   5.922   1.849  16.762 -0.3423  0.4837 -0.4990
19318TIP3    H279370   5.826   1.741  16.808 -0.3825  0.4632 -0.6310
19319TIP3   OH279371   3.525   1.106   3.100 -0.4710  0.4898  0.1516
19319TIP3    H179372   3.472   1.042   3.052 -0.5864  0.5371  0.2160
19319TIP3    H279373   3.592   1.134   3.037  0.1634 -0.3999  0.4324
19320TIP3   OH279374   2.753   1.338   5.919  0.1067  0.0429 -0.3712
19320TIP3    H179375   2.780   1.325   5.828 -0.2085 -4.0043  0.0189
19320TIP3    H279376   2.687   1.407   5.914  2.1156  1.9122 -2.8026
19321TIP3   OH279377   0.387   0.330  15.150  0.1082 -0.4339 -0.2367
19321TIP3    H179378   0.305   0.375  15.131 -0.4315 -1.5488 -0.5647
19321TIP3    H279379   0.448   0.360  15.082 -0.5174 -0.9184 -1.0138
19322TIP3   OH279380   5.931   4.634  15.266 -0.3482  0.0665 -0.0483
19322TIP3    H179381   5.985   4.677  15.199  0.5016 -2.4271 -1.0127
19322TIP3    H279382   5.992   4.614  15.336 -0.4950 -0.6008 -0.1070
19323TIP3   OH279383   4.584   2.782  16.995  0.0326  0.0793 -0.1507
19323TIP3    H179384   4.547   2.864  16.962  0.2619  0.2101 -0.0898
19323TIP3    H279385   4.593   2.797  17.089  1.9724  0.7388 -0.4235
19324TIP3   OH279386   1.922   0.641  13.249 -0.2392 -0.2113  0.2762
19324TIP3    H179387   1.869   0.721  13.243  1.6169  1.0579  0.5232
19324TIP3    H279388   1.974   0.640  13.169  0.5206 -0.6083  0.7600
19325TIP3   OH279389   1.425   4.243   2.496 -0.0303  0.0820 -0.3811
19325TIP3    H179390   1.357   4.178   2.476 -0.1608  0.2597 -0.5091
19325TIP3    H279391   1.490   4.230   2.427  1.2672 -1.7828  1.1467
19326TIP3   OH279392   3.876   2.107  15.853 -0.2187  0.1651  0.6320
19326TIP3    H179393   3.813   2.179  15.852  0.0003  0.3798  1.4970
19326TIP3    H279394   3.962   2.149  15.846 -0.1822 -0.1710 -1.2489
19327TIP3   OH279395   5.117   1.921  12.390 -0.2310 -0.7519 -0.4552
19327TIP3    H179396   5.128   2.012  12.414 -0.9508 -0.3388 -1.6341
19327TIP3    H279397   5.109   1.874  12.473  1.5777  0.0663  0.1850
19328TIP3   OH279398   5.973   5.413  10.263 -0.3837 -0.4201  0.4556
19328TIP3    H179399   6.003   5.438  10.351  0.5167  1.6431 -0.4065
19328TIP3    H279400   6.051   5.379  10.220 -0.5584 -0.3374  0.0690
19329TIP3   OH279401   2.709   4.982  12.487  0.1467  0.8055 -0.3459
19329TIP3    H179402   2.712   5.038  12.565  1.2455  1.6114 -0.9640
19329TIP3    H279403   2.624   5.001  12.447  0.2519  1.5541 -0.2076
19330TIP3   OH279404   5.424   1.960  14.722 -0.1988 -0.3265 -0.2242
19330TIP3    H179405   5.357   2.025  14.742  1.1916  0.9337  0.4867
19330TIP3    H279406   5.455   1.930  14.808 -0.2536 -1.3164 -0.5448
19331TIP3   OH279407   4.428   4.214  14.367 -0.1586  0.0973 -0.8446
19331TIP3    H179408   4.489   4.149  14.403 -2.1046  0.2387  3.0542
19331TIP3    H279409   4.356   4.162  14.332 -1.6417 -0.0123  2.1347
19332TIP3   OH279410   5.216   6.262   3.816  0.4158  0.2680  0.2859
19332TIP3    H179411   5.134   6.212   3.807  1.3593 -0.9965 -1.5308
19332TIP3    H279412   5.233   6.262   3.910 -0.4236 -1.5210  0.4615
19333TIP3   OH279413   6.555   4.388   2.163  0.3205  0.3299 -0.2400
19333TIP3    H179414   6.510   4.464   2.127 -0.5804  0.0017  0.1764
19333TIP3    H279415   6.491   4.317   2.157  0.7507 -0.1229  0.4410
19334TIP3   OH279416   3.916   1.965   0.928 -0.1785 -0.5965  0.2014
19334TIP3    H179417   3.906   1.886   0.875  1.1906 -1.7298  1.5920
19334TIP3    H279418   3.923   1.932   1.018 -2.6069  1.2806  1.1415
19335TIP3   OH279419   5.534   0.914  16.244  0.1073  0.1080 -0.2572
19335TIP3    H179420   5.571   0.846  16.188  0.7653 -0.3080  0.6696
19335TIP3    H279421   5.609   0.947  16.294 -0.4608  0.5170  0.3317
19336TIP3   OH279422   6.762   1.262   3.333 -0.1452 -0.2551 -0.0388
19336TIP3    H179423   6.733   1.203   3.403  0.2230 -0.9282 -0.4527
19336TIP3    H279424   6.798   1.338   3.379 -1.1573 -0.0920  0.4884
19337TIP3   OH279425   2.312   3.213  11.209 -0.2473  0.5219 -0.2268
19337TIP3    H179426   2.267   3.196  11.292 -1.2554 -0.5963 -0.9852
19337TIP3    H279427   2.242   3.223  11.145  0.5385  0.8410 -1.0446
19338TIP3   OH279428   4.583   0.118  17.234  0.4037  0.5712  0.6173
19338TIP3    H179429   4.517   0.146  17.297 -1.1384  2.1666 -1.6045
19338TIP3    H279430   4.650   0.186  17.238  0.4321  0.5366  0.7258
19339TIP3   OH279431   5.891   5.927   0.392 -0.6406  1.0628 -0.0412
19339TIP3    H179432   5.971   5.939   0.340 -0.1230 -1.4809  0.0933
19339TIP3    H279433   5.857   5.842   0.363 -1.9700  0.9948  1.6752
19340TIP3   OH279434   1.097   4.843   1.185  0.6226  0.6546 -0.4281
19340TIP3    H179435   1.124   4.753   1.170  0.0832  0.3613  0.3433
19340TIP3    H279436   1.015   4.836   1.233  0.6241  1.5536 -0.2857
19341TIP3   OH279437   4.109   5.636  15.615  0.0507 -0.2178  0.0291
19341TIP3    H179438   4.103   5.638  15.711 -0.9842 -0.1463 -0.0322
19341TIP3    H279439   4.201   5.614  15.598 -0.1510 -1.9200  1.0482
19342TIP3   OH279440   0.023   5.602  15.745  0.1152 -0.5121 -0.0459
19342TIP3    H179441   0.032   5.655  15.824  0.3537 -0.8535  0.1613
19342TIP3    H279442   0.085   5.640  15.683 -1.8627  1.3317 -0.9551
19343TIP3   OH279443   1.546   5.299   1.836  0.0909  0.0172  0.4693
19343TIP3    H179444   1.468   5.352   1.820 -0.2479 -0.8290 -0.7211
19343TIP3    H279445   1.613   5.338   1.780 -0.0349 -0.5258 -0.0619
19344TIP3   OH279446   5.099   2.663   5.980  0.4305 -0.4778  0.2782
19344TIP3    H179447   5.097   2.598   5.910 -0.6255 -0.3065  0.1328
19344TIP3    H279448   5.008   2.668   6.010  0.0595  2.4844 -1.1757
19345TIP3   OH279449   6.107   3.666  12.515 -0.1547 -0.0500 -0.3761
19345TIP3    H179450   6.173   3.725  12.552 -0.6645  0.1709  0.1878
19345TIP3    H279451   6.096   3.696  12.425  0.2131  0.1754 -0.3460
19346TIP3   OH279452   3.595   5.938   2.213  0.0248  0.2932 -0.6529
19346TIP3    H179453   3.610   6.030   2.232 -0.4526  0.3752 -0.6690
19346TIP3    H279454   3.663   5.914   2.150  1.6258  0.0329  1.1204
19347TIP3   OH279455   4.935   1.268   4.243  0.1850  0.6460 -0.8617
19347TIP3    H179456   4.855   1.216   4.239  1.9362 -2.2111 -0.2619
19347TIP3    H279457   4.985   1.230   4.316  2.1283  2.2913 -1.2870
19348TIP3   OH279458   1.384   3.326   5.261  0.5267  0.0143  0.6542
19348TIP3    H179459   1.328   3.293   5.331  0.7974  1.4307  1.5583
19348TIP3    H279460   1.412   3.413   5.291  0.9812  0.4715 -1.0198
19349TIP3   OH279461   0.751   1.640  16.531  0.3359  0.1129 -0.2153
19349TIP3    H179462   0.666   1.676  16.557 -0.6118 -3.3036  1.6583
19349TIP3    H279463   0.730   1.560  16.484  2.5183 -0.0373 -0.9891
19350TIP3   OH279464   6.725   5.345   0.765  0.3289 -0.4419  0.0361
19350TIP3    H179465   6.741   5.400   0.841 -0.5677  0.9457 -0.7582
19350TIP3    H279466   6.697   5.406   0.697 -4.0362 -2.1748  0.1127
19351TIP3   OH279467   0.869   1.327  11.283  0.2269 -0.7905  0.1553
19351TIP3    H179468   0.812   1.250  11.286 -0.4474 -0.3099 -0.3574
19351TIP3    H279469   0.954   1.292  11.257 -0.0892 -1.3565 -0.1423
19352TIP3   OH279470   1.573   0.965   5.405 -0.1630  0.1691  0.3482
19352TIP3    H179471   1.619   0.881   5.410 -0.6082 -0.0309  1.3207
19352TIP3    H279472   1.630   1.026   5.452 -0.6182  0.0341  1.0992
19353TIP3   OH279473   1.650   3.629   3.761 -0.3610 -0.5050  0.8383
19353TIP3    H179474   1.659   3.711   3.809  0.7976  0.4583 -0.9550
19353TIP3    H279475   1.733   3.584   3.773 -0.0258 -0.2127 -0.3067
19354TIP3   OH279476   1.686   1.892  16.316  0.0929  0.1718  0.1092
19354TIP3    H179477   1.764   1.941  16.344  0.4328 -0.7967  0.8639
19354TIP3    H279478   1.640   1.873  16.397 -0.9058  0.6976 -0.3357
19355TIP3   OH279479   6.760   3.190   4.454 -0.1848  0.3859 -0.6108
19355TIP3    H179480   6.788   3.209   4.544 -0.8874  1.0875 -0.5359
19355TIP3    H279481   6.786   3.099   4.440 -1.6255 -0.2845  0.9115
19356TIP3   OH279482   1.859   3.927   1.228 -0.1575  0.4788  0.2214
19356TIP3    H179483   1.832   3.928   1.136 -1.9127  0.6597  0.7041
19356TIP3    H279484   1.936   3.983   1.231  3.1346 -3.6636 -2.0069
19357TIP3   OH279485   4.910   4.851  13.432  0.5374  0.2154  0.0126
19357TIP3    H179486   4.950   4.812  13.510 -2.3933  1.8095  2.3927
19357TIP3    H279487   4.952   4.937  13.424  1.2776 -0.1929 -0.5534
19358TIP3   OH279488   1.302   1.380  13.000  0.3003 -0.8218 -0.0164
19358TIP3    H179489   1.369   1.387  13.068  1.5675 -2.2103 -1.0703
19358TIP3    H279490   1.304   1.288  12.975 -0.5692 -0.4493 -1.4956
19359TIP3   OH279491   2.711   1.276   2.633 -0.6498 -0.1739  0.2434
19359TIP3    H179492   2.744   1.196   2.592 -3.0339 -1.3665  0.5986
19359TIP3    H279493   2.775   1.297   2.701  0.1088 -1.6438 -0.0082
19360TIP3   OH279494   0.817   0.407   5.770  0.0019 -0.8185  0.2460
19360TIP3    H179495   0.785   0.475   5.710  0.7144 -1.5943 -1.0335
19360TIP3    H279496   0.897   0.444   5.808 -0.1958 -0.5099  0.3620
19361TIP3   OH279497   2.223   1.360   2.263  0.1201 -0.4954  0.0579
19361TIP3    H179498   2.314   1.386   2.251  0.4303 -1.6719 -0.1755
19361TIP3    H279499   2.211   1.354   2.358 -0.0162  0.6959  0.1207
19362TIP3   OH279500   1.540   2.874  12.554  0.2855 -0.0166  0.1748
19362TIP3    H179501   1.561   2.861  12.461 -2.0793 -1.1857 -0.2340
19362TIP3    H279502   1.556   2.967  12.569  0.4226  0.2535 -1.4870
19363TIP3   OH279503   1.676   5.950   0.814  0.2910 -0.2237 -0.1506
19363TIP3    H179504   1.581   5.940   0.821  0.1069  1.3649 -0.3154
19363TIP3    H279505   1.698   5.911   0.730 -0.6922  2.5874 -1.7514
19364TIP3   OH279506   2.261   0.149  14.081 -0.3069  0.1247  0.0581
19364TIP3    H179507   2.293   0.174  13.995 -2.5373 -0.5494 -1.0047
19364TIP3    H279508   2.336   0.107  14.124  1.2121  1.7156 -1.0092
19365TIP3   OH279509   5.585   0.079  14.810 -0.2463 -0.1468  0.1772
19365TIP3    H179510   5.551   0.147  14.868 -0.0760  0.9151 -0.9423
19365TIP3    H279511   5.526   0.005  14.822  0.7534 -0.5622  2.9568
19366TIP3   OH279512   4.416   2.999   5.967 -0.0148  0.0786 -0.2675
19366TIP3    H179513   4.447   2.932   6.028  1.4312  0.8081 -0.1675
19366TIP3    H279514   4.355   3.053   6.019  1.3327  0.7968  0.6081
19367TIP3   OH279515   6.703   5.945  11.021  0.4493  0.2338 -0.1322
19367TIP3    H179516   6.750   6.004  11.079 -0.2233 -0.6286  1.3028
19367TIP3    H279517   6.619   5.988  11.005  0.9639  0.8824 -1.1964
19368TIP3   OH279518   1.316   6.082  12.866  0.1406 -0.1935 -0.6577
19368TIP3    H179519   1.338   6.017  12.800 -2.7145 -3.2128  1.2279
19368TIP3    H279520   1.237   6.124  12.831  0.8265  0.8952 -0.9224
19369TIP3   OH279521   5.419   3.028  11.863  0.0561  0.0737 -0.0131
19369TIP3    H179522   5.448   3.055  11.950  1.3933  3.8776 -1.5287
19369TIP3    H279523   5.332   3.067  11.854 -0.3395 -0.8317 -0.1828
19370TIP3   OH279524   4.197   6.556  14.576 -0.0021  0.4469  0.1586
19370TIP3    H179525   4.138   6.606  14.521  0.7228  0.9735 -0.1454
19370TIP3    H279526   4.284   6.589  14.555  0.3130  0.4322  1.3805
19371TIP3   OH279527   5.451   5.973   5.791 -0.0415 -0.0386  0.4544
19371TIP3    H179528   5.547   5.977   5.793  0.1125 -1.9877 -1.1835
19371TIP3    H279529   5.423   6.064   5.787  1.6460  0.6736  3.1931
19372TIP3   OH279530   3.969   0.466   2.040  0.3960  0.0471  0.3375
19372TIP3    H179531   4.037   0.399   2.041 -0.3839 -0.7636 -0.4910
19372TIP3    H279532   3.933   0.464   2.129  1.5938  0.6429  0.8495
19373TIP3   OH279533   4.111   1.229   2.851 -0.1035  0.8386  0.3436
19373TIP3    H179534   4.097   1.278   2.932  0.4538  1.9407 -0.2144
19373TIP3    H279535   4.076   1.286   2.782 -0.8238 -0.2110 -0.1708
19374TIP3   OH279536   2.796   4.045   6.982  0.2285  0.3001 -0.1929
19374TIP3    H179537   2.791   4.128   6.935 -0.5597  0.0078 -0.6322
19374TIP3    H279538   2.820   3.981   6.915  3.3000  0.5423  0.5856
19375TIP3   OH279539   5.851   0.946   3.166 -0.0487 -0.6970  0.3465
19375TIP3    H179540   5.936   0.989   3.155 -0.5616  0.7847  1.8502
19375TIP3    H279541   5.814   0.942   3.078  1.0749 -0.2565 -0.1539
19376TIP3   OH279542   4.209   3.298  12.652 -0.4170  0.2151  0.4494
19376TIP3    H179543   4.176   3.208  12.646  1.2302 -0.3378 -0.7117
19376TIP3    H279544   4.196   3.334  12.564  2.3657 -0.1603 -0.1704
19377TIP3   OH279545   5.209   0.044   2.553 -0.0691 -0.5148  0.0477
19377TIP3    H179546   5.160  -0.033   2.580  0.1814 -0.7075 -0.0452
19377TIP3    H279547   5.299   0.013   2.542 -0.2071 -0.5026 -1.2385
19378TIP3   OH279548   4.122   2.661  12.233 -0.1059  0.1521 -0.2595
19378TIP3    H179549   4.037   2.664  12.277  0.0019 -0.0596 -0.0389
19378TIP3    H279550   4.102   2.633  12.143 -0.2999  0.3702 -0.2825
19379TIP3   OH279551   2.756   2.785  14.273  0.0273  0.2349 -0.3858
19379TIP3    H179552   2.810   2.856  14.238 -0.1713 -0.0656 -1.3193
19379TIP3    H279553   2.816   2.736  14.329  0.0425  1.4054  0.6501
19380TIP3   OH279554   5.593   6.626   5.957  0.0536 -0.0153 -0.1851
19380TIP3    H179555   5.521   6.659   6.011 -0.8545 -0.2873 -1.2183
19380TIP3    H279556   5.637   6.562   6.013 -0.8416 -0.2569  0.2603
19381TIP3   OH279557   6.022   1.947   0.182 -0.3004  0.1217  0.2614
19381TIP3    H179558   5.936   1.969   0.146 -0.6231 -0.1528  0.8685
19381TIP3    H279559   6.079   2.017   0.150 -1.0551  1.1404  1.0912
19382TIP3   OH279560   0.265   5.637   1.617 -0.7119  0.0234  0.2988
19382TIP3    H179561   0.214   5.622   1.537 -0.2817 -0.4459  0.1054
19382TIP3    H279562   0.355   5.614   1.592 -0.8922 -2.0825  1.4670
19383TIP3   OH279563   1.775   4.449   1.774 -0.1797  0.3891 -0.3887
19383TIP3    H179564   1.853   4.442   1.720  1.2002  3.0006  1.1959
19383TIP3    H279565   1.801   4.414   1.859 -0.8721  0.9051  0.0378
19384TIP3   OH279566   1.987   0.954   1.291  0.3579 -0.0655 -0.7292
19384TIP3    H179567   1.920   0.930   1.356 -1.8984 -0.2025 -3.0199
19384TIP3    H279568   1.953   1.035   1.251  1.7809  0.0990 -1.6430
19385TIP3   OH279569   5.368   5.659  15.947 -0.2857 -0.5426  0.3639
19385TIP3    H179570   5.310   5.587  15.921  0.3645 -1.2404  0.8228
19385TIP3    H279571   5.366   5.719  15.873  1.5852 -2.5210 -1.3597
19386TIP3   OH279572   1.383   5.061  11.064  0.2368  0.3885 -0.2086
19386TIP3    H179573   1.452   5.045  11.129 -1.1218 -0.4608  1.0616
19386TIP3    H279574   1.418   5.026  10.982  1.2231 -0.2357  0.4748
19387TIP3   OH279575   6.616   1.721   3.697  0.7996  0.2752  0.9245
19387TIP3    H179576   6.630   1.689   3.786  0.1068 -0.6954  0.6972
19387TIP3    H279577   6.702   1.752   3.669  1.0846  0.3344  1.8310
19388TIP3   OH279578   3.310   6.175   3.309 -0.4912  0.3200  0.3764
19388TIP3    H179579   3.253   6.240   3.267  0.3716  0.6468 -0.3151
19388TIP3    H279580   3.366   6.143   3.238  0.9405  0.8284  1.2424
19389TIP3   OH279581   6.294   6.133   1.143  0.6601 -0.3439 -0.8007
19389TIP3    H179582   6.344   6.147   1.223  0.8122  2.0690 -1.2608
19389TIP3    H279583   6.354   6.088   1.084  1.3755  0.1114 -0.4182
19390TIP3   OH279584   3.750   5.566  17.130  0.0651  0.6349 -0.0655
19390TIP3    H179585   3.695   5.641  17.105  1.4984  0.5658 -3.6146
19390TIP3    H279586   3.836   5.604  17.147  1.1391 -0.2853 -3.1540
19391TIP3   OH279587   3.427   2.207  14.417  0.3390 -0.3017 -0.0137
19391TIP3    H179588   3.345   2.219  14.464  1.2021  0.3048  1.3951
19391TIP3    H279589   3.491   2.258  14.468  1.5953 -0.8280 -1.0335
19392TIP3   OH279590   2.628   0.409  15.717 -0.2610  0.8500  0.0445
19392TIP3    H179591   2.559   0.394  15.782  0.7687  1.2608  1.2427
19392TIP3    H279592   2.623   0.503  15.699 -1.7810  0.4242 -1.8917
19393TIP3   OH279593   2.323   3.872  10.976 -0.4069 -0.2217  0.0640
19393TIP3    H179594   2.367   3.829  10.903 -0.7064  0.9591 -0.8216
19393TIP3    H279595   2.366   3.837  11.054 -0.1953 -1.6121 -0.6616
19394TIP3   OH279596   2.632   2.935  16.568 -0.1767  0.1422 -0.2938
19394TIP3    H179597   2.676   2.879  16.504  0.0769  0.2268 -0.1968
19394TIP3    H279598   2.681   2.922  16.649  0.7345  1.5298 -0.5996
19395TIP3   OH279599   5.345   0.112  14.145 -0.0790 -0.2624 -0.2806
19395TIP3    H179600   5.346   0.098  14.240  0.9235 -0.7801 -0.3628
19395TIP3    H279601   5.355   0.207  14.135  0.6460 -0.2995  0.1071
19396TIP3   OH279602   5.284   3.472   5.988 -0.2126  0.1537  0.1156
19396TIP3    H179603   5.374   3.438   5.987 -0.1068  0.4477 -1.0297
19396TIP3    H279604   5.294   3.565   5.967 -0.8134  0.0985 -0.4246
19397TIP3   OH279605   5.278   3.027   2.375 -0.3759 -0.5802  0.1837
19397TIP3    H179606   5.190   3.042   2.340 -0.3376 -1.4702 -0.2986
19397TIP3    H279607   5.284   3.086   2.450 -1.3067 -0.3567  0.0884
19398TIP3   OH279608   4.432   0.497   1.900  0.1651  0.1676  0.5551
19398TIP3    H179609   4.451   0.444   1.822 -0.7854 -1.4371  1.3811
19398TIP3    H279610   4.494   0.569   1.896  0.4250 -0.1384 -1.4583
19399TIP3   OH279611   5.675   6.446   5.276 -0.1916 -0.2803  0.1884
19399TIP3    H179612   5.695   6.359   5.309  0.9500 -0.2249 -0.3501
19399TIP3    H279613   5.581   6.443   5.256 -0.2891 -1.1815  0.7534
19400TIP3   OH279614   2.233   5.691   3.539 -0.5589 -0.2188  0.4955
19400TIP3    H179615   2.258   5.612   3.490 -1.5347 -0.0513 -0.2952
19400TIP3    H279616   2.315   5.739   3.551 -0.0778 -0.9879  0.3214
19401TIP3   OH279617   3.613   5.681   3.968 -0.2777 -0.1680  0.4695
19401TIP3    H179618   3.622   5.711   4.058 -1.0455  1.9726 -0.1344
19401TIP3    H279619   3.519   5.676   3.953 -0.1634  0.3747 -0.4901
19402TIP3   OH279620   3.871   3.873   3.662  0.3197  0.4105 -0.3754
19402TIP3    H179621   3.794   3.914   3.701 -0.5601 -1.7358  0.1775
19402TIP3    H279622   3.839   3.832   3.582  0.4703 -2.0954  0.8057
19403TIP3   OH279623   3.590   6.773   4.345  0.9040  0.1614  0.1982
19403TIP3    H179624   3.639   6.837   4.295 -0.9968  1.5389  0.0419
19403TIP3    H279625   3.602   6.800   4.436  0.5438  0.4250  0.1680
19404TIP3   OH279626   0.135   4.696   0.040 -0.4119 -0.3806  1.0264
19404TIP3    H179627   0.083   4.623   0.072 -1.2005 -0.9075 -1.3331
19404TIP3    H279628   0.071   4.758   0.004  0.3764  0.5887  1.2542
19405TIP3   OH279629   1.450   4.642  15.467 -0.0182  0.6643 -0.5013
19405TIP3    H179630   1.372   4.689  15.497 -0.5474  0.3943 -1.4361
19405TIP3    H279631   1.508   4.642  15.543 -1.1521  0.3677  0.3908
19406TIP3   OH279632   5.954   3.222   1.635  0.3950  0.4441  0.2819
19406TIP3    H179633   5.944   3.158   1.565  0.7877 -0.5393  1.1103
19406TIP3    H279634   6.036   3.266   1.616  0.4718  0.2178  0.0799
19407TIP3   OH279635   2.168   0.675  16.749  0.0126 -0.0753  0.7721
19407TIP3    H179636   2.125   0.716  16.674 -0.5153 -0.8469  0.6358
19407TIP3    H279637   2.183   0.584  16.720  0.8913 -0.0558  1.1605
19408TIP3   OH279638   3.228   4.530   3.725  0.7536 -0.3795  0.7647
19408TIP3    H179639   3.180   4.575   3.655  0.5845 -0.7639  0.6333
19408TIP3    H279640   3.211   4.584   3.803 -1.1422 -1.3120  1.0421
19409TIP3   OH279641   3.819   5.453   0.785 -0.3757 -1.1912  0.5748
19409TIP3    H179642   3.839   5.500   0.865 -0.2181  1.8967 -1.2156
19409TIP3    H279643   3.724   5.457   0.777 -0.1285  1.9083 -1.3375
19410TIP3   OH279644   2.330   6.644   6.331  0.2823 -0.0198 -0.0129
19410TIP3    H179645   2.260   6.612   6.388 -0.9785 -0.1601 -1.5926
19410TIP3    H279646   2.409   6.599   6.362 -0.5215 -0.6670  1.1239
19411TIP3   OH279647   3.753   5.539  15.250  0.5197  0.0349  0.4285
19411TIP3    H179648   3.705   5.598  15.309 -1.4903 -0.0843 -1.0451
19411TIP3    H279649   3.838   5.582  15.238 -1.0977  3.0002 -1.1054
19412TIP3   OH279650   2.373   5.831   0.206  0.7277  0.0389 -0.3664
19412TIP3    H179651   2.374   5.925   0.189  0.1363 -0.3683 -2.7706
19412TIP3    H279652   2.454   5.799   0.165  0.3652 -0.6584 -0.5387
19413TIP3   OH279653   5.687   0.390   5.488 -0.3374 -0.1483 -0.1211
19413TIP3    H179654   5.698   0.384   5.393 -3.8243  0.9788 -0.6671
19413TIP3    H279655   5.607   0.341   5.506  0.8124 -1.1900  2.4155
19414TIP3   OH279656   0.719   3.005  10.988 -0.0256 -0.0256  0.3783
19414TIP3    H179657   0.755   3.062  10.920  1.0841  0.5165  1.3909
19414TIP3    H279658   0.792   2.993  11.049 -0.7401 -1.2345  0.9992
19415TIP3   OH279659   3.813   6.503  16.298 -0.3512 -0.0909  0.6837
19415TIP3    H179660   3.732   6.453  16.287 -0.4942  0.2153  0.3617
19415TIP3    H279661   3.882   6.441  16.276 -0.5390 -0.0862  0.0677
19416TIP3   OH279662   1.876   0.483  11.872  0.1414  0.6424 -0.1463
19416TIP3    H179663   1.857   0.396  11.906  0.3047  0.4394 -0.5569
19416TIP3    H279664   1.972   0.485  11.865  0.0883  0.5349 -0.9539
19417TIP3   OH279665   5.196   0.153   1.545  0.0536  0.0398  0.1570
19417TIP3    H179666   5.163   0.161   1.635 -0.1397  1.0583  0.0027
19417TIP3    H279667   5.269   0.091   1.552 -0.8982 -1.0460  0.7637
19418TIP3   OH279668   5.383   2.818   5.386 -0.1453 -0.5142 -0.1877
19418TIP3    H179669   5.292   2.838   5.364 -0.7981 -0.1354  2.6314
19418TIP3    H279670   5.408   2.748   5.326 -2.5001 -1.0397 -0.5816
19419TIP3   OH279671   2.587   4.456   3.775 -0.0921  0.1077  0.3681
19419TIP3    H179672   2.671   4.472   3.730  1.2197 -1.1695  2.2687
19419TIP3    H279673   2.524   4.447   3.704  1.6005 -0.1229 -1.1666
19420TIP3   OH279674   4.501   1.133   1.030 -0.0862  0.1595  0.2652
19420TIP3    H179675   4.457   1.127   0.945  0.7691 -0.7156 -0.1281
19420TIP3    H279676   4.583   1.179   1.012  0.1484 -0.1285  0.5912
19421TIP3   OH279677   6.476   3.224  15.678 -0.0243 -0.0761 -0.2326
19421TIP3    H179678   6.431   3.308  15.675 -2.4919 -1.2907  0.7012
19421TIP3    H279679   6.473   3.198  15.770  0.7297 -1.1663 -0.4971
19422TIP3   OH279680   3.183   0.174  16.979 -0.4612  0.1751 -0.5359
19422TIP3    H179681   3.206   0.266  16.982  1.5893 -0.3220 -0.4911
19422TIP3    H279682   3.160   0.152  17.070  0.3774  0.3177 -0.2851
19423TIP3   OH279683   1.542   0.451   4.951 -0.5786 -0.0307 -0.1109
19423TIP3    H179684   1.548   0.363   4.988 -0.0357 -0.3171 -0.8624
19423TIP3    H279685   1.448   0.466   4.940 -0.6408 -0.8739 -0.8154
19424TIP3   OH279686   4.897   5.196  11.186 -0.0632  0.3760  0.6244
19424TIP3    H179687   4.891   5.126  11.121 -1.4635 -0.7307  1.9016
19424TIP3    H279688   4.991   5.208  11.200  0.2261 -0.0677 -0.8472
19425TIP3   OH279689   5.640   1.133  16.009 -0.2641  0.3948  0.1445
19425TIP3    H179690   5.702   1.205  16.022 -0.8320  0.5785  1.9587
19425TIP3    H279691   5.680   1.060  16.056 -0.3177 -0.1288 -0.6218
19426TIP3   OH279692   3.058   4.954   4.724 -0.2069  0.0445  0.7721
19426TIP3    H179693   3.145   4.958   4.764  0.0595 -0.4115  0.2364
19426TIP3    H279694   3.063   4.881   4.663 -0.5595  0.8394 -0.2223
19427TIP3   OH279695   3.363   3.478  14.181  0.7190 -0.0718 -0.2731
19427TIP3    H179696   3.317   3.554  14.145 -1.2256 -0.2051  1.8717
19427TIP3    H279697   3.321   3.461  14.265  2.3893 -2.3699  0.1542
19428TIP3   OH279698   0.778   2.403   1.556 -1.0769  0.1766  0.0614
19428TIP3    H179699   0.705   2.464   1.546 -0.6719  0.7029  0.2458
19428TIP3    H279700   0.841   2.429   1.489 -0.2262  0.9680  1.1485
19429TIP3   OH279701   1.786   3.290  12.104 -0.1906 -0.0423  0.1910
19429TIP3    H179702   1.715   3.340  12.065  1.1583  0.4813 -1.6568
19429TIP3    H279703   1.856   3.292  12.038  0.0305 -4.0512  0.1952
19430TIP3   OH279704   2.743   3.879  14.702  0.2028 -0.3701 -0.2500
19430TIP3    H179705   2.757   3.824  14.625  0.8805 -1.0113  0.3287
19430TIP3    H279706   2.696   3.955  14.669  1.7798  0.0454 -1.5630
19431TIP3   OH279707   0.119   2.317   1.784  0.1137 -0.6922 -0.3221
19431TIP3    H179708   0.151   2.228   1.800  1.6493 -0.1568 -0.3667
19431TIP3    H279709   0.071   2.310   1.702 -0.4928 -1.6502  0.0937
19432TIP3   OH279710   5.771   1.782  14.171  0.2747  0.0939 -0.2007
19432TIP3    H179711   5.677   1.768  14.181  0.1054  0.6333 -0.9703
19432TIP3    H279712   5.809   1.694  14.175  0.0664  0.0867  3.1114
19433TIP3   OH279713   2.230   5.462   1.133 -0.3188  0.3174 -0.3069
19433TIP3    H179714   2.294   5.477   1.203  0.7590 -0.4035 -1.1121
19433TIP3    H279715   2.146   5.452   1.178  0.0538  1.7197  0.7387
19434TIP3   OH279716   4.043   3.063  14.778 -0.4997  0.0052  0.4996
19434TIP3    H179717   4.047   3.154  14.808 -2.3802 -0.0479  0.9963
19434TIP3    H279718   3.952   3.036  14.794 -0.2336 -1.6473 -0.5663
19435TIP3   OH279719   3.905   2.416  12.215  0.0928  0.0320  0.3032
19435TIP3    H179720   3.859   2.345  12.260  0.2806 -0.8199 -0.8233
19435TIP3    H279721   3.840   2.451  12.153 -0.1471  1.1560  1.1709
19436TIP3   OH279722   3.293   0.867   3.593 -0.8977  0.1610 -0.0125
19436TIP3    H179723   3.382   0.848   3.566 -0.8487  0.7558 -0.2866
19436TIP3    H279724   3.284   0.824   3.678  0.2491  1.6165  0.8772
19437TIP3   OH279725   0.696   3.598   5.275 -0.3428  0.1723 -0.0780
19437TIP3    H179726   0.688   3.671   5.337  0.9106 -0.1416  0.4730
19437TIP3    H279727   0.632   3.534   5.305 -0.3187  0.3674  0.4047
19438TIP3   OH279728   2.036   4.988   1.086 -0.1068  0.0496  0.2233
19438TIP3    H179729   1.974   5.028   1.025  1.4143  0.4653 -1.0929
19438TIP3    H279730   1.998   5.003   1.172 -1.0466  1.7080 -0.4508
19439TIP3   OH279731   0.119   6.650  14.536  0.1621 -0.3691  0.1905
19439TIP3    H179732   0.076   6.632  14.452  0.2036  0.3173  0.0214
19439TIP3    H279733   0.049   6.684  14.592 -0.0789 -1.7515  0.7505
19440TIP3   OH279734   3.120   5.204  16.627  0.5866 -0.3578  0.4896
19440TIP3    H179735   3.177   5.143  16.582 -0.3416  0.7333 -2.2430
19440TIP3    H279736   3.031   5.174  16.607  0.1423  1.2439 -0.0301
19441TIP3   OH279737   5.122   4.867   0.127  0.2893  0.0143 -0.5598
19441TIP3    H179738   5.183   4.822   0.186  1.3199 -0.2110 -1.7877
19441TIP3    H279739   5.062   4.799   0.098 -0.7242  0.2808  0.8336
19442TIP3   OH279740   5.533   4.292  13.433  0.2979 -0.4798  0.3128
19442TIP3    H179741   5.594   4.267  13.363 -0.8238  0.8852 -1.1885
19442TIP3    H279742   5.455   4.239  13.417  0.4909 -1.0567  1.2723
19443TIP3   OH279743   5.506   1.089   5.032 -0.3488  0.6557 -0.0700
19443TIP3    H179744   5.522   1.074   4.939  2.4379 -1.5255  0.6818
19443TIP3    H279745   5.541   1.176   5.048  2.8619 -0.5197 -0.3234
19444TIP3   OH279746   0.988   0.567  10.927 -0.4614 -0.2188 -0.6826
19444TIP3    H179747   0.942   0.547  10.845 -1.6379 -2.7369  0.5094
19444TIP3    H279748   1.070   0.518  10.921 -0.1049  0.3941 -0.7810
19445TIP3   OH279749   4.830   2.845  13.351 -0.5638 -0.4596 -0.4282
19445TIP3    H179750   4.833   2.933  13.388  0.0594 -1.0215  0.9001
19445TIP3    H279751   4.747   2.841  13.303 -0.9041  0.6201  0.0654
19446TIP3   OH279752   4.863   4.917   3.244 -0.1780  0.7166 -0.3013
19446TIP3    H179753   4.906   4.924   3.159  2.1093  0.9336  0.8196
19446TIP3    H279754   4.879   4.827   3.272  0.9993  1.2613  0.8389
19447TIP3   OH279755   3.783   5.753   0.257 -0.1502 -0.0958 -0.0640
19447TIP3    H179756   3.877   5.748   0.272 -0.2953  0.7215  1.1485
19447TIP3    H279757   3.768   5.844   0.230 -0.7305  0.0342  0.6965
19448TIP3   OH279758   0.009   2.882  17.169  0.6790 -0.3224  0.1729
19448TIP3    H179759  -0.056   2.884  17.239  0.9865  0.6130  0.4353
19448TIP3    H279760   0.093   2.897  17.212  1.0774 -1.4146 -0.1812
19449TIP3   OH279761   1.507   1.791  13.599 -0.1239  0.3997  0.8899
19449TIP3    H179762   1.415   1.808  13.578 -0.1201  0.6114  1.0539
19449TIP3    H279763   1.535   1.867  13.648  0.8779  1.5741 -1.4209
19450TIP3   OH279764   4.830   0.653  17.021  0.2281 -0.1731 -0.4242
19450TIP3    H179765   4.887   0.622  16.950 -0.0490 -2.2591  0.2387
19450TIP3    H279766   4.891   0.691  17.085  0.6915 -0.4899 -0.6716
19451TIP3   OH279767   5.342   1.280  13.254  0.0363 -0.0595 -0.0073
19451TIP3    H179768   5.372   1.370  13.260 -1.7004  0.5980 -0.8451
19451TIP3    H279769   5.253   1.281  13.289 -0.6795 -1.0696 -1.6802
19452TIP3   OH279770   6.533   5.352  14.905  0.4237 -0.2934  0.1094
19452TIP3    H179771   6.476   5.428  14.902  0.0529 -0.5420  0.8169
19452TIP3    H279772   6.619   5.386  14.881  0.6429  0.7263  2.1971
19453TIP3   OH279773   1.459   4.095   5.712  0.2598 -0.3881 -0.4717
19453TIP3    H179774   1.480   4.188   5.724 -0.0793 -0.3815  0.0898
19453TIP3    H279775   1.514   4.051   5.777 -1.0019 -0.4222  0.5869
19454TIP3   OH279776   2.664   2.516  16.294 -0.2716 -0.8822  0.0561
19454TIP3    H179777   2.584   2.490  16.338 -0.6011  0.0020  0.0001
19454TIP3    H279778   2.654   2.483  16.204 -0.8090 -0.3337 -0.0941
19455TIP3   OH279779   4.653   4.509  12.662  0.0255 -0.8272  0.0313
19455TIP3    H179780   4.680   4.466  12.580 -1.9676  0.0846 -1.1394
19455TIP3    H279781   4.735   4.520  12.711  1.2164 -1.6388 -1.7176
19456TIP3   OH279782   3.268   3.358   5.521  0.4586 -0.7454 -0.5929
19456TIP3    H179783   3.206   3.404   5.577  0.3963 -1.2007 -0.2856
19456TIP3    H279784   3.217   3.333   5.444 -0.0512 -2.1977  0.2075
19457TIP3   OH279785   2.343   6.092  13.037 -0.6701  0.5622  0.0411
19457TIP3    H179786   2.352   6.159  13.105 -3.7124  0.7090  0.3810
19457TIP3    H279787   2.429   6.089  12.994  0.6287  2.0516  2.4083
19458TIP3   OH279788   6.491   1.219  11.062  0.7111  0.2244 -0.3276
19458TIP3    H179789   6.459   1.309  11.055  0.2492  0.1994  1.2184
19458TIP3    H279790   6.412   1.165  11.066  0.9542 -0.0508  0.9652
19459TIP3   OH279791   2.348   4.905   1.796  0.2864  0.1194 -0.0118
19459TIP3    H179792   2.380   4.820   1.764  0.9861  0.9739 -1.6117
19459TIP3    H279793   2.409   4.929   1.865  0.6935 -0.1960 -0.2595
19460TIP3   OH279794   4.491   2.655   1.706  0.0805  0.3456  0.0574
19460TIP3    H179795   4.531   2.742   1.712  1.7031 -0.2716 -1.4128
19460TIP3    H279796   4.439   2.658   1.626  0.3150 -0.1218 -0.1082
19461TIP3   OH279797   6.137   1.796  16.512  0.3260 -0.1053  0.3202
19461TIP3    H179798   6.216   1.758  16.475  2.7852  4.1310  0.9506
19461TIP3    H279799   6.165   1.836  16.594 -2.8384 -0.0048  1.4186
19462TIP3   OH279800   5.001   2.139   4.934 -0.0859 -0.3392  0.0765
19462TIP3    H179801   5.036   2.059   4.894  0.1026 -0.7135  0.9854
19462TIP3    H279802   4.949   2.108   5.008 -1.3847  0.2888 -0.5712
19463TIP3   OH279803   3.270   5.614  11.433 -0.3774 -0.4744 -0.0748
19463TIP3    H179804   3.195   5.592  11.377  0.1094 -1.8493 -0.1988
19463TIP3    H279805   3.244   5.581  11.519 -0.1722 -0.3997  0.0142
19464TIP3   OH279806   5.085   6.249   2.332 -0.0154 -0.0476  0.5698
19464TIP3    H179807   5.009   6.293   2.370 -1.1408 -1.5657  0.1208
19464TIP3    H279808   5.072   6.257   2.237  1.3381  1.2749  0.4758
19465TIP3   OH279809   0.275   3.648   4.903  0.1702  0.6691 -0.5054
19465TIP3    H179810   0.182   3.631   4.893  0.1992 -0.3166  0.8209
19465TIP3    H279811   0.315   3.606   4.826 -0.2572 -0.9910  0.1528
19466TIP3   OH279812   1.009   3.748   6.737 -0.0775  0.5202  0.0491
19466TIP3    H179813   0.945   3.762   6.667 -0.3766 -2.0629 -0.2135
19466TIP3    H279814   0.965   3.689   6.798  1.1147  0.7800  1.1788
19467TIP3   OH279815   3.368   4.379   3.986 -0.5162  0.0189  0.6762
19467TIP3    H179816   3.385   4.309   3.923 -0.2710 -0.4252  1.2355
19467TIP3    H279817   3.303   4.342   4.046 -1.4041  0.7448  0.1821
19468TIP3   OH279818   0.509   0.456  16.718 -0.2623  0.8312 -0.4315
19468TIP3    H179819   0.541   0.432  16.631 -1.4789  3.7350 -1.7766
19468TIP3    H279820   0.416   0.476  16.704 -0.9501 -0.6214  1.9561
19469TIP3   OH279821   1.862   2.146  14.682 -0.3897 -0.1859  0.3440
19469TIP3    H179822   1.775   2.186  14.687 -0.0948  0.5950 -0.6910
19469TIP3    H279823   1.907   2.178  14.760 -0.5121  0.6726  0.0738
19470TIP3   OH279824   0.414   5.273   5.101  0.2834 -0.0686  0.0250
19470TIP3    H179825   0.412   5.183   5.069 -0.3418  0.5379 -1.6627
19470TIP3    H279826   0.482   5.272   5.169  0.0144 -1.8907  0.3070
19471TIP3   OH279827   2.598   6.459  11.732  0.7149  0.0683  0.0788
19471TIP3    H179828   2.535   6.530  11.721  0.4886 -0.1151  0.1665
19471TIP3    H279829   2.657   6.488  11.801  1.0833  0.4912 -0.4110
19472TIP3   OH279830   4.006   5.083  12.258 -0.2971  0.3428 -0.2628
19472TIP3    H179831   3.940   5.123  12.202  0.1312 -0.0137 -1.0295
19472TIP3    H279832   3.994   5.126  12.343 -2.4665 -0.7653  0.0223
19473TIP3   OH279833   5.786   1.054   0.416 -0.4276  0.0487 -0.1536
19473TIP3    H179834   5.775   1.095   0.330  0.3628  0.7774  0.0832
19473TIP3    H279835   5.821   0.967   0.397 -0.9358 -0.0630 -0.5998
19474TIP3   OH279836   0.607   4.800   5.695 -0.4264  0.2993  0.0702
19474TIP3    H179837   0.552   4.723   5.686 -0.1507  0.2790 -1.4829
19474TIP3    H279838   0.624   4.829   5.605  1.3385  0.8383  0.5438
19475TIP3   OH279839   6.101   5.273   4.197  0.2948 -0.2852 -0.4696
19475TIP3    H179840   6.048   5.255   4.119  1.0472 -1.6438 -0.6928
19475TIP3    H279841   6.192   5.271   4.165  0.4882  2.6432 -0.2195
19476TIP3   OH279842   4.158   3.543  15.590 -0.7453  0.3345  0.1293
19476TIP3    H179843   4.216   3.590  15.649  0.5623  0.9965 -1.6555
19476TIP3    H279844   4.070   3.575  15.612  0.0741  3.4639 -0.8420
19477TIP3   OH279845   5.630   2.732  12.046 -0.2003 -0.1768 -0.4111
19477TIP3    H179846   5.672   2.782  11.976  1.2949 -2.4911 -1.2252
19477TIP3    H279847   5.537   2.743  12.030  0.1127  0.6448 -1.7895
19478TIP3   OH279848   5.389   3.698   1.569 -0.2127 -0.3840 -0.3227
19478TIP3    H179849   5.348   3.745   1.641 -0.2777  1.1268 -1.3217
19478TIP3    H279850   5.445   3.763   1.526 -2.5480 -0.3657 -3.5157
19479TIP3   OH279851   5.777   0.898   0.113  0.0194  0.5976  0.3004
19479TIP3    H179852   5.722   0.965   0.073  1.1779  1.4877  0.1451
19479TIP3    H279853   5.865   0.937   0.113  0.7110 -0.9387  0.1885
19480TIP3   OH279854   0.237   4.566  13.775 -0.1871  0.0345 -0.1478
19480TIP3    H179855   0.271   4.498  13.833  0.6917  0.1155 -0.5628
19480TIP3    H279856   0.301   4.637  13.782 -0.9809  0.7303  0.1117
19481TIP3   OH279857   5.390   5.486  16.818  0.0184 -0.2462 -0.0224
19481TIP3    H179858   5.399   5.504  16.725 -2.0383  0.2967 -0.1385
19481TIP3    H279859   5.308   5.438  16.826 -0.1921  0.3267  1.5871
19482TIP3   OH279860   5.534   2.900   3.692 -0.0723 -0.4246 -0.5571
19482TIP3    H179861   5.601   2.909   3.761 -0.5469  0.0546 -0.1567
19482TIP3    H279862   5.452   2.892   3.740 -0.4648  0.4209 -1.0801
19483TIP3   OH279863   4.299   6.676  12.884  1.0302  0.0679  0.2201
19483TIP3    H179864   4.206   6.651  12.888  0.7830  0.6261 -1.5842
19483TIP3    H279865   4.341   6.604  12.837  0.8127  1.6183 -2.4330
19484TIP3   OH279866   3.532   6.548  14.411  0.2859  0.1476 -0.2650
19484TIP3    H179867   3.445   6.581  14.390  0.7282  0.7455 -1.1916
19484TIP3    H279868   3.579   6.624  14.446 -0.1548 -0.6258  2.0517
19485TIP3   OH279869   4.501   0.144  14.369 -0.2928 -0.1865  0.0349
19485TIP3    H179870   4.444   0.159  14.294 -2.0102  0.9644  1.5097
19485TIP3    H279871   4.499   0.227  14.418  0.8992 -0.8570  1.2698
19486TIP3   OH279872   3.555   4.282   5.506 -0.0410 -0.2593  0.3842
19486TIP3    H179873   3.555   4.346   5.577 -0.2878 -1.3231  1.3541
19486TIP3    H279874   3.565   4.335   5.427 -2.0068  1.1557  1.0139
19487TIP3   OH279875   5.358   2.764  11.919 -0.0419 -0.8008  0.0071
19487TIP3    H179876   5.273   2.743  11.957  0.4780 -0.7559  1.2035
19487TIP3    H279877   5.352   2.857  11.897  0.5086 -0.2018  2.2850
19488TIP3   OH279878   6.720   1.349  15.249  0.3202 -1.0198  0.7268
19488TIP3    H179879   6.724   1.259  15.283  0.2350 -1.1386  0.4239
19488TIP3    H279880   6.811   1.375  15.238  0.3443 -1.0911  0.7562
19489TIP3   OH279881   5.323   1.398   0.354  0.4871  0.0773 -0.5525
19489TIP3    H179882   5.302   1.307   0.334  1.2400  0.2791 -2.3442
19489TIP3    H279883   5.238   1.438   0.376  0.1930 -1.1018  0.4646
19490TIP3   OH279884   3.442   0.715   5.157 -0.3484  0.0344 -0.2919
19490TIP3    H179885   3.498   0.765   5.216 -2.0245  0.0944  1.2919
19490TIP3    H279886   3.503   0.669   5.099  1.3214  0.1960  1.2868
19491TIP3   OH279887   4.401   0.682   4.955  0.0956  0.3216  0.1130
19491TIP3    H179888   4.400   0.667   5.049  0.2044  0.4220  0.1301
19491TIP3    H279889   4.454   0.611   4.919  1.4593  1.2307  0.2930
19492TIP3   OH279890   2.236   2.200  13.719  0.0341 -0.1976 -0.4661
19492TIP3    H179891   2.231   2.219  13.812  1.7403 -0.5862 -0.2728
19492TIP3    H279892   2.163   2.248  13.680 -0.1234  0.7314  0.9455
19493TIP3   OH279893   1.754   2.817  11.899 -0.4244  0.0069 -0.5360
19493TIP3    H179894   1.712   2.833  11.983 -0.1075  0.5330 -0.4714
19493TIP3    H279895   1.832   2.765  11.920 -1.0740 -1.0242 -0.6637
19494TIP3   OH279896   2.061   0.681   0.430  0.0659  1.2342  0.4664
19494TIP3    H179897   2.014   0.598   0.439  0.5004  1.0027  0.5828
19494TIP3    H279898   2.140   0.670   0.482  0.3628  1.5450  0.0865
19495TIP3   OH279899   2.514   0.221  16.449 -0.1635 -0.1430 -0.4752
19495TIP3    H179900   2.430   0.262  16.470  0.0828  0.4398 -0.6166
19495TIP3    H279901   2.579   0.285  16.478  0.2616 -1.0249  0.5798
19496TIP3   OH279902   4.792   3.084   4.248 -0.0810 -0.0936 -0.0665
19496TIP3    H179903   4.701   3.065   4.223 -0.0265  2.1853 -2.2211
19496TIP3    H279904   4.796   3.062   4.341 -2.5456 -1.2213 -0.1683
19497TIP3   OH279905   5.157   1.383   4.406  0.2081 -0.5019 -0.3119
19497TIP3    H179906   5.093   1.438   4.452 -0.7915 -1.7383 -0.1964
19497TIP3    H279907   5.154   1.299   4.453 -0.2574 -1.5242 -2.1426
19498TIP3   OH279908   0.549   1.051   1.741  0.1541  0.3220 -0.1513
19498TIP3    H179909   0.575   0.997   1.816 -1.2038  1.3062  1.0621
19498TIP3    H279910   0.620   1.114   1.732 -0.6750  1.5909  1.7394
19499TIP3   OH279911   4.741   6.326  16.806 -0.1997  0.1553 -0.1350
19499TIP3    H179912   4.681   6.300  16.736 -0.1668 -0.7660  0.1747
19499TIP3    H279913   4.700   6.293  16.886  0.0158  0.7649  0.2320
19500TIP3   OH279914   3.883   1.494   6.158  0.2379 -0.5141  0.1482
19500TIP3    H179915   3.956   1.499   6.219 -0.7372  0.4075  1.2780
19500TIP3    H279916   3.923   1.481   6.072  1.5618 -3.7446  1.1893
19501TIP3   OH279917   5.146   0.825  13.832  0.2712  0.5354  0.4995
19501TIP3    H179918   5.224   0.871  13.860  1.9738 -0.2684 -2.7077
19501TIP3    H279919   5.124   0.862  13.747 -2.1725 -0.0721  0.8004
19502TIP3   OH279920   4.988   1.380   2.937 -0.5666  0.3761  1.1822
19502TIP3    H179921   5.011   1.447   2.873  0.0961 -1.8610 -0.9973
19502TIP3    H279922   4.893   1.378   2.938 -0.5868  1.1923  1.1249
19503TIP3   OH279923   6.620   2.312   5.742  0.2339 -0.2665 -0.2103
19503TIP3    H179924   6.592   2.330   5.832  2.9604  1.4410  0.3685
19503TIP3    H279925   6.538   2.307   5.692 -1.2432  1.0361  1.9625
19504TIP3   OH279926   0.162   4.644   3.923  0.8504 -0.3110  0.2028
19504TIP3    H179927   0.152   4.716   3.860  1.4808 -1.6566 -1.4652
19504TIP3    H279928   0.247   4.606   3.903  0.9828 -0.8671  1.7809
19505TIP3   OH279929   0.859   3.620   1.296 -0.4519  0.2093  0.3486
19505TIP3    H179930   0.788   3.611   1.360  0.6563 -1.6883  1.3635
19505TIP3    H279931   0.928   3.666   1.344  0.3119 -1.0586  0.4788
19506TIP3   OH279932   4.221   4.379  16.644 -0.4928  0.8025 -0.1400
19506TIP3    H179933   4.270   4.297  16.648 -1.2401  0.3947  0.6495
19506TIP3    H279934   4.152   4.362  16.580  0.3575  1.3695 -1.2365
19507TIP3   OH279935   6.734   6.631  15.413 -0.1070 -0.1871 -0.0794
19507TIP3    H179936   6.823   6.645  15.445 -0.0621  1.1793 -0.7542
19507TIP3    H279937   6.678   6.654  15.487  0.0622  0.5832 -0.1875
19508TIP3   OH279938   4.126   1.655   4.006 -0.3812  0.2103  0.0078
19508TIP3    H179939   4.064   1.710   4.055 -0.2232  0.2749  0.1366
19508TIP3    H279940   4.100   1.565   4.027 -0.7532  0.2386 -0.3489
19509TIP3   OH279941   6.286   1.214   3.408 -0.0982  0.2084  0.4557
19509TIP3    H179942   6.195   1.242   3.413 -0.3661 -0.4397 -0.6772
19509TIP3    H279943   6.282   1.121   3.387  0.8204  0.2480  0.0620
19510TIP3   OH279944   2.889   4.052  12.283  0.2456 -0.5705  0.1835
19510TIP3    H179945   2.953   4.117  12.255 -0.0218 -0.0653  0.7495
19510TIP3    H279946   2.834   4.036  12.206 -0.1393  0.3986  0.2599
19511TIP3   OH279947   4.105   3.013  12.358 -0.4033 -0.2080 -0.1847
19511TIP3    H179948   4.172   3.040  12.296  1.1408  0.2325  1.6084
19511TIP3    H279949   4.137   2.931  12.395 -0.3528  0.4658  1.3430
19512TIP3   OH279950   6.445   6.651   3.023 -0.4404  0.4244 -0.6908
19512TIP3    H179951   6.520   6.598   3.053 -0.3289  0.3911 -1.0289
19512TIP3    H279952   6.440   6.722   3.087 -0.2774  0.2855 -0.5189
19513TIP3   OH279953   1.020   4.632  12.490 -0.3035  0.1763 -0.0619
19513TIP3    H179954   0.994   4.649  12.581 -1.7166 -2.3860  0.0415
19513TIP3    H279955   0.999   4.540  12.475  0.6221  0.3542 -2.7670
19514TIP3   OH279956   6.660   0.134   2.443  0.2128  0.7689 -0.7027
19514TIP3    H179957   6.662   0.119   2.537 -0.3954 -0.1970 -0.8338
19514TIP3    H279958   6.740   0.184   2.425  1.0145 -0.1700  0.1433
19515TIP3   OH279959   1.163   6.536  12.073  0.0979  0.1922  0.4941
19515TIP3    H179960   1.110   6.548  11.995  0.3589  1.0448  0.4467
19515TIP3    H279961   1.226   6.608  12.071  1.1131 -0.6737  0.6684
19516TIP3   OH279962   0.688   3.793   2.077  0.2776 -0.0299 -0.4668
19516TIP3    H179963   0.694   3.868   2.018 -1.6591  0.6981  0.2145
19516TIP3    H279964   0.677   3.832   2.164  0.5558 -1.0968  0.0511
19517TIP3   OH279965   2.311   0.678   0.580  0.3453 -0.2700 -0.1644
19517TIP3    H179966   2.355   0.646   0.501  1.6452 -0.7410  0.7317
19517TIP3    H279967   2.363   0.753   0.608 -0.2318  0.0211  0.1493
19518TIP3   OH279968   2.629   4.815   0.253  0.1203  0.4278  0.4614
19518TIP3    H179969   2.604   4.741   0.198  2.4427 -1.3007  1.6340
19518TIP3    H279970   2.711   4.847   0.214  0.3176  0.9572  1.2943
19519TIP3   OH279971   4.365   3.014   2.124  0.2322  0.5476  0.5555
19519TIP3    H179972   4.277   3.050   2.114 -0.5159 -1.0367  1.2180
19519TIP3    H279973   4.371   2.946   2.057  0.3743 -0.3948  1.5130
19520TIP3   OH279974   5.908   1.910   5.564 -0.2999  0.0826  0.0420
19520TIP3    H179975   5.899   1.993   5.611  0.5817  0.7593 -0.9768
19520TIP3    H279976   6.002   1.894   5.559 -0.3729  0.1088 -1.6563
19521TIP3   OH279977   5.611   6.086  16.786  0.2754 -0.0292  0.4412
19521TIP3    H179978   5.543   6.150  16.768 -0.7967 -1.0728  0.7692
19521TIP3    H279979   5.627   6.043  16.703 -0.6202 -0.9085  0.7258
19522TIP3   OH279980   0.236   2.761   5.451  0.5141 -0.4688 -0.7980
19522TIP3    H179981   0.164   2.802   5.499 -0.0532 -1.3629 -0.8832
19522TIP3    H279982   0.196   2.690   5.402  1.4081 -0.7903 -1.0847
19523TIP3   OH279983   4.687   4.004   2.125  0.3236  0.2252  0.0611
19523TIP3    H179984   4.600   3.969   2.110 -0.1932  1.8817 -0.9702
19523TIP3    H279985   4.676   4.066   2.197  0.6369  0.4927 -0.1219
19524TIP3   OH279986   5.202   2.968   2.834 -0.0835  0.0529 -0.0378
19524TIP3    H179987   5.258   3.045   2.847  0.9232 -0.7078  0.1457
19524TIP3    H279988   5.158   2.985   2.751  1.7327 -0.1345 -1.0603
19525TIP3   OH279989   4.956   1.537   6.264 -0.3138 -0.1375  0.1192
19525TIP3    H179990   4.898   1.546   6.340 -0.1260  1.0372  0.1308
19525TIP3    H279991   4.919   1.463   6.215 -0.8782 -0.4294  0.9518
19526TIP3   OH279992   6.583   2.326   5.160  0.3825 -0.3911  0.0803
19526TIP3    H179993   6.631   2.254   5.121  2.1457  0.8579 -0.1216
19526TIP3    H279994   6.648   2.396   5.171 -1.4787  1.5254 -0.6458
19527TIP3   OH279995   1.617   2.405   0.226  0.0715 -0.1179 -0.1216
19527TIP3    H179996   1.526   2.376   0.229  0.1701 -0.4991 -0.6271
19527TIP3    H279997   1.662   2.337   0.175 -0.1963  2.1929 -3.6447
19528TIP3   OH279998   2.916   0.767  13.115 -0.2249  0.3550  0.0144
19528TIP3    H179999   2.893   0.853  13.151 -0.3357 -0.4666  1.9325
19528TIP3    H280000   2.985   0.734  13.173 -1.0075 -1.3635 -0.0058
19529TIP3   OH280001   3.345   4.665   6.216  0.0584  0.2641 -0.1984
19529TIP3    H180002   3.387   4.683   6.300  1.0986  0.1654 -0.7005
19529TIP3    H280003   3.309   4.577   6.225 -0.1882  0.4124  0.2798
19530TIP3   OH280004   2.128   5.731   0.296 -0.3730  0.1934 -0.3026
19530TIP3    H180005   2.219   5.753   0.277 -0.5779  0.5648 -0.8697
19530TIP3    H280006   2.103   5.670   0.227 -0.5153 -0.0125 -0.0704
19531TIP3   OH280007   2.767   1.229  17.151 -0.4325  0.5694 -0.0008
19531TIP3    H180008   2.835   1.295  17.154  0.0972 -0.0109  1.0781
19531TIP3    H280009   2.741   1.215  17.242  0.0888 -1.3269 -0.1075
19532TIP3   OH280010   3.126   3.787  13.899 -0.0940 -0.1279  0.7720
19532TIP3    H180011   3.065   3.856  13.928  0.1059  0.1525  0.5304
19532TIP3    H280012   3.071   3.711  13.883 -0.5379  0.4890 -0.6491
19533TIP3   OH280013   1.937   0.897   6.327  0.3416 -0.0837  0.1923
19533TIP3    H180014   2.000   0.944   6.381  0.8630  0.1444 -0.6275
19533TIP3    H280015   1.855   0.945   6.340  0.9807  1.3892 -1.0617
19534TIP3   OH280016   4.340   1.562   2.888 -0.3497 -0.2982  0.1778
19534TIP3    H180017   4.306   1.560   2.799 -1.2772  3.4249  0.3981
19534TIP3    H280018   4.265   1.586   2.943  1.4575  3.3433  1.2125
19535TIP3   OH280019   1.567   3.878  11.588 -0.0300  0.2653 -0.0392
19535TIP3    H180020   1.541   3.947  11.650 -0.1484 -2.4700  3.0902
19535TIP3    H280021   1.661   3.867  11.602 -0.1095 -0.5576 -0.1182
19536TIP3   OH280022   3.507   4.995  10.764 -0.0681  0.4883  0.8003
19536TIP3    H180023   3.536   4.937  10.835 -1.9465  0.8522  1.8997
19536TIP3    H280024   3.422   5.027  10.793 -1.2985 -0.0560 -2.0521
19537TIP3   OH280025   1.661   4.838  13.762  0.1748 -0.0962 -0.0517
19537TIP3    H180026   1.622   4.751  13.756  0.7284 -0.3653  0.2153
19537TIP3    H280027   1.652   4.875  13.675  0.1852 -0.5326 -0.2381
19538TIP3   OH280028   2.630   4.523   5.613  0.5790 -0.2311  0.4949
19538TIP3    H180029   2.678   4.543   5.533  1.6308 -0.0887  1.1564
19538TIP3    H280030   2.597   4.607   5.643 -0.0854 -0.3294  0.0390
19539TIP3   OH280031   6.025   5.868   5.265 -0.8312 -0.0923 -0.1048
19539TIP3    H180032   6.011   5.896   5.355  0.6009  2.1264 -0.5147
19539TIP3    H280033   6.011   5.773   5.266  0.9047 -0.3695  2.8013
19540TIP3   OH280034   0.707   5.365   3.568 -0.0117 -0.1371 -0.3178
19540TIP3    H180035   0.796   5.330   3.567  0.0407 -0.0354  0.5777
19540TIP3    H280036   0.686   5.376   3.660 -0.3276  1.4366 -0.5642
19541TIP3   OH280037   0.562   1.748  16.948 -0.2897  0.3552  0.1886
19541TIP3    H180038   0.601   1.662  16.961  0.6586  0.6824 -0.4091
19541TIP3    H280039   0.597   1.801  17.019 -1.1220  0.1662  0.7429
19542TIP3   OH280040   4.054   2.373  16.342 -0.2262 -0.5237  0.5006
19542TIP3    H180041   4.035   2.447  16.284  3.6930  1.2942  1.3374
19542TIP3    H280042   4.017   2.399  16.426  1.4487  0.7411  0.8853
19543TIP3   OH280043   6.604   6.486   4.598  0.3085  0.8033 -0.2278
19543TIP3    H180044   6.659   6.427   4.649 -1.2515  0.1106  0.6635
19543TIP3    H280045   6.645   6.572   4.608  0.2353  0.6092  1.8805
19544TIP3   OH280046   4.864   3.665  10.505 -0.2519 -0.3583 -0.3263
19544TIP3    H180047   4.789   3.703  10.551  0.7987  0.0145  1.0981
19544TIP3    H280048   4.829   3.586  10.464 -1.3099 -0.4594  0.7514
19545TIP3   OH280049   1.854   4.913   5.509 -0.6032 -0.0719 -0.0730
19545TIP3    H180050   1.839   4.998   5.469 -0.0211 -0.0592 -0.2717
19545TIP3    H280051   1.776   4.862   5.488 -1.3181  0.6774  0.7557
19546TIP3   OH280052   1.946   3.374   1.663  0.2907  0.0778 -0.5146
19546TIP3    H180053   1.966   3.418   1.580  1.7040  0.4514  0.0011
19546TIP3    H280054   1.905   3.443   1.716  3.4173  1.1134  0.6502
19547TIP3   OH280055   1.780   2.179  12.848 -0.1689  0.4481  0.4218
19547TIP3    H180056   1.814   2.243  12.910  0.6108 -0.5478  1.0360
19547TIP3    H280057   1.773   2.098  12.898 -0.3476 -0.1561 -0.5632
19548TIP3   OH280058   6.079   0.305  12.410 -0.6965 -0.2410  0.4812
19548TIP3    H180059   6.060   0.394  12.442  1.7087  0.5699 -0.1946
19548TIP3    H280060   6.097   0.317  12.317 -1.4669 -1.6389  0.1460
19549TIP3   OH280061   4.247   2.879  14.849  0.4150  0.6737 -0.2218
19549TIP3    H180062   4.192   2.945  14.808 -0.0002  0.9038  0.7046
19549TIP3    H280063   4.337   2.910  14.835  0.1679  2.2093  1.5351
19550TIP3   OH280064   3.480   1.515   5.071 -0.3403  0.4964 -0.5699
19550TIP3    H180065   3.521   1.468   5.144 -0.5551  1.8570  0.4508
19550TIP3    H280066   3.394   1.539   5.104 -1.9475 -2.1521 -2.6186
19551TIP3   OH280067   6.557   5.555   4.557  0.1355  0.0895  0.5240
19551TIP3    H180068   6.482   5.602   4.521 -1.9809  0.1392  4.6522
19551TIP3    H280069   6.541   5.464   4.536 -0.7506  0.1891  0.7400
19552TIP3   OH280070   1.787   2.604   1.274 -0.4324  0.5961 -0.0825
19552TIP3    H180071   1.806   2.686   1.229  0.3566  0.9459  0.8662
19552TIP3    H280072   1.873   2.574   1.306 -0.8702 -0.0444  0.4956
19553TIP3   OH280073   4.862   1.036   0.481  0.1050 -0.0691  0.3956
19553TIP3    H180074   4.892   1.084   0.404 -1.9555 -0.0422 -0.4335
19553TIP3    H280075   4.856   1.101   0.550 -3.2237  1.0701 -0.8687
19554TIP3   OH280076   3.982   4.917   4.611 -0.3099 -0.3267 -0.4948
19554TIP3    H180077   3.971   4.880   4.524 -1.0138  1.5254 -1.2182
19554TIP3    H280078   3.979   5.012   4.598 -0.1810 -0.0128  1.5066
19555TIP3   OH280079   0.265   3.421   0.221 -0.3275  0.6894  0.1612
19555TIP3    H180080   0.191   3.398   0.276 -0.5239 -0.2522 -0.4878
19555TIP3    H280081   0.337   3.434   0.282 -0.3630 -1.0425  0.6066
19556TIP3   OH280082   2.638   5.651   4.541  0.8385  0.0868  0.2592
19556TIP3    H180083   2.694   5.582   4.504  0.6792 -0.1930  0.5335
19556TIP3    H280084   2.555   5.641   4.494  0.9871  0.4407 -0.0811
19557TIP3   OH280085   1.058   1.464  16.679  0.2164  0.1988 -0.0777
19557TIP3    H180086   1.118   1.457  16.753 -0.5117 -0.3923  0.4578
19557TIP3    H280087   1.105   1.424  16.606  0.3698 -0.5107  0.4068
19558TIP3   OH280088   0.244   3.707   0.403  0.4151  0.3667  0.0505
19558TIP3    H180089   0.223   3.673   0.490 -0.4543  1.9025  0.4567
19558TIP3    H280090   0.313   3.649   0.371 -1.3452 -2.0361  0.5354
19559TIP3   OH280091   4.708   6.335  12.612  0.2458  1.1507  0.9016
19559TIP3    H180092   4.658   6.284  12.549  0.6875  1.1277  0.5697
19559TIP3    H280093   4.710   6.423  12.576 -0.2246  1.3298  1.3048
19560TIP3   OH280094   5.895   5.017  10.916  0.2201  0.3748  0.1215
19560TIP3    H180095   5.810   4.973  10.909  0.5790 -0.5188  1.1656
19560TIP3    H280096   5.877   5.096  10.968 -0.0872  0.5098 -0.1870
19561TIP3   OH280097   4.440   1.623  13.855 -0.3471 -0.5601  0.3468
19561TIP3    H180098   4.441   1.647  13.948  1.3925  0.3362  0.1229
19561TIP3    H280099   4.356   1.579  13.842 -1.1046  0.3299  2.0904
19562TIP3   OH280100   4.736   2.283   5.197 -0.1361  0.1993 -0.0487
19562TIP3    H180101   4.763   2.199   5.161  0.5880 -0.1613  1.2885
19562TIP3    H280102   4.766   2.281   5.288 -2.1257  0.9576  0.6713
19563TIP3   OH280103   2.272   3.196  13.007  0.4216  0.5309 -0.4243
19563TIP3    H180104   2.328   3.248  12.950  0.2152  2.3670  1.0304
19563TIP3    H280105   2.328   3.170  13.080 -0.3898  1.6391  0.5992
19564TIP3   OH280106   3.532   5.351   4.004  0.2019  0.5011  0.0781
19564TIP3    H180107   3.564   5.263   3.980 -0.5588  0.3476 -0.3934
19564TIP3    H280108   3.448   5.358   3.959  1.0941  2.1895 -1.3743
19565TIP3   OH280109   1.012   2.335  16.409 -0.0030  0.0274 -0.4100
19565TIP3    H180110   0.929   2.338  16.457 -0.6396  1.9166 -1.5828
19565TIP3    H280111   1.005   2.257  16.354 -0.1862 -0.8893  0.8697
19566TIP3   OH280112   1.804   6.224   5.451 -0.1952 -0.3508  0.1332
19566TIP3    H180113   1.811   6.132   5.427 -0.9036 -0.0158 -1.4141
19566TIP3    H280114   1.895   6.256   5.451  0.2806 -1.5491  2.8728
19567TIP3   OH280115   1.516   4.206   0.016  0.0358 -0.4639 -0.0509
19567TIP3    H180116   1.433   4.172  -0.017 -0.5039  1.0607 -0.2528
19567TIP3    H280117   1.581   4.142  -0.015 -0.8271 -0.6793 -1.4599
19568TIP3   OH280118   5.718   2.037  14.033 -0.1584  0.7676 -0.4997
19568TIP3    H180119   5.666   1.989  13.969 -0.1675 -0.9093  0.7306
19568TIP3    H280120   5.655   2.092  14.079 -0.6723 -0.3617  0.1715
19569TIP3   OH280121   4.170   4.131  10.564  0.0208 -0.3482  0.3400
19569TIP3    H180122   4.126   4.064  10.617  1.4574 -0.9807  0.7528
19569TIP3    H280123   4.102   4.195  10.545 -1.6421 -2.4078 -0.8795
19570TIP3   OH280124   3.962   4.409  15.852  0.0381  0.0204  0.7283
19570TIP3    H180125   3.980   4.431  15.761  1.3272 -0.8973  0.7584
19570TIP3    H280126   3.986   4.488  15.900  1.2944 -0.1955  0.4736
19571TIP3   OH280127   4.160   6.668   0.043  0.5739 -0.4682 -0.0912
19571TIP3    H180128   4.184   6.705   0.127 -1.1577  0.3330  0.0712
19571TIP3    H280129   4.234   6.612   0.019  0.6625 -1.4890  2.4218
19572TIP3   OH280130   5.765   4.438  15.804  0.0524 -0.2225  0.0416
19572TIP3    H180131   5.690   4.474  15.852  1.3901 -0.1564  2.1420
19572TIP3    H280132   5.733   4.354  15.771 -0.9197 -0.2844  1.0788
19573TIP3   OH280133   4.200   3.294  14.156  0.4177 -0.3906  0.7561
19573TIP3    H180134   4.267   3.250  14.209  0.4128  0.0413  1.1268
19573TIP3    H280135   4.126   3.305  14.216 -0.5835 -2.3003 -0.1118
19574TIP3   OH280136   4.992   6.757  13.591 -0.3928 -0.2623  0.3073
19574TIP3    H180137   4.953   6.744  13.678 -0.7220 -2.0220 -0.0893
19574TIP3    H280138   4.917   6.759  13.532 -0.0809 -0.4772 -0.0964
19575TIP3   OH280139   2.155   2.590  13.091  0.4266  0.8485  0.1291
19575TIP3    H180140   2.063   2.613  13.079  0.6640  1.5098 -0.4685
19575TIP3    H280141   2.182   2.557  13.005  0.4164 -0.5285  0.6430
19576TIP3   OH280142   5.349   0.629   4.642 -0.4034  0.6510 -0.2095
19576TIP3    H180143   5.283   0.570   4.679  2.5084 -1.7452  1.4316
19576TIP3    H280144   5.386   0.579   4.569  1.5009  0.7626  0.6550
19577TIP3   OH280145   0.065   5.165  16.903 -0.2697  0.3806 -0.4596
19577TIP3    H180146   0.007   5.242  16.903 -1.2515 -0.3370  0.7787
19577TIP3    H280147   0.050   5.125  16.817 -0.4591  1.0473 -0.7462
19578TIP3   OH280148   2.377   1.655  16.135  0.0389 -1.0426  0.5463
19578TIP3    H180149   2.469   1.664  16.158 -0.5436 -0.6184  2.8727
19578TIP3    H280150   2.359   1.731  16.080  0.6266 -0.0423  1.6987
19579TIP3   OH280151   3.403   4.134  15.020  0.0307  0.9198 -0.0207
19579TIP3    H180152   3.378   4.189  15.094  2.3456  2.2523 -0.1808
19579TIP3    H280153   3.487   4.096  15.046  0.1905  0.3060 -1.4039
19580TIP3   OH280154   5.241   3.483  16.306  0.4963  0.5988  0.1010
19580TIP3    H180155   5.273   3.482  16.396  0.1718 -1.5587  0.2269
19580TIP3    H280156   5.198   3.398  16.294  1.8717  0.2154 -2.5730
19581TIP3   OH280157   5.164   1.859  14.910 -0.0998 -0.0919  0.3311
19581TIP3    H180158   5.139   1.880  15.000 -1.9787 -0.2534 -0.1347
19581TIP3    H280159   5.255   1.887  14.903 -0.6188  2.0059  1.5993
19582TIP3   OH280160   3.865   1.481   1.957  0.7201  0.6272  0.0521
19582TIP3    H180161   3.844   1.570   1.987 -0.4350  0.3275  0.1303
19582TIP3    H280162   3.900   1.494   1.869 -2.4335  0.9201 -1.2181
19583TIP3   OH280163   5.360   5.150   3.261 -0.7095 -0.1390 -0.4470
19583TIP3    H180164   5.264   5.147   3.263 -0.6981 -1.1962 -0.9076
19583TIP3    H280165   5.387   5.061   3.284  0.2775  1.1612  3.8320
19584TIP3   OH280166   3.534   3.574  10.996 -0.4486 -0.3754  0.1188
19584TIP3    H180167   3.529   3.670  11.004  0.3214 -0.0421 -2.7067
19584TIP3    H280168   3.502   3.557  10.907  0.0905 -2.6912  0.3550
19585TIP3   OH280169   1.334   3.643  13.690 -0.2488  0.3412  0.5884
19585TIP3    H180170   1.283   3.576  13.735 -1.1699 -0.2198 -1.2358
19585TIP3    H280171   1.270   3.690  13.637  0.7562  1.2116  0.1275
19586TIP3   OH280172   6.692   1.008  16.229  0.3958  0.0797  0.2798
19586TIP3    H180173   6.688   1.056  16.146  3.1092  0.1641  0.1172
19586TIP3    H280174   6.611   1.029  16.273  0.4829  2.9838 -0.8091
19587TIP3   OH280175   3.089   4.058  13.649  0.2188  0.4462 -0.3847
19587TIP3    H180176   2.996   4.059  13.623  0.0091 -0.8254  0.2599
19587TIP3    H280177   3.137   4.065  13.566 -0.4528 -0.8258 -0.8921
19588TIP3   OH280178   0.686   0.529   0.750 -0.1478  0.0873 -0.5396
19588TIP3    H180179   0.692   0.523   0.845  0.2102 -2.0159 -0.6707
19588TIP3    H280180   0.601   0.489   0.729 -0.5921  1.2925 -1.0357
19589TIP3   OH280181   0.581   2.557  12.976 -0.1528 -0.2882 -0.4359
19589TIP3    H180182   0.538   2.635  13.011 -1.1721 -1.5159  1.1721
19589TIP3    H280183   0.673   2.567  13.001 -0.1295  0.7859 -0.9569
19590TIP3   OH280184   5.911   2.885   0.071 -0.3751  0.1947 -0.3900
19590TIP3    H180185   5.868   2.931   0.143 -1.4964  0.8261 -1.4367
19590TIP3    H280186   5.887   2.793   0.082  1.2276 -0.0422  1.2633
19591TIP3   OH280187   4.793   2.372   3.113 -0.2354  0.4991  0.8238
19591TIP3    H180188   4.877   2.418   3.115 -0.2473  0.5508  0.0555
19591TIP3    H280189   4.750   2.404   3.034 -0.2570 -0.8312  0.3023
19592TIP3   OH280190   2.749   1.272  14.939 -0.7015 -0.2643 -0.2219
19592TIP3    H180191   2.782   1.362  14.950  2.0194 -1.3855  1.5751
19592TIP3    H280192   2.660   1.275  14.973 -0.2241  1.5221  0.9934
19593TIP3   OH280193   4.248   6.325   0.866 -0.2217  0.1073  0.3466
19593TIP3    H180194   4.277   6.387   0.933  0.6340  0.0276  0.0647
19593TIP3    H280195   4.221   6.247   0.915  1.9576 -0.5711  0.5527
19594TIP3   OH280196   6.185   5.377   5.819  0.1119  0.5478  0.0489
19594TIP3    H180197   6.146   5.429   5.888 -0.4054  2.1940 -1.4621
19594TIP3    H280198   6.238   5.311   5.865  0.2003  1.9458  1.9729
19595TIP3   OH280199   4.682   3.362   2.861 -0.1106  0.1897  0.9480
19595TIP3    H180200   4.627   3.284   2.851 -0.8292  0.5997  1.6328
19595TIP3    H280201   4.642   3.427   2.804  0.4217  0.0916  0.4644
19596TIP3   OH280202   5.438   3.839  13.047 -0.0877 -0.3308  0.1404
19596TIP3    H180203   5.482   3.829  13.131 -1.4044  0.0779  0.8839
19596TIP3    H280204   5.507   3.824  12.982  0.8013 -1.2517  1.2780
19597TIP3   OH280205   5.621   2.770  12.917  0.4313  0.6359 -0.2693
19597TIP3    H180206   5.620   2.851  12.867  1.3716  0.5529 -0.4249
19597TIP3    H280207   5.621   2.701  12.850  0.2461  0.5134 -0.1421
19598TIP3   OH280208   4.173   1.152   0.584  0.1566 -0.2647 -0.2955
19598TIP3    H180209   4.159   1.111   0.499 -1.1139 -0.1812 -0.1280
19598TIP3    H280210   4.090   1.193   0.606  1.2957  2.1749 -0.3145
19599TIP3   OH280211   2.899   1.906  13.968 -0.3230  0.0201 -0.2418
19599TIP3    H180212   2.974   1.923  14.025 -0.3763  0.8370 -0.4109
19599TIP3    H280213   2.850   1.838  14.013  0.8138 -0.9318 -0.4074
19600TIP3   OH280214   6.253   0.234   0.531 -0.0599 -0.1850 -0.1552
19600TIP3    H180215   6.261   0.189   0.615 -1.3414  0.0864  0.1246
19600TIP3    H280216   6.222   0.166   0.471 -1.5301  0.1846  0.1597
19601TIP3   OH280217   4.028   3.072  14.303 -0.4911 -0.2055  0.2700
19601TIP3    H180218   3.951   3.063  14.247  0.0266 -0.0942 -0.4605
19601TIP3    H280219   4.004   3.026  14.383 -1.3877 -0.0218  0.1180
19602TIP3   OH280220   2.370   5.580   6.223  0.0659 -0.4701  0.9074
19602TIP3    H180221   2.444   5.520   6.233  1.4330  0.9091 -0.6253
19602TIP3    H280222   2.300   5.527   6.185  0.6965 -1.4572  1.1047
19603TIP3   OH280223   2.496   3.628  14.422  0.3144  0.2402  0.0960
19603TIP3    H180224   2.416   3.673  14.451  0.5282 -0.3378  1.6189
19603TIP3    H280225   2.488   3.624  14.327 -1.6343 -0.1034  0.2560
19604TIP3   OH280226   3.370   5.036   1.316 -1.0732  0.2277  0.4195
19604TIP3    H180227   3.279   5.042   1.347 -1.1010  0.2212  0.3405
19604TIP3    H280228   3.423   5.061   1.392 -1.1960  1.8783 -0.0221
19605TIP3   OH280229   5.287   3.962  12.616  0.3776 -0.3860  0.8573
19605TIP3    H180230   5.192   3.966  12.609  0.4845  0.6966 -0.1179
19605TIP3    H280231   5.314   3.897  12.551  0.5843  2.1878 -1.7155
19606TIP3   OH280232   0.214   3.027  15.802 -0.3372  0.2380 -0.3352
19606TIP3    H180233   0.184   2.969  15.732 -0.8502  1.3668 -1.0593
19606TIP3    H280234   0.139   3.036  15.861 -0.6511  1.1312 -0.8662
19607TIP3   OH280235   5.676   6.266  10.735 -0.7756 -0.2031  0.4025
19607TIP3    H180236   5.703   6.358  10.741 -2.1757  0.2848 -0.5863
19607TIP3    H280237   5.701   6.240  10.646 -1.4708 -0.4226  0.2718
19608TIP3   OH280238   4.808   1.353   2.402 -0.3302 -0.6109  0.3115
19608TIP3    H180239   4.734   1.299   2.376 -0.7935  0.2668 -0.1976
19608TIP3    H280240   4.769   1.426   2.450 -0.0116  1.1151 -1.9798
19609TIP3   OH280241   5.388   0.596  12.624  0.3114 -0.0987 -0.2950
19609TIP3    H180242   5.359   0.671  12.675  2.8280  0.9252 -0.2604
19609TIP3    H280243   5.308   0.548  12.602 -1.1252  1.3994  1.5361
19610TIP3   OH280244   3.996   3.719  11.471  0.5782  0.2106  0.0339
19610TIP3    H180245   3.973   3.811  11.489 -0.4676  0.0980 -0.6989
19610TIP3    H280246   3.974   3.706  11.379 -2.3342 -1.6722  0.9243
19611TIP3   OH280247   6.267   3.326  16.565 -0.0947 -0.0833  0.2879
19611TIP3    H180248   6.318   3.297  16.641 -2.5234 -1.3770  1.4666
19611TIP3    H280249   6.294   3.266  16.495  2.1281  1.0909  0.0829
19612TIP3   OH280250   1.193   0.732   1.831 -0.3277 -0.0779 -0.3724
19612TIP3    H180251   1.241   0.794   1.776  2.0234 -0.4842  1.1843
19612TIP3    H280252   1.199   0.769   1.919 -0.7403 -1.4251  0.2240
19613TIP3   OH280253   4.868   1.740  11.183 -0.3825 -0.2748  0.0517
19613TIP3    H180254   4.786   1.742  11.233 -0.4455  1.0278 -0.0938
19613TIP3    H280255   4.918   1.815  11.215  0.4379 -0.6199 -0.4007
19614TIP3   OH280256   3.869   0.540  15.383 -0.0063 -0.0063 -0.7466
19614TIP3    H180257   3.885   0.490  15.463  0.1685 -0.3416 -0.9906
19614TIP3    H280258   3.784   0.509  15.351 -0.7165  1.0880  0.0286
19615TIP3   OH280259   2.510   0.968   2.794  0.3084 -0.2825  0.1580
19615TIP3    H180260   2.599   0.990   2.766 -0.3944  0.6802 -1.4203
19615TIP3    H280261   2.490   1.029   2.865  0.8408 -0.3809  0.3909
19616TIP3   OH280262   5.633   1.022   4.774  0.8178 -0.4293 -0.1836
19616TIP3    H180263   5.681   0.977   4.704  1.4525  0.4287 -0.3013
19616TIP3    H280264   5.577   1.085   4.729 -0.3173 -1.3085 -0.0373
19617TIP3   OH280265   6.619   6.309  13.627 -0.2177 -0.3952  0.1892
19617TIP3    H180266   6.691   6.368  13.608 -0.9559  0.1708 -0.8396
19617TIP3    H280267   6.624   6.242  13.559 -0.0896 -0.8808  0.6731
19618TIP3   OH280268   0.203   5.497  13.334 -0.8082 -0.5771  0.0259
19618TIP3    H180269   0.162   5.541  13.259 -0.4676 -1.5695 -0.7466
19618TIP3    H280270   0.279   5.452  13.298 -0.5580 -0.9499  0.9910
19619TIP3   OH280271   4.768   3.548   5.551 -0.5988 -0.0025  0.5785
19619TIP3    H180272   4.843   3.497   5.581 -0.3167  0.3465  0.4660
19619TIP3    H280273   4.799   3.591   5.471 -0.8797  0.2439  0.6028
19620TIP3   OH280274   3.880   5.753  14.621 -0.1045 -0.2175  0.0447
19620TIP3    H180275   3.922   5.812  14.559  0.8063 -3.2510 -2.3836
19620TIP3    H280276   3.837   5.687  14.566 -0.2215 -2.3844  2.6210
19621TIP3   OH280277   3.369   1.625   2.098 -0.0152 -0.0320 -0.4403
19621TIP3    H180278   3.326   1.587   2.021 -0.4541 -1.1856  0.3639
19621TIP3    H280279   3.400   1.549   2.148 -0.6626  0.6684  1.0633
19622TIP3   OH280280   6.191   6.765   4.989 -0.0210  0.2482  0.3307
19622TIP3    H180281   6.252   6.836   5.009  1.7848 -1.3781  0.8105
19622TIP3    H280282   6.247   6.687   4.980 -1.6686 -0.6789 -2.6376
19623TIP3   OH280283   1.590   6.584   2.346 -0.3576  0.4087  0.0678
19623TIP3    H180284   1.589   6.595   2.441  1.7399  0.1125  0.1388
19623TIP3    H280285   1.550   6.498   2.332 -0.5195  0.3789  0.6838
19624TIP3   OH280286   1.101   6.040  11.716  0.3389  0.1762  0.3351
19624TIP3    H180287   1.079   6.130  11.693  2.1034  0.8808  1.3227
19624TIP3    H280288   1.097   5.992  11.633  0.8448  1.4723 -0.4470
19625TIP3   OH280289   4.252   1.288  11.861  0.1510 -0.7026 -0.3213
19625TIP3    H180290   4.272   1.322  11.774  0.6043 -0.6726 -0.2092
19625TIP3    H280291   4.271   1.195  11.855  0.4071 -0.6596 -0.1908
19626TIP3   OH280292   1.579   4.249   5.472  0.3041 -0.8180  0.4631
19626TIP3    H180293   1.522   4.184   5.512 -0.7748  1.2781  2.4316
19626TIP3    H280294   1.667   4.212   5.481 -0.1826 -1.5638  2.4788
19627TIP3   OH280295   4.199   6.618   2.879  0.4120  0.1713  0.1951
19627TIP3    H180296   4.104   6.613   2.889  0.1803 -0.9757 -2.1966
19627TIP3    H280297   4.231   6.531   2.902  0.7392  0.1986 -0.1367
19628TIP3   OH280298   3.233   5.992  13.167 -0.0678 -0.3283 -0.5089
19628TIP3    H180299   3.292   5.931  13.211 -0.7038 -1.8491 -1.7279
19628TIP3    H280300   3.244   5.973  13.074 -1.0354  0.7274 -0.8501
19629TIP3   OH280301   5.487   6.689  12.736  0.6675  0.6314  0.0224
19629TIP3    H180302   5.475   6.618  12.799  2.6825 -0.3248 -0.6388
19629TIP3    H280303   5.406   6.689  12.684  0.9126 -1.6482 -0.4173
19630TIP3   OH280304   3.980   1.193  14.500  0.4458  0.2688  0.3697
19630TIP3    H180305   3.994   1.268  14.443 -0.4036  1.5676  1.8166
19630TIP3    H280306   4.033   1.211  14.577  1.5436 -1.4391  0.0491
19631TIP3   OH280307   0.605   5.847   1.997 -0.0323 -0.8453 -0.2123
19631TIP3    H180308   0.623   5.905   2.071  2.8183  0.8044 -2.1051
19631TIP3    H280309   0.510   5.852   1.985 -0.1647  1.2371  1.4563
19632TIP3   OH280310   6.644   6.384   6.369 -0.2443  0.2472  0.1893
19632TIP3    H180311   6.652   6.424   6.456  0.2327 -1.6777  1.0829
19632TIP3    H280312   6.730   6.345   6.353 -0.2870  0.7336 -1.2229
19633TIP3   OH280313   5.832   5.697   4.470 -0.1359  0.2805 -0.0504
19633TIP3    H180314   5.771   5.716   4.399 -0.4449  0.6172  0.3014
19633TIP3    H280315   5.883   5.623   4.439  0.1363  0.8155 -0.8665
19634TIP3   OH280316   6.059   3.822  15.845 -0.6183 -0.1106 -0.1779
19634TIP3    H180317   6.153   3.817  15.828 -0.3956 -3.9301  1.6914
19634TIP3    H280318   6.053   3.839  15.940 -1.8699  2.5637 -0.6673
19635TIP3   OH280319   1.358   2.454   4.747  0.1122  0.2678 -0.0498
19635TIP3    H180320   1.433   2.425   4.695  0.1288  0.8935 -0.3802
19635TIP3    H280321   1.295   2.382   4.741  1.5121 -1.1569  1.9488
19636TIP3   OH280322   3.207   6.557  14.756 -0.2321  0.0796  0.0221
19636TIP3    H180323   3.164   6.583  14.837 -0.9760  1.2090 -0.7160
19636TIP3    H280324   3.163   6.609  14.688  0.9225 -0.2486 -0.9939
19637TIP3   OH280325   4.613   6.221   1.859 -0.7466  0.2463  0.1423
19637TIP3    H180326   4.549   6.228   1.789  0.8613  0.1079 -1.3620
19637TIP3    H280327   4.666   6.145   1.836 -0.4955 -0.1025  1.7659
19638TIP3   OH280328   0.947   2.934   5.990  0.1757 -0.6033 -0.1333
19638TIP3    H180329   0.883   2.914   5.921  0.3129 -0.6932 -0.2351
19638TIP3    H280330   0.912   2.892   6.068 -0.4219  0.2395  0.0482
19639TIP3   OH280331   3.228   4.058   2.393  0.3991 -0.6712  0.3161
19639TIP3    H180332   3.232   4.148   2.424 -0.3005 -0.9803  1.3175
19639TIP3    H280333   3.147   4.054   2.342  1.1109 -0.3888 -0.8547
19640TIP3   OH280334   4.936   5.189  16.048 -0.1910 -0.3668 -0.0964
19640TIP3    H180335   4.867   5.155  15.991  0.4032 -3.3220  0.8344
19640TIP3    H280336   5.014   5.191  15.993 -0.3854  0.1723 -0.3517
19641TIP3   OH280337   2.621   1.379  10.504  0.8564 -0.2885  0.3317
19641TIP3    H180338   2.684   1.342  10.565  1.2346  0.1580  0.2120
19641TIP3    H280339   2.657   1.464  10.480  0.1951 -0.0163  0.2860
19642TIP3   OH280340   1.595   0.677   4.768  0.6103 -0.0627  0.2699
19642TIP3    H180341   1.567   0.605   4.825 -0.2823 -0.6803 -0.9196
19642TIP3    H280342   1.572   0.756   4.818  1.5078 -0.5887  1.5408
19643TIP3   OH280343   4.284   6.608   4.851 -0.3728  0.1980  0.3688
19643TIP3    H180344   4.340   6.651   4.787  0.0362  1.7735  1.7178
19643TIP3    H280345   4.195   6.629   4.823 -0.2468 -0.7973 -0.7806
19644TIP3   OH280346   5.020   2.077  11.705  0.1760  0.1867 -0.2386
19644TIP3    H180347   5.022   1.997  11.652  1.1948  0.2333 -0.2792
19644TIP3    H280348   5.034   2.147  11.642 -2.3156  0.5405 -0.4445
19645TIP3   OH280349   5.392   4.892  16.854  0.2113  0.3202  0.1312
19645TIP3    H180350   5.441   4.877  16.935 -2.4000 -0.1648  1.6602
19645TIP3    H280351   5.377   4.987  16.852 -0.6044  0.2086  0.7551
19646TIP3   OH280352   0.656   1.898  17.193  0.6955  0.0800 -0.0904
19646TIP3    H180353   0.681   1.982  17.154  0.1057  1.7370  2.9428
19646TIP3    H280354   0.643   1.918  17.286  1.4339 -3.5639  0.8633
19647TIP3   OH280355   3.866   6.769  10.923 -0.0573 -0.0544 -0.0965
19647TIP3    H180356   3.775   6.739  10.930 -0.6036  1.1658 -1.5648
19647TIP3    H280357   3.918   6.696  10.957 -1.5881 -0.7012  0.9304
19648TIP3   OH280358   4.504   2.986   3.326  0.1690  0.4473  0.2001
19648TIP3    H180359   4.597   3.002   3.338  0.1657  0.0613  0.7548
19648TIP3    H280360   4.492   2.983   3.231  0.8611 -0.3319  0.1318
19649TIP3   OH280361   1.762   0.867  13.226 -0.4026  0.2755  0.5265
19649TIP3    H180362   1.793   0.944  13.274  0.8189  0.3070 -0.2983
19649TIP3    H280363   1.675   0.851  13.261  0.3557  0.4789  2.5387
19650TIP3   OH280364   0.636   5.395   3.820  0.0103 -0.6464  0.0289
19650TIP3    H180365   0.552   5.426   3.785  0.4517  0.8276  0.2457
19650TIP3    H280366   0.613   5.347   3.899 -0.4641  2.0300  1.5933
19651TIP3   OH280367   3.327   6.757  12.163 -0.0521 -0.9203 -0.3647
19651TIP3    H180368   3.285   6.726  12.243 -0.2450 -1.4444 -0.6598
19651TIP3    H280369   3.254   6.777  12.104  0.0939 -1.0137 -0.5787
19652TIP3   OH280370   2.705   3.244   3.294 -0.0013  0.3342 -0.4507
19652TIP3    H180371   2.709   3.162   3.344  0.7212  0.6058 -0.0439
19652TIP3    H280372   2.710   3.312   3.361 -1.2117  0.7112 -0.7432
19653TIP3   OH280373   5.660   4.723   2.939 -0.4982  0.3012  0.1773
19653TIP3    H180374   5.619   4.750   2.857 -0.5176 -1.1727 -0.3163
19653TIP3    H280375   5.735   4.670   2.911 -0.9453 -0.8304  1.1240
19654TIP3   OH280376   6.540   0.214  14.385  0.1926 -0.3199 -0.5986
19654TIP3    H180377   6.616   0.252  14.431 -0.2238  0.4456 -0.5425
19654TIP3    H280378   6.567   0.125  14.365  0.5548 -0.5202  0.7443
19655TIP3   OH280379   5.212   0.999  15.443  0.1235 -0.2005 -0.5975
19655TIP3    H180380   5.247   0.913  15.465  1.7797  0.4508 -0.6140
19655TIP3    H280381   5.134   0.981  15.391  0.9432 -1.6811 -1.3266
19656TIP3   OH280382   5.283   1.884   2.955  0.0258  0.2648 -0.4053
19656TIP3    H180383   5.192   1.858   2.950  0.0116  0.1967  0.1694
19656TIP3    H280384   5.326   1.814   3.005  0.7606 -0.6537 -2.2797
19657TIP3   OH280385   5.406   4.210  15.847 -0.5959  0.3924 -0.5217
19657TIP3    H180386   5.445   4.297  15.855  1.5430 -0.7062  1.2480
19657TIP3    H280387   5.371   4.191  15.934 -2.8043  0.2643 -1.4073
19658TIP3   OH280388   3.584   4.900   0.221  0.4011  0.2125  0.1945
19658TIP3    H180389   3.636   4.874   0.297  0.5961  1.1440  0.3924
19658TIP3    H280390   3.503   4.934   0.258 -0.5555 -1.6458 -0.1331
19659TIP3   OH280391   6.076   0.445   1.834 -0.3762  0.2988  0.0132
19659TIP3    H180392   6.119   0.394   1.765  0.6789 -0.5801  1.2843
19659TIP3    H280393   6.031   0.515   1.787  1.5656  0.6075 -1.4691
19660TIP3   OH280394   3.732   3.167   0.382  0.1558 -0.1173  0.3788
19660TIP3    H180395   3.674   3.232   0.421  0.3211 -0.0979  0.5909
19660TIP3    H280396   3.819   3.205   0.387  0.2093 -0.2143  0.2017
19661TIP3   OH280397   4.434   0.669   1.011  0.1856 -0.9397  0.5853
19661TIP3    H180398   4.499   0.723   1.055  1.3175  1.3316 -3.6553
19661TIP3    H280399   4.486   0.604   0.963 -0.8345 -0.8488 -0.6409
19662TIP3   OH280400   2.677   6.133   1.047 -0.2551  0.1077 -0.1675
19662TIP3    H180401   2.653   6.042   1.068  1.7853 -0.7163 -1.2836
19662TIP3    H280402   2.680   6.177   1.132 -0.8820 -0.9683  0.4288
19663TIP3   OH280403   4.938   0.530   5.413 -0.3468 -0.4556  0.5782
19663TIP3    H180404   4.974   0.452   5.454  0.5658 -0.7449 -0.7565
19663TIP3    H280405   4.995   0.601   5.443  0.0779 -0.6105  0.1497
19664TIP3   OH280406   6.178   5.830  15.342  0.5902  0.0601 -0.0184
19664TIP3    H180407   6.249   5.768  15.359  1.5577  1.4209  1.0273
19664TIP3    H280408   6.186   5.850  15.249  1.7528  0.3910  0.1400
19665TIP3   OH280409   1.586   5.372   6.194 -0.0033 -0.2347 -0.3213
19665TIP3    H180410   1.505   5.335   6.229 -0.3423 -0.8229 -1.6904
19665TIP3    H280411   1.639   5.391   6.272 -1.0365 -0.8004  0.5413
19666TIP3   OH280412   2.442   0.378  13.589  0.7231 -0.2974  0.3436
19666TIP3    H180413   2.419   0.296  13.634 -2.0771 -0.8845 -1.9602
19666TIP3    H280414   2.494   0.350  13.513 -0.0492  0.0287 -0.3248
19667TIP3   OH280415   5.630   4.340   0.434  0.4226  0.1678 -0.4285
19667TIP3    H180416   5.718   4.353   0.470  0.8604 -0.5052 -1.2327
19667TIP3    H280417   5.601   4.428   0.410  1.1846  0.3051 -0.8592
19668TIP3   OH280418   1.552   5.952  16.957 -0.2528  0.1965  0.0651
19668TIP3    H180419   1.524   5.863  16.934 -0.3340 -0.3044  2.0423
19668TIP3    H280420   1.474   6.005  16.942  0.0489  0.1189 -1.9989
19669TIP3   OH280421   0.009   5.743   0.588  0.2205 -0.0397 -0.1082
19669TIP3    H180422  -0.071   5.691   0.598  0.0938  0.1044 -0.3835
19669TIP3    H280423  -0.023   5.833   0.580  0.4749  0.1811  1.2217
19670TIP3   OH280424   5.843   4.291   5.643  0.3258  0.1597  0.2659
19670TIP3    H180425   5.918   4.349   5.655  2.0034 -2.0660  0.9927
19670TIP3    H280426   5.788   4.336   5.579  1.0489  2.9893  1.5480
19671TIP3   OH280427   1.311   3.313   3.063  0.0219 -0.2862  0.0186
19671TIP3    H180428   1.346   3.309   3.151 -0.6119  0.1178  0.2949
19671TIP3    H280429   1.306   3.222   3.034 -1.5995 -0.5672  1.1390
19672TIP3   OH280430   4.756   4.049   1.351  0.2707 -1.1273 -0.0810
19672TIP3    H180431   4.730   3.975   1.296 -0.2200 -0.1710 -1.1577
19672TIP3    H280432   4.686   4.114   1.338  1.6150  0.2383 -0.5780
19673TIP3   OH280433   6.601   4.534   0.096 -0.5581  0.3661 -0.4834
19673TIP3    H180434   6.603   4.585   0.177 -3.5690  1.0004 -0.7500
19673TIP3    H280435   6.530   4.470   0.110  1.6737 -2.3158 -1.0284
19674TIP3   OH280436   3.561   0.712   0.404 -0.2251 -0.1421 -0.3581
19674TIP3    H180437   3.551   0.718   0.499 -0.2896 -1.3851 -0.2748
19674TIP3    H280438   3.541   0.621   0.384 -2.3414  0.5867 -1.8260
19675TIP3   OH280439   1.272   0.369   4.619 -0.8578  0.3089  0.8459
19675TIP3    H180440   1.347   0.399   4.670 -0.1333 -0.9805  0.5653
19675TIP3    H280441   1.201   0.427   4.645  0.5154  2.3205  0.2250
19676TIP3   OH280442   6.595   1.245  16.931  0.1572  0.4422  0.1549
19676TIP3    H180443   6.538   1.170  16.915 -0.0716  0.6478 -0.0084
19676TIP3    H280444   6.567   1.279  17.016 -0.4430  0.9719 -0.2519
19677TIP3   OH280445   2.996   4.660  12.335  0.6155  0.5699  0.4847
19677TIP3    H180446   3.010   4.607  12.257 -0.0462  0.9148  0.1339
19677TIP3    H280447   3.031   4.746  12.313  2.0118  0.1825  1.1806
19678TIP3   OH280448   4.960   5.576   4.675  0.5363  0.0970  0.1742
19678TIP3    H180449   5.018   5.525   4.732  1.1306  1.4674  0.8048
19678TIP3    H280450   4.929   5.647   4.731 -1.3811 -0.3557 -0.3025
19679TIP3   OH280451   4.977   2.906  15.839 -0.3158 -0.5752  0.0599
19679TIP3    H180452   4.945   2.988  15.802 -0.2218 -0.1602  0.8820
19679TIP3    H280453   5.018   2.861  15.765  2.5087  1.5509  0.2457
19680TIP3   OH280454   2.568   1.784   4.083  0.3239 -0.5026 -0.3125
19680TIP3    H180455   2.569   1.874   4.115  0.6768 -0.0842 -1.4767
19680TIP3    H280456   2.567   1.730   4.163 -0.6336  0.5255  0.3790
19681TIP3   OH280457   2.868   0.117   1.296 -0.1741  0.1851  0.8865
19681TIP3    H180458   2.893   0.209   1.304 -0.5664  0.4330 -0.5704
19681TIP3    H280459   2.786   0.119   1.246  0.9095 -1.0714 -0.9628
19682TIP3   OH280460   0.715   6.466   1.096  0.2228  0.0225  0.2197
19682TIP3    H180461   0.749   6.425   1.017  1.6650 -1.6161  1.6456
19682TIP3    H280462   0.746   6.556   1.091  0.9494 -0.2708 -0.6964
19683TIP3   OH280463   1.892   0.298  13.809  0.1607 -0.3529 -0.1266
19683TIP3    H180464   1.857   0.377  13.768 -1.0053 -0.6807  0.2232
19683TIP3    H280465   1.829   0.230  13.786  1.4963 -1.3386 -0.9933
19684TIP3   OH280466   1.250   6.412   1.764 -0.1526  0.0605  0.4652
19684TIP3    H180467   1.277   6.328   1.801  0.4735 -0.2852 -0.7454
19684TIP3    H280468   1.327   6.469   1.774  0.6503 -0.5621 -1.8788
19685TIP3   OH280469   2.641   6.733   4.927  0.0366 -0.3864  0.4241
19685TIP3    H180470   2.567   6.766   4.877  1.0013 -1.8100 -1.9977
19685TIP3    H280471   2.602   6.697   5.007 -1.8173 -0.7534 -0.6359
19686TIP3   OH280472   3.546   5.881  13.880 -0.3365 -0.8169 -0.8063
19686TIP3    H180473   3.615   5.912  13.938 -1.4149  0.6172 -0.2621
19686TIP3    H280474   3.520   5.796  13.915  1.1729 -1.4020 -1.0572
19687TIP3   OH280475   5.927   5.317  13.630  0.7377  0.1636 -0.4664
19687TIP3    H180476   6.011   5.334  13.589  0.7207  1.4979  0.0306
19687TIP3    H280477   5.948   5.294  13.720  0.6202 -0.3491 -0.5679
19688TIP3   OH280478   2.912   1.323  14.099  0.1607  0.5612 -0.1930
19688TIP3    H180479   3.007   1.331  14.100  0.3904 -1.7137 -0.4789
19688TIP3    H280480   2.892   1.256  14.165 -1.0642 -0.3443 -1.4364
19689TIP3   OH280481   3.496   0.725  15.455 -0.3940 -0.2447 -0.1665
19689TIP3    H180482   3.471   0.684  15.372  1.7214 -0.7940 -0.5642
19689TIP3    H280483   3.561   0.790  15.430 -0.7085  0.5074  0.9372
19690TIP3   OH280484   4.065   6.750   6.034 -0.4298  0.3251  0.0391
19690TIP3    H180485   4.024   6.684   6.089  0.6248  0.2099  0.7148
19690TIP3    H280486   3.994   6.808   6.008 -1.0908 -0.1392  0.7846
19691TIP3   OH280487   5.237   5.600   0.121 -0.1371 -0.0325  0.0656
19691TIP3    H180488   5.164   5.543   0.098  1.3246 -0.3327 -4.3150
19691TIP3    H280489   5.305   5.580   0.057  2.5466  2.6642  1.8795
19692TIP3   OH280490   5.856   4.113  16.339 -0.3695  0.3059 -0.0318
19692TIP3    H180491   5.851   4.096  16.245  1.7447  0.4984 -0.2087
19692TIP3    H280492   5.899   4.199  16.345  1.8550 -0.8453  1.1316
19693TIP3   OH280493   1.633   0.127   2.412  0.5473  0.1813  0.1446
19693TIP3    H180494   1.695   0.199   2.419  0.4935  0.0241  3.5473
19693TIP3    H280495   1.568   0.156   2.349  0.8511  2.8866  1.0145
19694TIP3   OH280496   2.215   4.305   2.863  0.4879 -0.1179  0.5080
19694TIP3    H180497   2.162   4.306   2.784  0.9563  1.0875  0.1978
19694TIP3    H280498   2.290   4.249   2.841  0.6776  0.3080  0.0501
19695TIP3   OH280499   4.091   1.496  16.081 -0.2361  0.3394  0.1756
19695TIP3    H180500   4.143   1.538  16.149 -2.1698  0.4262  1.6387
19695TIP3    H280501   4.001   1.522  16.099 -1.0800 -1.6393 -0.9365
19696TIP3   OH280502   0.949   3.708   5.603 -0.4646  0.3052 -0.4490
19696TIP3    H180503   0.955   3.686   5.696 -0.6436 -2.5472 -1.0970
19696TIP3    H280504   1.004   3.643   5.559  0.3192  2.1424 -2.3010
19697TIP3   OH280505   6.664   1.603   6.546 -0.1767 -0.0899  0.3863
19697TIP3    H180506   6.758   1.588   6.554  0.0490  0.1831 -1.5151
19697TIP3    H280507   6.623   1.525   6.583  0.8440 -1.4200 -1.2334
19698TIP3   OH280508   0.140   3.601   4.571 -0.4219  0.5014  0.2985
19698TIP3    H180509   0.173   3.682   4.609 -0.4708 -0.2118  1.9000
19698TIP3    H280510   0.047   3.618   4.556 -0.4097  0.7810  0.5316
19699TIP3   OH280511   2.360   2.949   0.838 -0.4102 -0.7188 -0.2119
19699TIP3    H180512   2.293   3.017   0.823 -0.4747 -0.5628  0.7348
19699TIP3    H280513   2.415   2.952   0.760 -0.0840  0.8218  0.0610
19700TIP3   OH280514   2.234   2.194   0.635 -0.4659 -0.1757  0.2555
19700TIP3    H180515   2.199   2.280   0.610 -1.2591 -0.2502  1.0991
19700TIP3    H280516   2.176   2.131   0.593  0.1491 -0.3001 -0.4067
19701TIP3   OH280517   1.410   5.981   0.316  0.0698  0.3009  0.3326
19701TIP3    H180518   1.441   5.891   0.319  2.3754  1.0850  0.9896
19701TIP3    H280519   1.326   5.976   0.271  1.6965 -1.7633 -2.6378
19702TIP3   OH280520   5.282   2.390  11.725 -0.0000 -0.6609 -0.5408
19702TIP3    H180521   5.334   2.434  11.792  1.1695  0.9745 -2.4946
19702TIP3    H280522   5.211   2.451  11.705 -0.1015 -0.9622 -1.1069
19703TIP3   OH280523   2.284   0.943  13.281  0.3680  0.1074 -0.2017
19703TIP3    H180524   2.316   1.023  13.322 -0.0635 -0.4282  1.1805
19703TIP3    H280525   2.210   0.972  13.227 -0.4498  0.5021  1.1050
19704TIP3   OH280526   1.204   2.586  15.207  0.0248 -0.3417 -0.2043
19704TIP3    H180527   1.274   2.617  15.264 -0.8558  0.6121  0.3775
19704TIP3    H280528   1.188   2.496  15.235 -0.5335  0.1821  1.2078
19705TIP3   OH280529   5.242   2.645   0.646 -0.0255 -0.2418 -0.2692
19705TIP3    H180530   5.148   2.662   0.636  0.4994  3.0246 -0.0120
19705TIP3    H280531   5.260   2.573   0.585 -2.2357  0.6760 -2.0573
19706TIP3   OH280532   4.041   4.334   0.003 -0.1498 -0.1622 -0.3013
19706TIP3    H180533   3.995   4.399   0.056  0.3192  0.9074 -1.1719
19706TIP3    H280534   4.045   4.256   0.058  0.5979  1.0084  1.3433
19707TIP3   OH280535   0.001   4.672  16.875  0.0658 -0.5615 -0.2672
19707TIP3    H180536  -0.010   4.587  16.832  2.0259  0.0827 -2.1878
19707TIP3    H280537   0.079   4.661  16.930  0.5990  0.1098 -0.8765
19708TIP3   OH280538   1.302   4.871   0.783  0.0346  0.1460  0.3818
19708TIP3    H180539   1.286   4.827   0.867  2.6598 -0.9463  0.3400
19708TIP3    H280540   1.324   4.800   0.723 -0.2099  1.0905 -0.8238
19709TIP3   OH280541   5.443   6.178   6.078 -0.3123  0.4673 -0.0428
19709TIP3    H180542   5.475   6.243   6.141 -1.0363 -0.7539  1.6001
19709TIP3    H280543   5.349   6.192   6.074 -0.3853 -0.0458 -0.1845
19710TIP3   OH280544   0.856   1.818   0.867 -0.0903  0.0459 -0.0767
19710TIP3    H180545   0.902   1.876   0.928  0.0481 -0.6383  0.4685
19710TIP3    H280546   0.765   1.847   0.871 -0.3431 -0.9148  1.5241
19711TIP3   OH280547   6.524   4.853   1.812 -0.7687 -0.0657 -0.1296
19711TIP3    H180548   6.577   4.921   1.770  0.4324 -0.4514  0.7384
19711TIP3    H280549   6.434   4.873   1.784 -0.3406  1.3769 -0.5606
19712TIP3   OH280550   2.124   1.337  15.428 -0.0836 -0.4326 -0.9966
19712TIP3    H180551   2.207   1.375  15.399  1.5845 -1.5632  2.0923
19712TIP3    H280552   2.139   1.242  15.426 -0.6070 -0.5940  1.4814
19713TIP3   OH280553   4.708   0.760   3.916 -0.3094 -0.2977 -0.5407
19713TIP3    H180554   4.722   0.665   3.914 -2.7241 -0.6586 -1.5274
19713TIP3    H280555   4.616   0.771   3.896 -0.2321  2.2518  0.3463
19714TIP3   OH280556   4.141   1.020  13.777 -0.2937  0.4402  0.2143
19714TIP3    H180557   4.125   0.941  13.725 -1.1012  1.3151 -0.8845
19714TIP3    H280558   4.055   1.042  13.812  0.0958  0.3393  1.2412
19715TIP3   OH280559   4.146   1.125   1.214 -0.2971  0.1266  0.2209
19715TIP3    H180560   4.241   1.121   1.228 -0.1134  1.0252 -0.7168
19715TIP3    H280561   4.129   1.064   1.142 -0.5723 -0.7796  1.0464
19716TIP3   OH280562   2.856   4.242   0.104  0.2753 -0.3475  0.1918
19716TIP3    H180563   2.909   4.248   0.184  0.3547 -1.2436  0.2160
19716TIP3    H280564   2.788   4.178   0.125 -1.6937  1.8135  0.6269
19717TIP3   OH280565   1.370   1.472   0.300 -0.2212  0.3569 -0.7394
19717TIP3    H180566   1.330   1.387   0.285 -1.3201  0.9974 -1.4942
19717TIP3    H280567   1.382   1.477   0.395 -0.3315 -0.5572 -0.6772
19718TIP3   OH280568   5.353   0.902  12.463  0.4202 -0.2031 -0.0655
19718TIP3    H180569   5.298   0.965  12.418  1.1773  0.2185 -0.4111
19718TIP3    H280570   5.298   0.868  12.534 -0.0695  0.6544 -0.0311
19719TIP3   OH280571   5.300   4.371   0.486  0.2207 -0.4586 -0.2011
19719TIP3    H180572   5.349   4.450   0.460 -0.8193 -0.0149 -0.8237
19719TIP3    H280573   5.315   4.310   0.414 -1.2804  0.1755 -1.0662
19720TIP3   OH280574   1.460   2.437  10.544 -0.0576  0.2865  0.3957
19720TIP3    H180575   1.520   2.469  10.477 -1.6342  0.4333 -0.9559
19720TIP3    H280576   1.492   2.478  10.625  0.7185  1.6201 -0.5548
19721TIP3   OH280577   1.744   0.932   5.803  0.0912 -0.7468 -0.0647
19721TIP3    H180578   1.816   0.872   5.784  1.5451  1.3132 -1.3294
19721TIP3    H280579   1.765   0.970   5.888  0.0834 -0.7617 -0.0557
19722TIP3   OH280580   1.285   5.260  13.899 -0.4434  0.6017  0.0929
19722TIP3    H180581   1.243   5.193  13.952 -1.1181  1.5260  0.7445
19722TIP3    H280582   1.234   5.263  13.818 -0.0188 -0.1163 -0.2029
19723TIP3   OH280583   0.005   2.760   3.061 -0.0808  0.2368 -0.6063
19723TIP3    H180584  -0.058   2.717   3.003  1.8140  0.1479 -2.6730
19723TIP3    H280585  -0.018   2.853   3.056 -1.4396 -0.0216  0.4433
19724TIP3   OH280586   3.607   2.224   4.665 -0.2367 -0.1439  0.1012
19724TIP3    H180587   3.666   2.151   4.684 -0.8877 -0.1969  2.0978
19724TIP3    H280588   3.624   2.287   4.735 -0.2211  1.3079 -1.1796
19725TIP3   OH280589   6.035   0.983   4.871  0.1059 -0.0315 -0.6241
19725TIP3    H180590   6.079   0.985   4.786 -0.7223 -1.8959 -1.0998
19725TIP3    H280591   5.964   0.920   4.861 -0.3116  0.0929  1.3069
19726TIP3   OH280592   4.404   3.549   3.024 -0.3362 -0.9727 -0.4304
19726TIP3    H180593   4.373   3.469   3.066 -1.4929 -0.8852 -1.1172
19726TIP3    H280594   4.366   3.620   3.077 -0.1966 -0.8694 -0.4675
19727TIP3   OH280595   5.494   1.516   0.665 -0.0457 -0.0753 -0.3243
19727TIP3    H180596   5.467   1.607   0.650  2.1227  0.7468  0.6363
19727TIP3    H280597   5.503   1.479   0.577  0.2121  0.9831 -0.7548
19728TIP3   OH280598   2.248   0.227  17.088  0.2387  0.3971 -0.1972
19728TIP3    H180599   2.298   0.146  17.092 -1.1322 -0.3984  1.0783
19728TIP3    H280600   2.292   0.278  17.019  0.9943 -1.4838 -1.1552
19729TIP3   OH280601   5.638   5.000  14.091  0.1965  0.1120 -0.0520
19729TIP3    H180602   5.633   5.086  14.049  1.1791  0.3408  0.2843
19729TIP3    H280603   5.725   4.997  14.129 -0.0042 -0.8525  0.3505
19730TIP3   OH280604   4.062   5.711   0.321 -0.0777 -0.2801  0.0116
19730TIP3    H180605   4.130   5.764   0.363  1.5595 -1.3175 -1.2828
19730TIP3    H280606   4.039   5.645   0.387  1.4884 -1.0544 -0.1889
19731TIP3   OH280607   3.660   1.340   1.499  0.0323  0.2065  0.8758
19731TIP3    H180608   3.745   1.383   1.505 -0.5533  1.4727  0.4328
19731TIP3    H280609   3.605   1.388   1.561 -0.4392 -0.4122  0.9406
19732TIP3   OH280610   1.944   3.765   2.528 -0.1944 -0.6980 -0.3947
19732TIP3    H180611   1.921   3.821   2.602 -1.5078 -1.7242  0.0004
19732TIP3    H280612   1.931   3.819   2.451 -2.0888 -0.6456 -0.0587
19733TIP3   OH280613   4.662   1.147   4.253 -0.3313  0.0820  0.0403
19733TIP3    H180614   4.634   1.193   4.332 -0.6637 -1.9236  1.1172
19733TIP3    H280615   4.601   1.177   4.185 -2.1270 -0.5965  1.2966
19734TIP3   OH280616   4.539   5.997   3.746  1.0489  0.2852 -0.1600
19734TIP3    H180617   4.586   5.921   3.782 -0.6710 -0.9035 -0.3689
19734TIP3    H280618   4.469   6.013   3.809  0.6601  0.9500 -0.7635
19735TIP3   OH280619   6.779   4.648  12.201  0.1807  0.0500  0.1648
19735TIP3    H180620   6.819   4.721  12.248  1.7288 -1.1684  0.7980
19735TIP3    H280621   6.724   4.689  12.135  1.5434  1.7819  0.0788
19736TIP3   OH280622   0.345   3.157   4.436 -0.4670 -0.6412  0.2290
19736TIP3    H180623   0.294   3.183   4.513  0.6655 -3.4508  2.0485
19736TIP3    H280624   0.288   3.096   4.389 -0.4840 -0.2865 -0.2157
19737TIP3   OH280625   4.179   2.859   1.123  0.2238  0.1353 -0.3482
19737TIP3    H180626   4.126   2.938   1.115  1.2759  1.1351  1.7576
19737TIP3    H280627   4.247   2.868   1.056  1.3260  1.8859  0.9611
19738TIP3   OH280628   2.402   0.636   6.793  0.7687  0.8843  0.2290
19738TIP3    H180629   2.380   0.682   6.874 -2.1675  0.0362 -0.0008
19738TIP3    H280630   2.453   0.560   6.821  0.9814  1.3590  1.1433
19739TIP3   OH280631   0.819   0.715   3.731  0.0054  0.0353 -0.0726
19739TIP3    H180632   0.883   0.785   3.748  0.6174 -0.9448  1.7819
19739TIP3    H280633   0.734   0.760   3.733  0.4003  0.7557  0.9650
19740TIP3   OH280634   3.858   2.662   5.107  0.2169  0.3709  0.0358
19740TIP3    H180635   3.954   2.654   5.106  0.1949 -0.1956  1.6397
19740TIP3    H280636   3.833   2.636   5.195 -1.6534 -2.2265 -1.2199
19741TIP3   OH280637   1.831   5.599   2.927  0.2960  0.7455 -0.0180
19741TIP3    H180638   1.884   5.537   2.977 -0.5324  0.5539  0.6300
19741TIP3    H280639   1.832   5.564   2.837  0.4246  0.1904  0.1985
19742TIP3   OH280640   2.349   0.428  16.528  0.2620 -0.2628  0.0662
19742TIP3    H180641   2.402   0.478  16.590 -0.8131 -0.5341  1.2189
19742TIP3    H280642   2.363   0.472  16.444  3.3813 -1.1460  0.0635
19743TIP3   OH280643   4.529   6.413  12.917 -0.3673  0.8747  0.7642
19743TIP3    H180644   4.561   6.372  12.837 -0.4341  2.1080  0.0963
19743TIP3    H280645   4.437   6.386  12.923 -1.7582  4.5134 -2.1172
19744TIP3   OH280646   2.934   3.463   0.280  0.4358 -0.1409 -0.4236
19744TIP3    H180647   2.860   3.520   0.303  0.4702 -0.0265 -0.5972
19744TIP3    H280648   3.003   3.488   0.340  0.0930 -0.7541  0.2307
19745TIP3   OH280649   0.469   4.973   5.900  0.3553  0.1120 -0.0297
19745TIP3    H180650   0.506   4.943   5.818  1.0720  1.7550 -0.3289
19745TIP3    H280651   0.506   4.914   5.966  0.4526 -0.6684 -0.7680
19746TIP3   OH280652   4.442   3.371  12.831 -0.0704  0.2729  0.0788
19746TIP3    H180653   4.366   3.328  12.791 -0.0988 -0.1129  0.5462
19746TIP3    H280654   4.476   3.428  12.762  1.3102 -2.1408 -1.2807
19747TIP3   OH280655   4.631   1.251  14.427  0.3273 -0.4080 -0.0947
19747TIP3    H180656   4.662   1.202  14.503  0.1350 -0.3505  0.0191
19747TIP3    H280657   4.630   1.187  14.356 -1.4272 -0.9545  0.4055
19748TIP3   OH280658   4.308   0.769  16.407  0.2248 -0.1927 -0.0029
19748TIP3    H180659   4.280   0.857  16.381  0.5109 -0.4622 -1.2506
19748TIP3    H280660   4.381   0.749  16.348  1.0515 -0.7145  1.1846
19749TIP3   OH280661   4.746   5.316   2.276  0.3447  0.3813 -0.1795
19749TIP3    H180662   4.755   5.410   2.263  0.8436  0.2834 -0.5897
19749TIP3    H280663   4.806   5.295   2.347 -1.6907  0.7670  1.7231
19750TIP3   OH280664   0.405   3.964   3.041 -0.6608  0.2432  0.2400
19750TIP3    H180665   0.483   3.950   3.094 -0.8180 -0.9040  0.1728
19750TIP3    H280666   0.434   4.021   2.969  0.4269 -1.2227 -0.5142
19751TIP3   OH280667   4.765   2.753  15.172 -0.2286  0.0319  0.7870
19751TIP3    H180668   4.854   2.784  15.157 -0.8932  1.5938 -0.0609
19751TIP3    H280669   4.776   2.666  15.210  1.6516  0.1650  0.5954
19752TIP3   OH280670   5.434   3.115   6.149  0.4064 -0.1972 -0.5072
19752TIP3    H180671   5.519   3.093   6.188  0.1199  1.1486  0.9111
19752TIP3    H280672   5.403   3.032   6.112  1.6001 -1.0484  0.3454
19753TIP3   OH280673   3.386   3.386   4.470  0.2697 -0.3693 -0.1939
19753TIP3    H180674   3.393   3.296   4.500 -1.5923 -0.5483 -0.1947
19753TIP3    H280675   3.440   3.390   4.391  0.0232 -1.6042 -0.4307
19754TIP3   OH280676   1.717   5.970  13.228 -0.3507 -0.4967 -0.1945
19754TIP3    H180677   1.676   6.056  13.218 -1.1552 -1.1567 -2.9664
19754TIP3    H280678   1.769   5.959  13.148 -0.0788 -2.4832  0.2352
19755TIP3   OH280679   6.019   0.145   0.838  0.6939  0.0035  0.0041
19755TIP3    H180680   5.997   0.234   0.811  0.4268 -0.1947 -0.4424
19755TIP3    H280681   6.011   0.145   0.933  0.1072  0.2935 -0.0462
19756TIP3   OH280682   0.283   3.205  11.627  0.5660 -0.4167  0.6498
19756TIP3    H180683   0.357   3.264  11.614 -0.0557 -0.1034 -1.6804
19756TIP3    H280684   0.222   3.253  11.683  0.1344  1.0762 -1.0927
19757TIP3   OH280685   5.543   0.045   1.251 -0.0619  0.1385 -0.0826
19757TIP3    H180686   5.564   0.047   1.344 -0.3826 -1.0299  0.0165
19757TIP3    H280687   5.453   0.079   1.246 -1.0705 -2.3777  0.3394
19758TIP3   OH280688   6.495   4.356  11.880  0.0383  0.4826 -0.0849
19758TIP3    H180689   6.400   4.351  11.876 -0.0445 -2.0132  2.9361
19758TIP3    H280690   6.523   4.356  11.788 -2.7569 -0.7723 -0.9897
19759TIP3   OH280691   0.193   3.911  17.151 -0.5293 -0.9012 -0.8718
19759TIP3    H180692   0.146   3.843  17.200  3.6822 -1.5402  2.5615
19759TIP3    H280693   0.165   3.993  17.191  1.3702 -1.2999  1.3680
19760TIP3   OH280694   2.017   0.355   5.445  0.4248  0.4629 -0.1870
19760TIP3    H180695   2.012   0.297   5.369  0.7215  1.4743 -0.9900
19760TIP3    H280696   1.952   0.423   5.428 -0.2050  0.1444  0.9426
19761TIP3   OH280697   1.059   5.281  16.329 -0.4701  0.0503 -0.0191
19761TIP3    H180698   1.146   5.242  16.325 -0.1610  0.7533 -0.3670
19761TIP3    H280699   1.075   5.373  16.350 -1.1533  0.0989  0.3103
19762TIP3   OH280700   3.561   5.256   5.089 -0.5274 -0.2966  0.0846
19762TIP3    H180701   3.640   5.308   5.074 -0.2887 -0.0210  2.1812
19762TIP3    H280702   3.589   5.165   5.075 -0.2908 -0.0850 -0.8996
19763TIP3   OH280703   4.060   6.379  12.777 -0.2492  0.3834 -0.8456
19763TIP3    H180704   4.079   6.453  12.835  1.3057 -0.0012 -0.8484
19763TIP3    H280705   4.038   6.307  12.837 -3.2676  1.2162 -0.8778
19764TIP3   OH280706   6.074   5.644  16.294  0.3506 -0.3139  0.5248
19764TIP3    H180707   6.120   5.560  16.292 -0.8798 -0.9833 -0.0424
19764TIP3    H280708   6.038   5.653  16.206  0.2606  0.6896  0.6689
19765TIP3   OH280709   0.941   4.900  16.224 -0.4163 -0.2020 -0.0826
19765TIP3    H180710   0.916   4.914  16.132  0.2748 -0.1834 -0.2709
19765TIP3    H280711   0.887   4.826  16.252  0.6338 -1.3652 -1.0439
19766TIP3   OH280712   3.484   0.121  12.514  0.2004 -0.5112 -0.0638
19766TIP3    H180713   3.497   0.100  12.607 -3.9994 -3.1801  0.0687
19766TIP3    H280714   3.539   0.059  12.467  0.1873 -1.0397  0.6161
19767TIP3   OH280715   1.314   3.229  12.058 -0.0919 -0.3483  0.0419
19767TIP3    H180716   1.228   3.271  12.060 -0.1208 -0.2970 -1.7672
19767TIP3    H280717   1.300   3.145  12.104 -0.7996  0.1756  0.8097
19768TIP3   OH280718   5.258   2.745   2.599 -0.0213 -0.1580  0.1292
19768TIP3    H180719   5.240   2.735   2.692 -1.3500  0.5688 -0.0434
19768TIP3    H280720   5.179   2.785   2.563 -0.6467 -2.9903 -1.7958
19769TIP3   OH280721   2.688   3.289  11.563  0.3570  0.1533 -0.2920
19769TIP3    H180722   2.735   3.223  11.614  0.3492  0.6494  0.3572
19769TIP3    H280723   2.642   3.342  11.628  0.6418  1.0125 -0.7768
19770TIP3   OH280724   1.786   5.650   0.373 -0.7436 -1.1050 -0.0083
19770TIP3    H180725   1.791   5.565   0.418 -0.1803 -0.2318  1.6158
19770TIP3    H280726   1.702   5.647   0.326 -0.9095 -2.4032  0.3478
19771TIP3   OH280727   4.139   2.338  12.477 -0.2515 -0.4255  0.0170
19771TIP3    H180728   4.128   2.433  12.482 -2.9423 -0.7781  1.5534
19771TIP3    H280729   4.199   2.318  12.550 -0.7007 -0.0409  0.4984
19772TIP3   OH280730   0.662   2.192  12.593 -0.2903  0.4104  0.6592
19772TIP3    H180731   0.616   2.243  12.527 -2.5965 -3.1634 -0.6746
19772TIP3    H280732   0.596   2.173  12.659 -0.3896 -3.3948 -0.4301
19773TIP3   OH280733   1.306   4.323  14.401 -0.1941  0.2321  0.3384
19773TIP3    H180734   1.238   4.257  14.389 -1.3761  1.1740  1.7545
19773TIP3    H280735   1.285   4.391  14.338 -1.5077  1.2556  1.8463
19774TIP3   OH280736   2.267   6.731  12.013  0.1380  0.1079  0.3408
19774TIP3    H180737   2.300   6.667  12.076  0.3289  0.6617  0.8037
19774TIP3    H280738   2.182   6.757  12.047  0.7280  1.2458  0.9810
19775TIP3   OH280739   4.047   6.247  14.142 -0.6368  0.0304  0.6547
19775TIP3    H180740   3.957   6.244  14.177 -0.7539 -0.9018  0.3028
19775TIP3    H280741   4.035   6.245  14.047 -0.2178 -1.3358  0.6224
19776TIP3   OH280742   6.629   6.054  13.065  0.1586  0.5439  0.1575
19776TIP3    H180743   6.656   5.980  13.119  0.3758  0.8754  0.5063
19776TIP3    H280744   6.697   6.061  12.998 -1.0038 -0.9405 -1.2022
19777TIP3   OH280745   2.984   1.252  13.546 -0.6202 -0.0667 -0.6930
19777TIP3    H180746   2.933   1.287  13.473  0.5033  0.4585 -1.2351
19777TIP3    H280747   2.918   1.225  13.610 -1.5967  0.0741 -1.6190
19778TIP3   OH280748   2.564   5.191   4.900 -0.7669  0.0041  0.0357
19778TIP3    H180749   2.657   5.205   4.885 -0.5314 -0.5873  0.8969
19778TIP3    H280750   2.548   5.226   4.988 -1.4334  0.4630 -0.2641
19779TIP3   OH280751   1.907   2.230   5.623 -0.1130  0.4866  0.1616
19779TIP3    H180752   1.824   2.219   5.669  0.2450  0.4522  0.8006
19779TIP3    H280753   1.974   2.220   5.691  0.3878  1.2748 -0.2004
19780TIP3   OH280754   4.357   4.502   2.742  0.4284 -0.1062  0.6508
19780TIP3    H180755   4.277   4.493   2.793  0.9014  0.4819  1.5258
19780TIP3    H280756   4.406   4.572   2.787  0.2496  1.3681 -1.3985
19781TIP3   OH280757   1.913   2.652  12.996  0.1659 -0.0077 -0.1586
19781TIP3    H180758   1.939   2.611  12.913 -1.0135  1.1984 -1.1365
19781TIP3    H280759   1.859   2.587  13.040  1.6183 -1.0433  0.1481
19782TIP3   OH280760   1.224   4.117  14.699 -0.4412 -0.3129  0.5348
19782TIP3    H180761   1.250   4.107  14.607  0.5909 -0.6017  0.8511
19782TIP3    H280762   1.266   4.044  14.744 -0.7588 -0.0436  1.2754
19783TIP3   OH280763   1.985   6.654   4.503 -0.1327 -0.4684 -0.3911
19783TIP3    H180764   2.024   6.737   4.531  1.1622 -1.4781  0.8706
19783TIP3    H280765   2.029   6.632   4.422  0.3734 -0.5232 -0.1002
19784TIP3   OH280766   3.283   3.720  14.124  0.1180  0.3459  0.2761
19784TIP3    H180767   3.282   3.741  14.031  0.1175  1.1810  0.4607
19784TIP3    H280768   3.310   3.802  14.166 -0.3890  0.1159  1.0489
19785TIP3   OH280769   3.550   3.928  14.168 -0.3364 -0.5142  0.4779
19785TIP3    H180770   3.603   4.000  14.202 -1.5010  0.2313  0.7559
19785TIP3    H280771   3.610   3.853  14.165  0.5720  0.1652  1.3336
19786TIP3   OH280772   0.558   3.086   1.409  0.1470  0.4820  0.3156
19786TIP3    H180773   0.522   3.175   1.403 -0.5635  0.2731  1.3626
19786TIP3    H280774   0.563   3.056   1.318  0.8894  1.7823 -0.0897
19787TIP3   OH280775   2.567   1.940   2.007 -0.1956  0.6066  0.1281
19787TIP3    H180776   2.658   1.925   1.980 -0.8647 -0.9266 -1.3577
19787TIP3    H280777   2.519   1.954   1.925 -1.8160 -1.5657  0.6463
19788TIP3   OH280778   0.076   1.800   5.706  0.2693  0.0352 -0.1174
19788TIP3    H180779   0.012   1.804   5.777 -2.3154  1.1614 -2.4385
19788TIP3    H280780   0.063   1.713   5.667  0.1554  0.2472 -0.5595
19789TIP3   OH280781   3.207   6.387  14.213 -0.0718 -0.4546 -0.1093
19789TIP3    H180782   3.162   6.303  14.208 -2.8667  0.9937 -0.2389
19789TIP3    H280783   3.199   6.424  14.125  2.1528 -0.4915 -0.3787
19790TIP3   OH280784   2.067   5.317  12.990 -0.0111  0.2122 -0.2538
19790TIP3    H180785   2.154   5.330  12.952 -0.4059  2.0355 -0.5776
19790TIP3    H280786   2.041   5.229  12.960  0.9670  0.3749 -1.6604
19791TIP3   OH280787   6.156   5.808   4.191 -0.5126 -0.2958 -1.2398
19791TIP3    H180788   6.205   5.728   4.210 -0.4222 -0.1048 -0.6294
19791TIP3    H280789   6.087   5.781   4.131 -1.8949 -1.2989  0.7430
19792TIP3   OH280790   2.591   0.248   6.376 -0.1639 -0.0207 -0.2995
19792TIP3    H180791   2.498   0.269   6.381  0.5718  3.4530  0.0803
19792TIP3    H280792   2.623   0.298   6.301  1.5377 -0.6051  0.0137
19793TIP3   OH280793   0.432   0.197   4.395 -0.1873 -0.0661 -0.2613
19793TIP3    H180794   0.499   0.239   4.449  1.6786 -0.3987 -2.2549
19793TIP3    H280795   0.414   0.114   4.440  0.6140  0.1112  0.3960
19794TIP3   OH280796   0.000   1.646  14.607  0.2879  0.5474 -0.1703
19794TIP3    H180797   0.089   1.681  14.598  0.9991 -0.7263  1.6236
19794TIP3    H280798   0.008   1.553  14.583 -1.0976  0.9973 -2.5284
19795TIP3   OH280799   1.200   6.535   5.615  0.1947 -0.1567  0.0505
19795TIP3    H180800   1.135   6.502   5.677  1.3536  0.0393  1.3982
19795TIP3    H280801   1.282   6.532   5.663  1.0488  0.4018 -1.3504
19796TIP3   OH280802   1.863   4.628  11.707 -0.3051 -0.1717 -0.0652
19796TIP3    H180803   1.955   4.613  11.690 -0.0593 -0.7277  1.6479
19796TIP3    H280804   1.838   4.697  11.646  0.9248 -0.8767 -1.3949
19797TIP3   OH280805   5.344   0.208  16.068  0.3777  0.9578  0.0387
19797TIP3    H180806   5.256   0.238  16.046  0.5320  1.5757  0.2599
19797TIP3    H280807   5.349   0.119  16.032 -1.4439 -0.3148  2.7356
19798TIP3   OH280808   0.234   2.311   2.810 -0.1604  0.1146 -0.2294
19798TIP3    H180809   0.149   2.329   2.848 -0.6394 -1.1716 -0.6579
19798TIP3    H280810   0.274   2.247   2.868 -1.1056 -2.2455 -2.0868
19799TIP3   OH280811   4.616   6.535  11.166  0.1100  0.3138 -0.0714
19799TIP3    H180812   4.621   6.499  11.077  0.8679  0.5501 -0.1243
19799TIP3    H280813   4.666   6.616  11.162  0.0533  0.3796  0.5472
19800TIP3   OH280814   1.518   4.239  15.602 -0.2976 -0.4681  0.8426
19800TIP3    H180815   1.514   4.211  15.693 -1.1430  1.1867  1.3428
19800TIP3    H280816   1.570   4.320  15.605  0.0547 -0.6471 -0.2105
19801TIP3   OH280817   3.242   3.901   4.785  0.0862  0.3879  0.1284
19801TIP3    H180818   3.266   3.904   4.693 -1.2383 -2.5568 -0.3564
19801TIP3    H280819   3.148   3.919   4.787  0.4278  2.2839  1.1275
19802TIP3   OH280820   0.244   0.711  16.541 -0.0113  0.6274  0.2622
19802TIP3    H180821   0.219   0.679  16.628  1.3602  2.2945  1.3048
19802TIP3    H280822   0.265   0.632  16.491  1.5396 -0.2402  2.2074
19803TIP3   OH280823   0.985   3.557  15.150 -0.0726  0.2551 -0.3186
19803TIP3    H180824   0.951   3.620  15.086 -0.7900 -0.5821 -0.7812
19803TIP3    H280825   1.049   3.506  15.101 -0.4285 -0.2111 -0.3061
19804TIP3   OH280826   5.640   4.483   4.805  0.2737 -0.4797 -0.4469
19804TIP3    H180827   5.697   4.545   4.850 -1.6621  0.3462  0.8999
19804TIP3    H280828   5.580   4.538   4.754  0.9972 -1.3516 -2.3150
19805TIP3   OH280829   3.410   4.728  15.875  0.0662 -0.2848 -0.0161
19805TIP3    H180830   3.358   4.648  15.887  1.9524 -1.5703 -0.2047
19805TIP3    H280831   3.394   4.779  15.955 -2.3990 -0.0995 -0.5987
19806TIP3   OH280832   4.717   6.440   2.944 -0.0743  0.2051 -0.3998
19806TIP3    H180833   4.703   6.378   2.872 -0.1471  0.3172 -0.4831
19806TIP3    H280834   4.632   6.445   2.988 -0.1439  0.4573 -0.5625
19807TIP3   OH280835   0.982   2.232   2.474  0.1219 -0.0066 -0.3645
19807TIP3    H180836   0.945   2.153   2.514 -1.7638 -0.1911 -2.4079
19807TIP3    H280837   0.990   2.294   2.546 -2.0081 -0.7444  0.5321
19808TIP3   OH280838   3.878   2.979  13.156  0.1496 -0.2885 -0.7149
19808TIP3    H180839   3.884   3.067  13.192 -0.5443  0.1208 -1.5760
19808TIP3    H280840   3.787   2.969  13.129  0.3569 -1.0430 -1.1757
19809TIP3   OH280841   1.248   5.785   3.752 -0.6521 -0.3787  0.3348
19809TIP3    H180842   1.153   5.787   3.738 -0.4739  0.0232 -0.8785
19809TIP3    H280843   1.269   5.873   3.783 -0.2857  0.4833 -2.2104
19810TIP3   OH280844   4.610   5.148  14.315  0.5425 -0.4050 -0.0260
19810TIP3    H180845   4.684   5.191  14.357  0.8414 -2.0376  1.1680
19810TIP3    H280846   4.533   5.183  14.360  0.6033  0.9681 -0.9756
19811TIP3   OH280847   2.701   1.910   3.726 -0.0164  0.4766  0.0807
19811TIP3    H180848   2.733   1.988   3.680  1.4682 -0.4497 -0.4992
19811TIP3    H280849   2.774   1.848   3.721 -0.8258 -0.6040  1.3793
19812TIP3   OH280850   0.077   6.155   2.976  0.5700  0.0324  0.3084
19812TIP3    H180851   0.123   6.078   3.009 -1.7454 -1.4198  0.2929
19812TIP3    H280852  -0.014   6.141   3.002  0.1960  3.0524  0.7817
19813TIP3   OH280853   2.030   3.326  16.206  0.1428  0.3835  0.3596
19813TIP3    H180854   1.952   3.300  16.256 -1.5551  2.3274 -1.2221
19813TIP3    H280855   2.082   3.245  16.200 -3.1258 -1.7162 -1.0544
19814TIP3   OH280856   4.169   2.206  10.222  0.1102  0.1664 -0.4786
19814TIP3    H180857   4.256   2.244  10.211  0.9570 -1.6120 -0.1872
19814TIP3    H280858   4.172   2.125  10.170 -0.1108 -1.7897  2.4553
19815TIP3   OH280859   1.128   0.198  14.955  0.6383  0.2802  0.3437
19815TIP3    H180860   1.113   0.131  14.888  1.1660  0.7351 -0.2282
19815TIP3    H280861   1.218   0.185  14.983  0.8905  1.0274 -0.0904
19816TIP3   OH280862   1.324   1.006   1.261 -0.0588  0.1502 -0.1641
19816TIP3    H180863   1.406   1.047   1.233  0.0933 -1.0970 -1.6564
19816TIP3    H280864   1.331   0.916   1.230 -2.7881  0.5131 -1.9991
19817TIP3   OH280865   1.440   0.334   2.564 -0.0834 -0.1104 -0.1311
19817TIP3    H180866   1.467   0.309   2.476 -0.3533 -1.7129  0.2274
19817TIP3    H280867   1.508   0.395   2.593  0.9218 -0.8920 -0.8001
19818TIP3   OH280868   0.504   4.785  15.798 -0.1301  0.1049 -0.6590
19818TIP3    H180869   0.565   4.858  15.803  1.0783 -0.9314  0.1034
19818TIP3    H280870   0.453   4.790  15.879 -0.9286  0.8526 -1.2020
19819TIP3   OH280871   4.880   4.302  13.510  0.1592 -0.0440 -0.0227
19819TIP3    H180872   4.947   4.236  13.489 -0.8777 -1.1325  0.0232
19819TIP3    H280873   4.830   4.262  13.581 -1.6104  0.0198 -1.2160
19820TIP3   OH280874   4.193   0.857  16.033  0.0096  0.1995  0.3099
19820TIP3    H180875   4.185   0.913  15.956 -2.1951 -0.3646  0.1112
19820TIP3    H280876   4.261   0.899  16.086 -1.9246  3.3800  0.3977
19821TIP3   OH280877   5.187   1.607   2.804  0.3029 -0.0591  0.2615
19821TIP3    H180878   5.236   1.608   2.886  1.3388  1.1587 -0.3521
19821TIP3    H280879   5.250   1.576   2.739 -0.3218 -0.4014 -0.1866
19822TIP3   OH280880   4.214   2.540  17.045 -0.6353 -0.5500 -0.5540
19822TIP3    H180881   4.219   2.612  17.108 -1.9640  0.1373 -1.2153
19822TIP3    H280882   4.277   2.563  16.977  1.3490 -1.6540  0.8361
19823TIP3   OH280883   6.512   2.846   5.273 -0.9306 -0.4517 -0.5180
19823TIP3    H180884   6.518   2.761   5.317 -0.4651  0.2124  0.7362
19823TIP3    H280885   6.429   2.843   5.226 -1.8911 -0.8629  1.1324
19824TIP3   OH280886   2.100   1.883   4.851  0.5990 -0.5044 -0.2572
19824TIP3    H180887   2.078   1.822   4.921 -2.5692  0.9338  0.0984
19824TIP3    H280888   2.151   1.952   4.894 -1.8592  0.6983  0.8531
19825TIP3   OH280889   6.203   1.991  10.557 -0.0128 -0.5572 -0.1396
19825TIP3    H180890   6.275   2.026  10.503  0.3172  0.2460  0.7863
19825TIP3    H280891   6.127   1.991  10.499  0.6936 -1.2156 -1.0749
19826TIP3   OH280892   2.596   0.451  13.321  0.0632  0.2414  0.5410
19826TIP3    H180893   2.689   0.454  13.298 -0.1640 -4.6480 -1.6669
19826TIP3    H280894   2.552   0.488  13.245  0.1187  1.0061  0.8795
19827TIP3   OH280895   0.229   2.452   1.278  0.6060 -0.4184  0.0827
19827TIP3    H180896   0.198   2.429   1.191 -2.6034  0.7931  0.8209
19827TIP3    H280897   0.293   2.385   1.300 -0.5989 -2.3306 -2.0940
19828TIP3   OH280898   3.990   6.176  12.990 -0.2764  0.3024 -0.4308
19828TIP3    H180899   3.911   6.128  12.962 -0.7181  0.6433  0.2134
19828TIP3    H280900   4.037   6.113  13.045 -0.9086  0.6329  0.5023
19829TIP3   OH280901   1.578   0.792  16.684  0.2520 -0.2831 -0.0093
19829TIP3    H180902   1.543   0.736  16.753  0.9799 -0.3175  0.3340
19829TIP3    H280903   1.562   0.881  16.715  0.5141 -0.2987  0.1718
19830TIP3   OH280904   1.964   1.550  12.622 -0.3141  0.4357  0.0444
19830TIP3    H180905   1.919   1.629  12.592  0.4781  0.3149 -1.5026
19830TIP3    H280906   2.057   1.570  12.615 -0.1045 -0.0415  1.2749
19831TIP3   OH280907   4.653   3.257  13.662 -0.1101  1.1423 -0.3911
19831TIP3    H180908   4.733   3.290  13.621  0.7800 -0.2551  0.1859
19831TIP3    H280909   4.593   3.332  13.661  2.1018  3.0391  1.5709
19832TIP3   OH280910   3.095   4.133  14.785  0.2184 -0.0407  0.2876
19832TIP3    H180911   3.055   4.131  14.872  0.6725 -0.1305  0.4949
19832TIP3    H280912   3.034   4.184  14.732  0.1263  0.3303  0.7500
19833TIP3   OH280913   3.480   0.674  13.046  0.1144  0.5323  0.6915
19833TIP3    H180914   3.502   0.701  12.957 -1.9819  1.7413  0.5024
19833TIP3    H280915   3.468   0.756  13.094 -1.7393 -0.0878  1.3283
19834TIP3   OH280916   0.924   2.399  15.387  0.1057  0.1096 -0.3433
19834TIP3    H180917   0.901   2.436  15.301 -0.1994 -0.9464 -0.7226
19834TIP3    H280918   0.964   2.314  15.366  1.2188  0.4166  0.4954
19835TIP3   OH280919   3.554   0.191   2.348  0.1127 -0.4486 -0.4584
19835TIP3    H180920   3.501   0.213   2.271  1.9353 -0.2273 -1.6859
19835TIP3    H280921   3.609   0.269   2.362  0.0920 -0.6506  0.8183
19836TIP3   OH280922   1.757   3.701   5.659  0.1091 -0.1652 -0.5227
19836TIP3    H180923   1.818   3.631   5.682  0.5805  0.3972 -0.0315
19836TIP3    H280924   1.681   3.687   5.716  1.7710  1.9483  2.4061
19837TIP3   OH280925   5.608   5.173   5.888 -0.1512 -0.0123  0.0053
19837TIP3    H180926   5.597   5.267   5.878  0.0032  0.1176  0.9977
19837TIP3    H280927   5.628   5.161   5.981 -0.0953 -1.0137 -0.1310
19838TIP3   OH280928   3.554   0.825  15.743 -0.0590 -0.2431  0.0702
19838TIP3    H180929   3.570   0.903  15.690  0.5610 -1.4514 -1.5723
19838TIP3    H280930   3.588   0.753  15.690  0.7780 -1.4813  2.1988
19839TIP3   OH280931   4.103   5.079   1.966  0.2383  0.1820  0.3882
19839TIP3    H180932   4.179   5.046   2.014 -0.2661 -0.5528  0.6993
19839TIP3    H280933   4.072   5.153   2.017  0.7716  0.5092  0.2377
19840TIP3   OH280934   2.129   3.755  11.993  0.3218 -0.4566  0.2396
19840TIP3    H180935   2.225   3.758  11.994  0.3234 -0.3382 -0.1184
19840TIP3    H280936   2.105   3.787  11.906 -0.1132  1.5395  1.0580
19841TIP3   OH280937   1.184   3.271   5.021  0.6828 -0.5466 -0.0106
19841TIP3    H180938   1.089   3.284   5.025  0.5981 -1.1087 -0.0976
19841TIP3    H280939   1.197   3.182   5.055  1.3075  0.0508  1.3672
19842TIP3   OH280940   5.801   5.403  12.655 -0.3640  0.0900  0.1025
19842TIP3    H180941   5.850   5.483  12.634 -2.1131  0.2201 -4.1287
19842TIP3    H280942   5.714   5.435  12.680 -0.6087 -0.3819 -0.1399
19843TIP3   OH280943   5.832   1.008  10.966 -0.1735 -0.0106 -0.4199
19843TIP3    H180944   5.807   0.947  10.896 -0.4884  0.7689 -1.0001
19843TIP3    H280945   5.870   1.083  10.920  1.1421 -0.1954  0.3402
19844TIP3   OH280946   6.547   2.471  15.016 -0.1499  0.0586  0.5604
19844TIP3    H180947   6.497   2.526  14.956 -0.3999 -0.7354  0.0310
19844TIP3    H280948   6.597   2.532  15.069  0.7871  0.7399 -1.0791
19845TIP3   OH280949   4.995   3.927   4.094 -0.2099 -0.1424  0.2046
19845TIP3    H180950   4.919   3.984   4.081 -0.3206 -0.0592  1.2090
19845TIP3    H280951   4.970   3.870   4.166 -0.2138 -1.6832 -0.9955
19846TIP3   OH280952   5.503   1.120  14.103  0.0685 -0.2741 -0.5632
19846TIP3    H180953   5.592   1.088  14.092 -0.6153 -2.0915 -1.0458
19846TIP3    H280954   5.510   1.193  14.165  2.0289  0.3696 -1.5166
19847TIP3   OH280955   3.907   5.540  11.046 -0.7553 -0.3239 -0.1007
19847TIP3    H180956   3.815   5.515  11.055 -0.6140 -0.9027 -0.3061
19847TIP3    H280957   3.956   5.461  11.067 -0.3455 -0.7456 -2.5365
19848TIP3   OH280958   2.229   0.645  12.128 -0.2310 -0.5163  0.2034
19848TIP3    H180959   2.263   0.588  12.196  0.7732 -1.1165 -0.7779
19848TIP3    H280960   2.302   0.658  12.068 -0.6122  1.3456  0.1032
19849TIP3   OH280961   2.121   1.879   2.641 -0.4051 -0.4155  0.5178
19849TIP3    H180962   2.090   1.795   2.607  1.1832 -1.0350  0.5525
19849TIP3    H280963   2.099   1.877   2.734  0.1741 -1.0480  0.6417
19850TIP3   OH280964   5.944   1.184  16.416  0.6994  0.1984 -0.0841
19850TIP3    H180965   5.871   1.244  16.429  1.3777  1.3470 -1.4349
19850TIP3    H280966   5.991   1.184  16.500 -0.0200  0.5721  0.3198
19851TIP3   OH280967   4.089   2.926  16.403 -0.5878 -0.3297 -0.6793
19851TIP3    H180968   4.142   3.001  16.430 -0.2995 -0.4870 -0.7992
19851TIP3    H280969   4.002   2.943  16.440 -0.0345 -0.8761  0.9030
19852TIP3   OH280970   5.434   1.011  16.459 -0.0194 -0.1519 -0.4875
19852TIP3    H180971   5.454   0.977  16.372  1.6402 -1.3394  0.3231
19852TIP3    H280972   5.402   0.935  16.508  0.1267  0.2565  0.2546
19853TIP3   OH280973   5.490   2.022   0.216  0.2577  0.0429  0.1060
19853TIP3    H180974   5.509   2.116   0.225 -2.0740  0.6113 -0.6612
19853TIP3    H280975   5.485   1.990   0.306  0.9627  0.6662  0.3744
19854TIP3   OH280976   5.849   1.912  14.401 -0.6017  0.2615  0.6398
19854TIP3    H180977   5.834   1.845  14.468 -0.9427 -1.7921 -1.4207
19854TIP3    H280978   5.804   1.878  14.323  2.1829  1.1853 -1.4474
19855TIP3   OH280979   5.140   3.714  16.570  0.3836  0.1936  0.0885
19855TIP3    H180980   5.082   3.648  16.533  0.4006  0.7671 -0.9891
19855TIP3    H280981   5.130   3.705  16.665  0.4686 -1.4189 -0.0483
19856TIP3   OH280982   4.982   5.850  10.838 -0.1968  0.6356  0.1211
19856TIP3    H180983   4.926   5.776  10.863  0.1329 -0.1791 -1.5001
19856TIP3    H280984   4.938   5.927  10.874 -2.4654  0.0423 -1.3256
19857TIP3   OH280985   0.962   4.924  12.341 -0.4104 -0.3018 -0.4530
19857TIP3    H180986   1.051   4.957  12.351 -0.0586 -1.9187  1.8605
19857TIP3    H280987   0.951   4.859  12.410 -3.7084  0.5363 -0.0693
19858TIP3   OH280988   4.744   1.477  16.438  0.3637  0.6938  0.2935
19858TIP3    H180989   4.834   1.448  16.455 -0.3547 -1.1822  0.9997
19858TIP3    H280990   4.719   1.430  16.359  0.8602  3.1622 -1.3727
19859TIP3   OH280991   6.627   3.676   5.562 -0.1101  0.4714  0.1156
19859TIP3    H180992   6.541   3.652   5.596 -0.2083  0.3041 -0.2429
19859TIP3    H280993   6.684   3.605   5.590 -0.7087 -1.0212 -2.2572
19860TIP3   OH280994   5.597   5.174   3.771 -0.4772  0.2134  0.1028
19860TIP3    H180995   5.577   5.092   3.724  0.2162  0.8151 -1.2814
19860TIP3    H280996   5.630   5.145   3.856 -1.5014 -0.9192  0.1238
19861TIP3   OH280997   2.692   5.198  12.672 -0.7764  0.4904 -0.0288
19861TIP3    H180998   2.624   5.209  12.738  0.6930  0.0803  1.5777
19861TIP3    H280999   2.774   5.208  12.720  0.3434 -1.5678 -1.4395
19862TIP3   OH281000   6.461   6.412  11.082  0.3074  0.5217 -0.8569
19862TIP3    H181001   6.426   6.326  11.107  0.6470  0.8097  0.6557
19862TIP3    H281002   6.550   6.412  11.116  0.6482  1.0938 -1.7430
19863TIP3   OH281003   2.315   2.002  13.970  0.2399  0.1101 -0.3134
19863TIP3    H181004   2.259   2.075  13.943  0.0913 -0.3005 -1.1687
19863TIP3    H281005   2.397   2.016  13.923  0.3851  0.0085 -0.0870
19864TIP3   OH281006   4.978   6.059   0.902 -0.6761 -0.2082  0.0232
19864TIP3    H181007   5.027   6.120   0.847 -1.2726 -0.3796 -0.7136
19864TIP3    H281008   4.900   6.038   0.850 -1.3535 -0.2028  1.0286
19865TIP3   OH281009   2.605   4.099   0.139 -0.5449  0.3966  0.0937
19865TIP3    H181010   2.607   4.003   0.146 -1.1498  0.4060  0.4801
19865TIP3    H281011   2.533   4.125   0.197 -1.1680  1.0011 -0.9382
19866TIP3   OH281012   0.996   2.283   4.580  0.0895  0.5633 -0.0484
19866TIP3    H181013   0.919   2.230   4.597  0.2760  0.2063 -0.2917
19866TIP3    H281014   0.990   2.305   4.487  0.3466  0.4214 -0.0999
19867TIP3   OH281015   3.222   5.038   2.143 -0.3728  0.2345 -0.6895
19867TIP3    H181016   3.174   4.968   2.186  0.4856  0.0640  0.0111
19867TIP3    H281017   3.280   4.992   2.081  1.2189  0.2074  0.7799
19868TIP3   OH281018   5.788   2.081   0.111 -0.1145 -0.9988  0.3777
19868TIP3    H181019   5.741   2.076   0.027  0.9551  0.5453 -0.3432
19868TIP3    H281020   5.731   2.136   0.165 -0.1546 -0.8642  0.2025
19869TIP3   OH281021   1.065   6.739  15.524 -0.1785  0.5060 -0.2796
19869TIP3    H181022   1.073   6.659  15.471 -1.0724 -0.3644  0.8474
19869TIP3    H281023   1.065   6.810  15.461  3.5930 -0.1636 -1.1465
19870TIP3   OH281024   0.286   1.684  16.933  0.4267 -0.3701  0.3391
19870TIP3    H181025   0.374   1.707  16.960  0.3426  0.9605 -0.4878
19870TIP3    H281026   0.232   1.758  16.963  0.0026  0.0614 -1.4575
19871TIP3   OH281027   5.994   4.845   2.279  0.0760  0.1441 -0.5154
19871TIP3    H181028   5.914   4.875   2.322  1.3570  2.4390  0.3687
19871TIP3    H281029   6.012   4.912   2.213  2.6199  1.0393  1.0115
19872TIP3   OH281030   0.792   4.522  13.933  0.3431 -0.4302  0.1643
19872TIP3    H181031   0.819   4.433  13.959  0.7045  0.1714  1.9297
19872TIP3    H281032   0.873   4.564  13.905  0.6394  0.1817  1.8882
19873TIP3   OH281033   2.428   1.549  12.819  0.4526 -0.3307 -0.7884
19873TIP3    H181034   2.388   1.492  12.754  0.4271 -0.0483 -1.0187
19873TIP3    H281035   2.522   1.537  12.807  0.4476 -0.3987 -0.7654
19874TIP3   OH281036   2.793   1.410   5.349 -0.4497 -0.1536 -0.0088
19874TIP3    H181037   2.815   1.484   5.293  1.1696  0.0574  0.8649
19874TIP3    H281038   2.783   1.336   5.289  1.1053  0.0965 -0.6003
19875TIP3   OH281039   4.736   4.689   0.314  0.0242  0.3335 -0.4167
19875TIP3    H181040   4.691   4.623   0.261  0.9385 -1.5539  1.1484
19875TIP3    H281041   4.820   4.650   0.337  0.1048  1.5773  1.5208
19876TIP3   OH281042   0.169   5.013  10.112  0.4672 -0.0769  0.2433
19876TIP3    H181043   0.193   5.091  10.163 -1.7650 -0.1173  1.4280
19876TIP3    H281044   0.193   4.939  10.167 -1.1251 -0.1375  0.8733
19877TIP3   OH281045   3.527   3.279   5.498  0.2572 -0.2433  0.1024
19877TIP3    H181046   3.577   3.314   5.425  1.1386 -0.0775  0.7770
19877TIP3    H281047   3.435   3.292   5.473  0.5471 -0.3007 -1.0152
19878TIP3   OH281048   0.036   1.098   4.173  0.2487  0.2748 -0.0311
19878TIP3    H181049   0.123   1.081   4.135  0.2771 -0.5379  0.3784
19878TIP3    H281050   0.035   1.192   4.189  0.1416  0.6817 -2.2789
19879TIP3   OH281051   3.757   1.266  16.766 -0.1399 -0.2582 -0.4951
19879TIP3    H181052   3.731   1.193  16.823  0.5878 -1.4442 -1.6433
19879TIP3    H281053   3.798   1.329  16.825 -2.6328  0.1980  0.8525
19880TIP3   OH281054   1.800   6.035  17.056  0.0527 -0.6966  0.6297
19880TIP3    H181055   1.709   6.021  17.032  0.8542 -0.6558 -2.6825
19880TIP3    H281056   1.817   6.127  17.035  1.6730 -1.5094 -1.8110
19881TIP3   OH281057   1.099   1.898  14.234 -0.1179  0.0749  0.5287
19881TIP3    H181058   1.156   1.855  14.172 -0.8318  0.4219 -0.3849
19881TIP3    H281059   1.028   1.934  14.181  0.0482  1.6786  1.3624
19882TIP3   OH281060   0.791   0.531  13.233 -0.3705 -0.3109  0.5125
19882TIP3    H181061   0.779   0.488  13.149  0.0990  0.1149  0.2319
19882TIP3    H281062   0.707   0.574  13.250  0.1491  1.2149 -0.6514
19883TIP3   OH281063   2.282   3.469  16.159 -0.1410 -0.4443  0.1443
19883TIP3    H181064   2.324   3.532  16.218 -0.8701  1.7368 -1.5740
19883TIP3    H281065   2.216   3.426  16.212  1.0161 -0.4709  1.6151
19884TIP3   OH281066   3.971   1.072  15.298 -0.2015 -0.4055  0.4287
19884TIP3    H181067   4.027   1.041  15.227 -0.9604 -0.2100 -0.2654
19884TIP3    H281068   3.882   1.054  15.267 -0.4597 -3.6920  2.8908
19885TIP3   OH281069   2.773   4.944   1.263  0.3580 -0.2196 -0.5816
19885TIP3    H181070   2.741   4.990   1.340  3.6281  2.1194 -0.4750
19885TIP3    H281071   2.789   5.014   1.199  1.2235 -1.6886 -2.0165
19886TIP3   OH281072   4.141   0.944  12.203 -0.2009  0.3603  0.1872
19886TIP3    H181073   4.137   0.919  12.111 -0.8893  2.1284 -0.2994
19886TIP3    H281074   4.069   1.007  12.214 -0.4631 -0.2102  2.0633
19887TIP3   OH281075   6.668   1.512  16.716 -0.0865 -0.4262  0.0376
19887TIP3    H181076   6.660   1.417  16.721 -1.7999 -0.2628  1.1341
19887TIP3    H281077   6.697   1.537  16.804  0.6136  0.0476 -0.3270
19888TIP3   OH281078   0.227   1.950   0.625 -0.2683  0.2179 -0.3288
19888TIP3    H181079   0.269   2.025   0.668  0.0828  2.3343 -4.1574
19888TIP3    H281080   0.300   1.897   0.593 -0.4883  0.7880 -1.8081
19889TIP3   OH281081   5.432   3.187  13.760  0.0175 -0.5645 -0.0954
19889TIP3    H181082   5.419   3.235  13.842  0.4600 -3.2512  1.6323
19889TIP3    H281083   5.346   3.188  13.718 -0.3196  0.5052  0.6079
19890TIP3   OH281084   4.042   4.183   2.930  0.1289  0.0044  0.6821
19890TIP3    H181085   3.956   4.224   2.922 -0.0359 -0.3407  0.6843
19890TIP3    H281086   4.067   4.162   2.840 -0.5061 -1.3628  0.8087
19891TIP3   OH281087   4.773   6.408  12.207 -0.3779 -0.5725  0.2363
19891TIP3    H181088   4.797   6.470  12.138 -1.1110 -0.3594  0.1623
19891TIP3    H281089   4.732   6.462  12.275 -1.0855 -0.9755  0.1411
19892TIP3   OH281090   1.789   0.048   0.627 -0.0040 -0.0281 -0.1069
19892TIP3    H181091   1.792   0.124   0.685  1.5969 -1.0595  1.1773
19892TIP3    H281092   1.803  -0.027   0.684 -0.0820 -1.2033 -1.5909
19893TIP3   OH281093   0.211   4.926  10.966 -0.1243 -0.0952 -0.2549
19893TIP3    H181094   0.180   5.011  10.935  0.2489  0.4256  0.7646
19893TIP3    H281095   0.294   4.945  11.010  0.5924 -1.1724 -1.1040
19894TIP3   OH281096   2.358   3.115  12.427 -0.4020 -0.3449  0.1465
19894TIP3    H181097   2.268   3.144  12.410 -0.1419 -0.6058 -1.8890
19894TIP3    H281098   2.349   3.037  12.481 -1.3876 -0.2083  0.1885
19895TIP3   OH281099   1.340   5.328  11.785 -0.1107 -0.2909  0.4975
19895TIP3    H181100   1.433   5.319  11.768  0.8777  0.8784  4.7620
19895TIP3    H281101   1.316   5.251  11.836 -0.9750  0.4432  1.2426
19896TIP3   OH281102   2.482   0.563  16.738 -0.0123  0.4900  0.1520
19896TIP3    H181103   2.552   0.580  16.674 -0.8921  4.2665  0.0774
19896TIP3    H281104   2.472   0.646  16.784 -4.6312  0.1120  0.0011
19897TIP3   OH281105   5.737   2.104  14.815 -0.0152  0.7185 -0.1299
19897TIP3    H181106   5.681   2.078  14.742 -0.1889  0.0321  0.2410
19897TIP3    H281107   5.683   2.087  14.893  0.9687 -0.6321  0.2699
19898TIP3   OH281108   0.300   3.592   4.116  0.6330  0.0645 -0.1853
19898TIP3    H181109   0.353   3.527   4.071  0.3714 -1.9498  2.3459
19898TIP3    H281110   0.264   3.646   4.045  3.7847 -0.2130 -2.0992
19899TIP3   OH281111   2.531   5.498   6.630 -0.0173  0.3145  0.1764
19899TIP3    H181112   2.567   5.424   6.581  0.6948  1.2043 -0.6540
19899TIP3    H281113   2.607   5.548   6.658 -0.4611  0.3200  1.4132
19900TIP3   OH281114   0.513   0.797  17.027  0.4593 -0.4823 -0.3790
19900TIP3    H181115   0.545   0.794  17.117 -1.4281  1.1214  0.3626
19900TIP3    H281116   0.425   0.762  17.031 -0.7320  2.2509 -1.0530
19901TIP3   OH281117   2.176   4.536  15.112  0.0505 -0.3918  0.0464
19901TIP3    H181118   2.190   4.442  15.120  0.7761 -0.2559  0.3794
19901TIP3    H281119   2.167   4.567  15.202 -0.6375 -0.2027 -0.0799
19902TIP3   OH281120   1.769   6.699   6.681  0.2639 -1.0657 -0.5200
19902TIP3    H181121   1.758   6.615   6.636  0.2987 -1.7983  0.8027
19902TIP3    H281122   1.857   6.727   6.658  1.0746 -2.4631  0.7214
19903TIP3   OH281123   2.782   3.033   2.273 -0.3299  0.0189  0.1661
19903TIP3    H181124   2.805   3.048   2.365 -1.4033 -0.7761  0.5731
19903TIP3    H281125   2.866   3.018   2.230  0.1736  0.2718  1.0388
19904TIP3   OH281126   5.105   5.856   1.980  0.4150  0.3945  0.2437
19904TIP3    H181127   5.019   5.844   1.939  0.6060  0.0485 -0.0534
19904TIP3    H281128   5.168   5.830   1.913  0.7015 -1.3643  1.1617
19905TIP3   OH281129   2.359   4.808   3.795  0.0842  0.0007  0.4380
19905TIP3    H181130   2.272   4.844   3.783  0.6661  0.7661 -1.7260
19905TIP3    H281131   2.415   4.885   3.806  0.6763 -0.4300  0.4647
19906TIP3   OH281132   3.039   4.040  14.113 -0.2598 -0.3247  0.5616
19906TIP3    H181133   3.128   4.014  14.138 -0.8902 -1.8267  1.3113
19906TIP3    H281134   3.039   4.135  14.120  1.7729 -0.1617 -1.0433
19907TIP3   OH281135   4.868   3.279   0.704 -0.3178  0.0910  0.0182
19907TIP3    H181136   4.957   3.283   0.668 -0.1906  0.0962  0.3387
19907TIP3    H281137   4.880   3.271   0.798 -0.6722  1.4608  0.1852
19908TIP3   OH281138   1.683   0.806  14.054 -0.0951  0.3776 -0.5873
19908TIP3    H181139   1.753   0.846  14.107 -0.9857  2.2298 -0.7521
19908TIP3    H281140   1.621   0.772  14.118 -0.8412  2.0163 -0.4231
19909TIP3   OH281141   0.913   0.981  10.621  0.7415 -0.5469 -0.2637
19909TIP3    H181142   0.875   1.062  10.656 -0.3269 -0.7359 -0.9588
19909TIP3    H281143   1.005   0.983  10.649  1.1528  1.6994 -1.6860
19910TIP3   OH281144   5.897   5.879   4.670 -0.4637 -0.1981 -0.2017
19910TIP3    H181145   5.974   5.930   4.695 -1.5245  1.0042  0.6869
19910TIP3    H281146   5.915   5.850   4.581  0.2466  1.5778 -0.6638
19911TIP3   OH281147   3.770   2.051   2.744  0.0785 -0.2190  0.2418
19911TIP3    H181148   3.675   2.062   2.734  0.4197  1.5472 -1.4020
19911TIP3    H281149   3.794   1.990   2.674  0.2742  0.0709  0.0532
19912TIP3   OH281150   6.633   4.165   5.159  0.1361  0.2274 -0.2606
19912TIP3    H181151   6.600   4.075   5.163  0.7291 -0.0084 -0.5043
19912TIP3    H281152   6.655   4.178   5.066 -5.8643  2.8028 -1.5084
19913TIP3   OH281153   6.718   2.300   1.285 -0.0550  0.1761  0.0736
19913TIP3    H181154   6.802   2.307   1.240  0.3381  1.4458  0.9684
19913TIP3    H281155   6.669   2.377   1.256  0.7675  1.8606  2.8936
19914TIP3   OH281156   3.892   5.807  13.086  0.2924  0.4275 -0.0500
19914TIP3    H181157   3.887   5.861  13.165  0.7604  0.4824 -0.0531
19914TIP3    H281158   3.857   5.862  13.016 -1.0850  0.0053  0.3031
19915TIP3   OH281159   0.305   3.023  11.386 -0.3727 -0.8375  0.7413
19915TIP3    H181160   0.301   3.040  11.480 -1.8255  0.0212  0.5286
19915TIP3    H281161   0.391   2.982  11.373 -0.7170 -2.1884  2.6249
19916TIP3   OH281162   3.967   5.762   3.657 -0.3333  0.4849 -0.1701
19916TIP3    H181163   4.033   5.818   3.617 -2.2158  1.5791 -1.8513
19916TIP3    H281164   3.985   5.767   3.751  2.3566  0.2119 -0.6267
19917TIP3   OH281165   5.491   1.921   3.237  0.3779  0.4044 -0.1726
19917TIP3    H181166   5.493   2.009   3.199 -1.5342  0.3247 -0.5369
19917TIP3    H281167   5.505   1.862   3.163 -0.7255  0.3435 -0.3518
19918TIP3   OH281168   1.681   3.144  15.907 -0.3980  0.3959  0.0018
19918TIP3    H181169   1.726   3.221  15.941 -0.5715  1.2360 -1.6476
19918TIP3    H281170   1.720   3.128  15.822  2.4217 -3.7473  1.8976
19919TIP3   OH281171   0.612   4.683  13.102  0.4524 -0.6053 -0.0465
19919TIP3    H181172   0.674   4.610  13.107 -0.6967 -1.5821  0.1671
19919TIP3    H281173   0.528   4.642  13.085 -0.1641  0.7068 -0.2376
19920TIP3   OH281174   6.080   0.141   1.884 -0.6401  0.7174  0.3823
19920TIP3    H181175   6.147   0.132   1.952 -0.2790  0.3480 -0.0213
19920TIP3    H281176   6.112   0.211   1.827 -0.1267 -0.1291 -0.3640
19921TIP3   OH281177   2.324   0.728   5.581 -0.0236  0.2859  0.7865
19921TIP3    H181178   2.367   0.754   5.663 -0.2998  0.7358  0.7899
19921TIP3    H281179   2.275   0.649   5.604  1.6398 -0.8269  0.5258
19922TIP3   OH281180   2.882   4.558   3.765 -0.1729 -0.1261 -0.1528
19922TIP3    H181181   2.879   4.639   3.815 -1.4730  1.2805 -2.4036
19922TIP3    H281182   2.933   4.580   3.687  1.7476 -2.2447  0.4487
19923TIP3   OH281183   0.684   6.329   3.504 -0.0877  0.1488  0.4936
19923TIP3    H181184   0.719   6.242   3.523  0.5000  0.2895  0.0893
19923TIP3    H281185   0.733   6.357   3.426 -1.3735  0.1957 -0.3065
19924TIP3   OH281186   1.509   2.993   6.407  0.0993 -0.3949  0.3955
19924TIP3    H181187   1.436   2.956   6.457  0.3777 -0.5795  0.6709
19924TIP3    H281188   1.560   3.042   6.471  1.2379 -1.7951  0.5972
19925TIP3   OH281189   6.340   4.958  12.231 -0.3041 -0.1553  0.9398
19925TIP3    H181190   6.255   4.988  12.263  0.1065  0.9325  1.0412
19925TIP3    H281191   6.403   5.000  12.289  0.3980  1.0820 -0.6965
19926TIP3   OH281192   5.291   6.551   5.024 -0.0544 -0.4163 -0.5656
19926TIP3    H181193   5.332   6.599   4.952  1.1062 -0.7981 -0.1694
19926TIP3    H281194   5.264   6.468   4.986  2.6866 -1.5962 -0.0393
19927TIP3   OH281195   6.368   3.305   5.535 -0.0517 -0.1250 -0.4170
19927TIP3    H181196   6.424   3.256   5.475  1.6780  2.6424 -1.1558
19927TIP3    H281197   6.280   3.297   5.499  0.5872 -0.6984 -1.8555
19928TIP3   OH281198   0.851   3.832  10.999  0.0001 -0.2763 -0.2863
19928TIP3    H181199   0.913   3.825  10.926 -0.8563  0.6269 -1.1158
19928TIP3    H281200   0.893   3.894  11.060 -0.9433  1.8419 -1.7529
19929TIP3   OH281201   2.545   5.820  13.385  0.5011  0.2930  0.2973
19929TIP3    H181202   2.555   5.726  13.370  0.9952  0.2994  0.5578
19929TIP3    H281203   2.470   5.846  13.331 -0.5993 -0.5426  1.3960
19930TIP3   OH281204   3.686   4.148  17.127  0.0099 -0.5284  0.4119
19930TIP3    H181205   3.773   4.157  17.088  1.1463 -4.0673  1.8327
19930TIP3    H281206   3.684   4.213  17.197  1.7180 -0.6943  0.6420
19931TIP3   OH281207   3.918   6.240   4.389 -0.5186  0.5002  0.3002
19931TIP3    H181208   3.975   6.233   4.313 -1.1663  1.7765 -0.3133
19931TIP3    H281209   3.850   6.175   4.374 -0.3097  0.3329  0.0786
19932TIP3   OH281210   5.626   6.407  11.448  0.2944 -0.0139  0.3075
19932TIP3    H181211   5.687   6.429  11.378 -0.6509 -1.6187 -1.0491
19932TIP3    H281212   5.542   6.444  11.420  0.1635  0.3966  1.1914
19933TIP3   OH281213   2.981   3.165   3.960 -0.0048 -0.0853  0.0038
19933TIP3    H181214   2.948   3.184   4.048  0.2750  0.1519  0.0597
19933TIP3    H281215   2.906   3.178   3.903  0.4691  2.4281 -0.1131
19934TIP3   OH281216   3.114   6.638  12.356  0.4232  0.0984 -0.2419
19934TIP3    H181217   3.145   6.654  12.445  1.1565 -0.5030 -0.3772
19934TIP3    H281218   3.023   6.668  12.355  0.5192  0.4008  0.6198
19935TIP3   OH281219   6.001   3.864  14.003 -0.3456 -0.3581  0.0137
19935TIP3    H181220   5.921   3.905  14.037  0.0150 -0.6397  1.2435
19935TIP3    H281221   5.991   3.866  13.908 -0.9841  1.2866  0.0978
19936TIP3   OH281222   3.128   4.321  15.584 -0.2955 -0.8106 -0.5591
19936TIP3    H181223   3.186   4.250  15.612 -0.3452 -0.6309  0.0020
19936TIP3    H281224   3.129   4.316  15.488  0.2452 -1.1276 -0.5401
19937TIP3   OH281225   3.168   3.695  12.872  0.0442 -0.6547  0.1036
19937TIP3    H181226   3.167   3.701  12.968 -0.9947  1.6570 -0.0287
19937TIP3    H281227   3.079   3.671  12.848  0.2060 -0.8410 -0.3237
19938TIP3   OH281228   0.550   3.794   1.375  0.0388  0.4530  0.4447
19938TIP3    H181229   0.535   3.872   1.322  0.1130 -0.0079 -0.2593
19938TIP3    H281230   0.638   3.806   1.412 -0.0347  0.7942  0.5106
19939TIP3   OH281231   0.963   5.023   4.766 -0.3187  0.3244 -0.5031
19939TIP3    H181232   1.018   5.093   4.729  1.4574  0.3531  2.0860
19939TIP3    H281233   0.950   5.048   4.857 -1.7495 -1.4848 -0.1782
19940TIP3   OH281234   0.403   2.405   1.855  0.2638 -0.2771 -0.3744
19940TIP3    H181235   0.399   2.336   1.788  0.6255 -0.8268  0.1596
19940TIP3    H281236   0.341   2.377   1.922  0.2407  0.0339 -0.2672
19941TIP3   OH281237   2.460   2.023   3.877 -0.0354  0.3238 -0.3841
19941TIP3    H181238   2.522   1.964   3.834 -1.7909 -1.9220  0.0520
19941TIP3    H281239   2.375   1.981   3.864 -1.1349  1.9246  1.3976
19942TIP3   OH281240   6.529   5.618  14.010  0.5550  0.5917  0.2556
19942TIP3    H181241   6.483   5.691  14.052  0.7488  0.7184  0.2441
19942TIP3    H281242   6.537   5.552  14.079  1.8816  1.2521  0.7337
19943LIG      S81243   3.278   3.368  16.264  0.1491 -0.2451 -0.2600
19943LIG     O181244   3.225   3.069  16.225 -0.1065 -0.4236 -0.0201
19943LIG     O281245   3.399   3.357  16.807 -0.3431  0.1489  0.1133
19943LIG     O381246   3.233   3.221  16.833 -0.1871  0.2867 -0.3213
19943LIG     N181247   3.214   3.689  16.718  0.7797 -0.2102 -0.0959
19943LIG     N281248   3.208   3.504  16.559 -0.5507  0.0137 -0.0997
19943LIG     N381249   3.280   3.327  16.797 -0.2801 -0.2223 -0.3713
19943LIG     N481250   3.130   2.888  16.470  0.1581 -0.5482  0.0382
19943LIG     C181251   3.342   3.749  16.673 -0.2314 -0.2022  0.2656
19943LIG     C281252   3.352   3.895  16.726  0.1335  0.2331  0.9772
19943LIG     C381253   3.464   3.659  16.719  0.4271 -1.0634  0.2902
19943LIG     C481254   3.346   3.992  16.608  0.1039  0.8797 -0.1417
19943LIG     C581255   3.600   3.721  16.694 -0.1794  0.4970  0.0632
19943LIG     C681256   3.462   3.970  16.498  0.4116 -0.2028  0.2427
19943LIG     C781257   3.635   3.779  16.558  0.2784 -0.6500 -0.0228
19943LIG     C881258   3.600   3.931  16.547  0.3258  0.0050 -0.5884
19943LIG     C981259   3.192   3.547  16.682 -0.0509 -0.1998  0.0670
19943LIG    C1081260   3.183   3.444  16.803  0.8422 -0.2435 -0.5551
19943LIG    C1181261   3.137   3.375  16.520  0.1634  0.6760  0.4758
19943LIG    C1281262   3.130   3.361  16.365  0.1834  0.0913 -0.5929
19943LIG    C1381263   3.238   3.285  16.108  0.7093  0.5072  1.0296
19943LIG    C1481264   3.177   3.145  16.125 -0.3533  0.6003  0.0766
19943LIG    C1581265   3.136   2.959  16.226  0.3726 -0.1018  0.6712
19943LIG    C1681266   3.165   2.848  16.327  0.1789  0.2247  0.3949
19943LIG    C1781267   3.066   3.096  16.073 -0.3901 -0.9027 -0.2555
19943LIG    C1881268   3.036   2.978  16.137 -0.1134  0.0583  0.2727
19943LIG    C1981269   2.991   2.927  16.488  0.7645  0.2489 -0.0243
19943LIG    C2081270   3.242   2.968  16.533  0.0340 -0.2588  0.4005
19943LIG     H181271   3.344   3.745  16.562  0.6398 -0.9800  0.3080
19943LIG     H281272   3.444   3.910  16.787  0.1559  1.9404  0.5290
19943LIG     H381273   3.266   3.915  16.794 -0.6220 -0.7551  0.3341
19943LIG     H481274   3.458   3.562  16.664 -2.8092 -1.1856  0.7299
19943LIG     H581275   3.454   3.642  16.828 -0.0475 -0.5340  0.3322
19943LIG     H681276   3.352   4.091  16.657  0.5902  0.4183  0.7554
19943LIG     H781277   3.247   3.995  16.558  1.5114 -1.1400 -3.1892
19943LIG     H881278   3.675   3.648  16.729 -0.6638  1.1724  2.6417
19943LIG     H981279   3.631   3.792  16.774  0.8727  1.0830 -0.8427
19943LIG    H1081280   3.473   4.067  16.444 -1.0061 -0.0500  0.1927
19943LIG    H1181281   3.424   3.896  16.424 -1.0972  2.1241 -1.3916
19943LIG    H1281282   3.597   3.730  16.466  0.4658 -3.4236  1.3109
19943LIG    H1381283   3.746   3.790  16.554  0.1809  0.0205 -0.8100
19943LIG    H1481284   3.607   3.995  16.637  0.1982  1.1790 -1.3985
19943LIG    H1581285   3.672   3.953  16.466  0.1995  0.2974 -0.6220
19943LIG    H1681286   3.210   3.698  16.819  1.3754 -0.3941 -0.0522
19943LIG    H1781287   3.211   3.501  16.893 -0.5436 -0.1209 -0.1958
19943LIG    H1881288   3.078   3.411  16.808  0.6066  0.7173  1.6639
19943LIG    H1981289   3.029   3.372  16.545 -0.0040  1.2390 -0.1704
19943LIG    H2081290   3.184   3.283  16.561  2.1071  1.9625  1.2023
19943LIG    H2181291   3.071   3.270  16.342  1.3538 -0.4024 -1.6499
19943LIG    H2281292   3.069   3.447  16.329  0.0250  0.1828 -0.1112
19943LIG    H2381293   3.320   3.283  16.033 -0.6434 -0.7654 -0.4742
19943LIG    H2481294   3.162   3.350  16.059  1.4798  0.6965  0.0659
19943LIG    H2581295   3.107   2.758  16.298 -1.5647  0.9298  1.6514
19943LIG    H2681296   3.274   2.825  16.322 -0.3752 -2.2916 -0.5180
19943LIG    H2781297   3.030   3.144  15.983  1.6445  1.0090 -0.0704
19943LIG    H2881298   2.974   2.900  16.096  0.3508  0.7706 -1.8644
19943LIG    H2981299   2.961   2.892  16.588  1.7829  1.9179  0.8956
19943LIG    H3081300   2.923   2.877  16.416 -0.3177 -1.8328  2.3773
19943LIG    H3181301   2.979   3.038  16.487  2.4091  0.4454 -1.4501
19943LIG    H3281302   3.321   2.998  16.461  0.7192  0.1489  1.3191
19943LIG    H3381303   3.302   2.907  16.604  1.5810 -0.2159 -0.8314
19943LIG    H3481304   3.195   3.055  16.582  3.1623  2.8513 -1.8515
   6.78697   6.78697  17.23950
